/*--------------------------------*- C++ -*----------------------------------*\
  =========                 |
  \\      /  F ield         | OpenFOAM: The Open Source CFD Toolbox
   \\    /   O peration     | Website:  https://openfoam.org
    \\  /    A nd           | Version:  8
     \\/     M anipulation  |
\*---------------------------------------------------------------------------*/
FoamFile
{
    version     2.0;
    format      ascii;
    class       volScalarField;
    location    "1";
    object      N;
}
// * * * * * * * * * * * * * * * * * * * * * * * * * * * * * * * * * * * * * //

dimensions      [0 -3 0 0 0 0 0];

internalField   nonuniform List<scalar> 
200
(
7.8920577e+10
13370189
1149.8601
0.18976596
0.1000075
0.10000104
0.10000111
0.10000115
0.10000117
0.10000118
0.10000119
0.10000119
0.1000012
0.10000121
0.10000121
0.10000122
0.10000122
0.10000122
0.10000122
0.10000123
0.10000123
0.10000123
0.10000123
0.10000123
0.10000123
0.10000123
0.10000123
0.10000123
0.10000123
0.10000123
0.10000123
0.10000123
0.10000123
0.10000123
0.10000123
0.10000123
0.10000123
0.10000123
0.10000123
0.10000123
0.10000123
0.10000122
0.10000123
0.10000122
0.10000123
0.10000122
0.10000124
0.10000122
0.10000124
0.10000122
0.10000124
0.10000121
0.10000124
0.10000121
0.10000123
0.1000012
0.10000123
0.1000012
0.10000123
0.10000119
0.10000123
0.10000118
0.10000123
0.10000117
0.10000122
0.10000116
0.10000122
0.10000115
0.10000121
0.10000114
0.10000121
0.10000113
0.1000012
0.10000111
0.1000012
0.1000011
0.10000119
0.10000108
0.10000119
0.10000107
0.10000118
0.10000105
0.10000118
0.10000104
0.10000118
0.10000103
0.10000118
0.10000101
0.10000117
0.100001
0.10000117
0.10000099
0.10000117
0.10000098
0.10000117
0.10000096
0.10000117
0.10000095
0.10000117
0.10000094
0.10000117
0.10000092
0.10000117
0.1000009
0.10000116
0.10000088
0.10000116
0.10000087
0.10000115
0.10000085
0.10000115
0.10000083
0.10000114
0.10000081
0.10000114
0.10000078
0.10000113
0.10000076
0.10000112
0.10000074
0.10000111
0.10000072
0.10000111
0.10000069
0.1000011
0.10000067
0.10000109
0.10000064
0.10000108
0.10000062
0.10000107
0.10000059
0.10000107
0.10000057
0.10000105
0.10000055
0.10000104
0.10000053
0.10000102
0.10000051
0.10000101
0.1000005
0.100001
0.10000047
0.10000099
0.10000046
0.10000096
0.10000046
0.10000093
0.10000044
0.10000089
0.10000046
0.10000088
0.10000044
0.10000087
0.10000039
0.10000079
0.10000043
0.1000008
0.10000041
0.10000073
0.10000042
0.10000074
0.10000036
0.10000069
0.10000037
0.10000066
0.10000035
0.10000059
0.10000037
0.10000055
0.10000037
0.10000055
0.10000032
0.10000049
0.10000034
0.10000046
0.10000035
0.10000039
0.10000035
0.10000033
0.10000039
0.10000024
0.10000043
0.10000015
0.10000044
0.10000007
0.10000049
0.1
0.1000005
0.099999963
0.10000046
0.099999902
0.10000055
0.099999715
0.10000078
0.099999444
0.10000096
0.099998834
0.099998964
)
;

boundaryField
{
    left
    {
        type            zeroGradient;
    }
    right
    {
        type            zeroGradient;
    }
    walls
    {
        type            zeroGradient;
    }
    centreline
    {
        type            zeroGradient;
    }
    frontAndBack
    {
        type            zeroGradient;
    }
}


// ************************************************************************* //
