/*--------------------------------*- C++ -*----------------------------------*\
  =========                 |
  \\      /  F ield         | OpenFOAM: The Open Source CFD Toolbox
   \\    /   O peration     | Website:  https://openfoam.org
    \\  /    A nd           | Version:  8
     \\/     M anipulation  |
\*---------------------------------------------------------------------------*/
FoamFile
{
    version     2.0;
    format      ascii;
    class       volScalarField;
    location    "1";
    object      p;
}
// * * * * * * * * * * * * * * * * * * * * * * * * * * * * * * * * * * * * * //

dimensions      [1 -1 -2 0 0 0 0];

internalField   nonuniform List<scalar> 
200
(
101325.9
101325.9
101325.9
101325.9
101325.9
101325.9
101325.9
101325.9
101325.9
101325.9
101325.9
101325.9
101325.9
101325.9
101325.9
101325.9
101325.9
101325.9
101325.9
101325.9
101325.9
101325.89
101325.89
101325.89
101325.89
101325.89
101325.89
101325.89
101325.89
101325.89
101325.89
101325.89
101325.89
101325.89
101325.89
101325.89
101325.89
101325.88
101325.89
101325.88
101325.89
101325.88
101325.89
101325.88
101325.89
101325.87
101325.89
101325.87
101325.89
101325.87
101325.89
101325.86
101325.89
101325.86
101325.89
101325.85
101325.89
101325.85
101325.89
101325.84
101325.89
101325.84
101325.89
101325.83
101325.89
101325.82
101325.89
101325.82
101325.89
101325.81
101325.9
101325.8
101325.9
101325.79
101325.9
101325.79
101325.9
101325.78
101325.9
101325.77
101325.9
101325.76
101325.9
101325.75
101325.91
101325.74
101325.91
101325.72
101325.91
101325.71
101325.91
101325.7
101325.92
101325.69
101325.92
101325.67
101325.92
101325.66
101325.92
101325.65
101325.92
101325.63
101325.93
101325.62
101325.93
101325.6
101325.93
101325.58
101325.93
101325.57
101325.94
101325.55
101325.94
101325.53
101325.94
101325.51
101325.94
101325.49
101325.95
101325.48
101325.95
101325.46
101325.95
101325.44
101325.95
101325.42
101325.95
101325.4
101325.95
101325.37
101325.95
101325.35
101325.95
101325.33
101325.95
101325.31
101325.95
101325.29
101325.95
101325.27
101325.95
101325.25
101325.94
101325.22
101325.94
101325.2
101325.93
101325.18
101325.93
101325.16
101325.92
101325.14
101325.91
101325.12
101325.9
101325.1
101325.89
101325.08
101325.88
101325.06
101325.86
101325.05
101325.85
101325.03
101325.83
101325.01
101325.81
101325
101325.79
101324.98
101325.78
101324.96
101325.76
101324.94
101325.75
101324.91
101325.74
101324.88
101325.73
101324.85
101325.73
101324.81
101325.73
101324.77
101325.73
101324.72
101325.73
101324.68
101325.73
101324.65
101325.72
101324.62
101325.69
101324.63
101325.62
101324.67
101325.51
101324.77
101325.33
101324.94
)
;

boundaryField
{
    left
    {
        type            zeroGradient;
    }
    right
    {
        type            zeroGradient;
    }
    walls
    {
        type            zeroGradient;
    }
    centreline
    {
        type            fixedValue;
        value           uniform 101325;
    }
    frontAndBack
    {
        type            zeroGradient;
    }
}


// ************************************************************************* //
