/*--------------------------------*- C++ -*----------------------------------*\
  =========                 |
  \\      /  F ield         | OpenFOAM: The Open Source CFD Toolbox
   \\    /   O peration     | Website:  https://openfoam.org
    \\  /    A nd           | Version:  8
     \\/     M anipulation  |
\*---------------------------------------------------------------------------*/
FoamFile
{
    version     2.0;
    format      ascii;
    class       surfaceScalarField;
    location    "1";
    object      phi;
}
// * * * * * * * * * * * * * * * * * * * * * * * * * * * * * * * * * * * * * //

dimensions      [1 0 -1 0 0 0 0];

internalField   nonuniform List<scalar> 
199
(
-3.9980633e-06
-6.9432189e-06
-9.8802432e-06
-1.2832523e-05
-1.5797213e-05
-1.8772912e-05
-2.1757799e-05
-2.4750158e-05
-2.7748763e-05
-3.075219e-05
-3.375928e-05
-3.6769114e-05
-3.9780433e-05
-4.2792798e-05
-4.5804838e-05
-4.8816668e-05
-5.1826749e-05
-5.4835774e-05
-5.7841839e-05
-6.0846471e-05
-6.384706e-05
-6.6846173e-05
-6.9840159e-05
-7.283258e-05
-7.5819764e-05
-7.8802965e-05
-8.1786639e-05
-8.4752226e-05
-8.7745275e-05
-9.0670501e-05
-9.3705522e-05
-9.6543975e-05
-9.96818e-05
-0.00010235711
-0.0001056957
-0.00010809461
-0.00011177526
-0.00011373458
-0.00011795479
-0.0001192328
-0.00012440238
-0.00012534627
-0.00012797966
-0.00013116719
-0.00013420611
-0.00013700643
-0.00013990794
-0.00014276515
-0.00014570749
-0.00014855814
-0.00015148858
-0.0001543445
-0.00015728981
-0.00016016522
-0.00016312598
-0.0001660208
-0.00016899925
-0.0001719189
-0.00017492118
-0.00017787254
-0.00018090537
-0.00018389532
-0.00018696529
-0.00019000038
-0.0001931135
-0.00019619964
-0.00019936074
-0.00020250261
-0.00020571475
-0.0002089152
-0.00021217917
-0.00021543862
-0.00021875256
-0.00022206859
-0.00022542783
-0.00022879494
-0.00023219203
-0.00023560185
-0.00023902679
-0.00024246871
-0.00024590943
-0.00024937148
-0.00025281465
-0.00025628451
-0.00025971651
-0.00026318242
-0.00026659037
-0.00027004174
-0.00027341419
-0.00027684192
-0.00028016905
-0.00028356528
-0.00028683838
-0.00029019578
-0.00029340602
-0.00029671646
-0.00029985319
-0.00030310601
-0.00030615505
-0.00030933549
-0.00031227787
-0.00031536618
-0.00031817807
-0.00032114991
-0.00032380372
-0.0003266319
-0.00032909881
-0.00033175653
-0.00033401035
-0.00033647588
-0.0003384978
-0.00034075961
-0.00034254279
-0.00034460372
-0.00034615637
-0.00034803553
-0.00034938135
-0.00035111313
-0.00035228882
-0.00035391885
-0.00035496917
-0.00035654833
-0.00035751967
-0.00035909728
-0.00036003083
-0.00036164754
-0.00036257156
-0.00036425051
-0.00036516939
-0.00036690239
-0.0003677789
-0.00036950489
-0.0003702351
-0.00037181359
-0.00037220214
-0.0003733956
-0.00037315177
-0.000373643
-0.00037242735
-0.00037190065
-0.00036944338
-0.00036773526
-0.00036400834
-0.00036127879
-0.00035663944
-0.00035345231
-0.00034863054
-0.00034582156
-0.00034166691
-0.00033998259
-0.00033704781
-0.00033673646
-0.00033496889
-0.00033563849
-0.00033446822
-0.00033539185
-0.00033421732
-0.00033487346
-0.00033354266
-0.00033389455
-0.00033272831
-0.0003329852
-0.000332374
-0.00033256778
-0.00033266049
-0.00033255885
-0.00033336029
-0.00033271293
-0.00033428783
-0.00033295859
-0.00033538007
-0.00033324937
-0.0003364594
-0.00033341412
-0.00033725967
-0.00033334085
-0.00033763555
-0.00033312691
-0.00033757972
-0.00033305058
-0.00033717015
-0.00033358428
-0.00033658539
-0.00033541191
-0.00033606487
-0.00033933953
-0.00033579992
-0.00034615429
-0.00033585014
-0.00035648953
-0.0003360657
-0.0003705498
-0.00033585596
-0.00038776169
-0.00033425542
-0.00040742972
-0.00033089513
-0.00043055324
-0.00032666229
)
;

boundaryField
{
    left
    {
        type            calculated;
        value           uniform 0;
    }
    right
    {
        type            calculated;
        value           uniform 0;
    }
    walls
    {
        type            calculated;
        value           uniform 0;
    }
    centreline
    {
        type            calculated;
        value           uniform -0.00045926107;
    }
    frontAndBack
    {
        type            calculated;
        value           uniform 0;
    }
}


// ************************************************************************* //
