/*--------------------------------*- C++ -*----------------------------------*\
  =========                 |
  \\      /  F ield         | OpenFOAM: The Open Source CFD Toolbox
   \\    /   O peration     | Website:  https://openfoam.org
    \\  /    A nd           | Version:  8
     \\/     M anipulation  |
\*---------------------------------------------------------------------------*/
FoamFile
{
    version     2.0;
    format      ascii;
    class       volScalarField;
    location    "1";
    object      T;
}
// * * * * * * * * * * * * * * * * * * * * * * * * * * * * * * * * * * * * * //

dimensions      [0 0 0 1 0 0 0];

internalField   nonuniform List<scalar> 
200
(
275.6141
370.23482
372.96222
373.00042
372.99968
372.99906
372.99876
372.99861
372.99854
372.99849
372.99845
372.99842
372.99839
372.99837
372.99835
372.99833
372.99832
372.9983
372.99829
372.99828
372.99828
372.99827
372.99827
372.99826
372.99826
372.99826
372.99826
372.99826
372.99826
372.99826
372.99826
372.99826
372.99826
372.99826
372.99825
372.99825
372.99825
372.99824
372.99824
372.99824
372.99824
372.99823
372.99823
372.99823
372.99823
372.99822
372.99822
372.99822
372.99822
372.99822
372.99822
372.99822
372.99822
372.99822
372.99823
372.99823
372.99823
372.99824
372.99824
372.99825
372.99825
372.99826
372.99827
372.99827
372.99828
372.99829
372.9983
372.99831
372.99832
372.99833
372.99835
372.99836
372.99837
372.99838
372.9984
372.99841
372.99843
372.99844
372.99845
372.99846
372.99848
372.99848
372.9985
372.9985
372.99852
372.99852
372.99853
372.99853
372.99854
372.99854
372.99855
372.99854
372.99856
372.99855
372.99857
372.99855
372.99858
372.99856
372.99859
372.99857
372.9986
372.99858
372.99862
372.9986
372.99864
372.99861
372.99867
372.99863
372.9987
372.99865
372.99873
372.99868
372.99876
372.9987
372.99879
372.99872
372.99882
372.99875
372.99885
372.99878
372.99888
372.9988
372.99891
372.99883
372.99894
372.99887
372.99897
372.9989
372.99899
372.99893
372.99902
372.99897
372.99905
372.999
372.9991
372.99901
372.99914
372.99901
372.9992
372.99903
372.99922
372.99904
372.99923
372.99907
372.99924
372.99907
372.9993
372.99899
372.99935
372.99906
372.9995
372.99889
372.99946
372.99895
372.9994
372.99913
372.99964
372.99893
372.99953
372.99901
372.99973
372.99896
372.99954
372.99919
372.99964
372.99916
372.99964
372.99924
372.99981
372.99914
372.99983
372.99916
372.99967
372.99936
372.99977
372.99929
372.99973
372.99931
372.99983
372.99936
372.99986
372.99933
372.99989
372.99938
372.99986
372.99968
372.99962
372.99999
372.99911
373.0007
372.99826
373.00182
372.99726
373.00267
372.9965
373.00324
372.99574
373.00437
372.99515
373.00255
)
;

boundaryField
{
    left
    {
        type            zeroGradient;
    }
    right
    {
        type            zeroGradient;
    }
    walls
    {
        type            fixedValue;
        value           uniform 369;
    }
    centreline
    {
        type            fixedValue;
        value           uniform 373;
    }
    frontAndBack
    {
        type            zeroGradient;
    }
}


// ************************************************************************* //
