/*--------------------------------*- C++ -*----------------------------------*\
  =========                 |
  \\      /  F ield         | OpenFOAM: The Open Source CFD Toolbox
   \\    /   O peration     | Website:  https://openfoam.org
    \\  /    A nd           | Version:  8
     \\/     M anipulation  |
\*---------------------------------------------------------------------------*/
FoamFile
{
    version     2.0;
    format      ascii;
    class       volVectorField;
    location    "1";
    object      U;
}
// * * * * * * * * * * * * * * * * * * * * * * * * * * * * * * * * * * * * * //

dimensions      [0 1 -1 0 0 0 0];

internalField   nonuniform List<vector> 
200
(
(0 1.143731e-05 0)
(0 -1.4422687e-05 0)
(0 7.8494065e-06 0)
(0 -1.5975589e-05 0)
(0 5.3558407e-06 0)
(0 -1.9146266e-05 0)
(0 3.8686324e-06 0)
(0 -2.2861447e-05 0)
(0 2.5917351e-06 0)
(0 -2.661217e-05 0)
(0 1.1954627e-06 0)
(0 -3.017934e-05 0)
(0 -4.3580867e-07 0)
(0 -3.3508806e-05 0)
(0 -2.2994656e-06 0)
(0 -3.6630609e-05 0)
(0 -4.3333556e-06 0)
(0 -3.9628274e-05 0)
(0 -6.4141836e-06 0)
(0 -4.2674692e-05 0)
(0 -8.2827095e-06 0)
(0 -4.61515e-05 0)
(0 -9.3686977e-06 0)
(0 -5.0892154e-05 0)
(0 -8.4676283e-06 0)
(0 -5.8588218e-05 0)
(0 -3.275252e-06 0)
(0 -7.2258967e-05 0)
(0 9.9866702e-06 0)
(0 -9.6420785e-05 0)
(0 3.6466595e-05 0)
(0 -0.00013671397 0)
(0 8.213914e-05 0)
(0 -0.00019931943 0)
(0 0.0001532867 0)
(0 -0.00029057506 0)
(0 0.00025624101 0)
(0 -0.00041682578 0)
(0 0.00039730741 0)
(0 -0.00058439994 0)
(0 0.00058270696 0)
(0 -0.00079800195 0)
(0 0.00081444242 0)
(0 -0.0010584515 0)
(0 0.0010977656 0)
(0 -0.0013755432 0)
(0 0.0014404335 0)
(0 -0.0017550303 0)
(0 0.0018484891 0)
(0 -0.0022030055 0)
(0 0.0023281887 0)
(0 -0.0027257506 0)
(0 0.002885836 0)
(0 -0.0033296771 0)
(0 0.0035278706 0)
(0 -0.0040212772 0)
(0 0.004260822 0)
(0 -0.0048071108 0)
(0 0.0050912707 0)
(0 -0.0056937937 0)
(0 0.0060258439 0)
(0 -0.0066879871 0)
(0 0.0070712151 0)
(0 -0.0077964004 0)
(0 0.008234106 0)
(0 -0.0090257901 0)
(0 0.0095212879 0)
(0 -0.010382958 0)
(0 0.010939575 0)
(0 -0.011874744 0)
(0 0.012495813 0)
(0 -0.013508002 0)
(0 0.01419686 0)
(0 -0.01528959 0)
(0 0.016049571 0)
(0 -0.017226347 0)
(0 0.01806078 0)
(0 -0.019325078 0)
(0 0.02023729 0)
(0 -0.021592553 0)
(0 0.022585866 0)
(0 -0.024035498 0)
(0 0.02511323 0)
(0 -0.02666058 0)
(0 0.027826035 0)
(0 -0.029474393 0)
(0 0.030730851 0)
(0 -0.032483427 0)
(0 0.033834118 0)
(0 -0.035694036 0)
(0 0.037142133 0)
(0 -0.039112408 0)
(0 0.040661005 0)
(0 -0.042744543 0)
(0 0.044396644 0)
(0 -0.046596229 0)
(0 0.048354736 0)
(0 -0.050673013 0)
(0 0.052540722 0)
(0 -0.054980187 0)
(0 0.056959777 0)
(0 -0.05952275 0)
(0 0.061616782 0)
(0 -0.064305388 0)
(0 0.066516297 0)
(0 -0.069332448 0)
(0 0.071662542 0)
(0 -0.07460792 0)
(0 0.077059367 0)
(0 -0.08013542 0)
(0 0.082710238 0)
(0 -0.085918184 0)
(0 0.088618212 0)
(0 -0.09195904 0)
(0 0.094785904 0)
(0 -0.098260395 0)
(0 0.10121546 0)
(0 -0.10482418 0)
(0 0.10790852 0)
(0 -0.11165183 0)
(0 0.11486614 0)
(0 -0.11874419 0)
(0 0.12208881 0)
(0 -0.12610149 0)
(0 0.12957633 0)
(0 -0.13372328 0)
(0 0.13732781 0)
(0 -0.14160833 0)
(0 0.14534159 0)
(0 -0.1497546 0)
(0 0.15361522 0)
(0 -0.15815917 0)
(0 0.16214539 0)
(0 -0.16681813 0)
(0 0.17092791 0)
(0 -0.17572649 0)
(0 0.17995765 0)
(0 -0.18487815 0)
(0 0.18922845 0)
(0 -0.19426579 0)
(0 0.19873296 0)
(0 -0.20388098 0)
(0 0.20846246 0)
(0 -0.21371417 0)
(0 0.21840664 0)
(0 -0.22375481 0)
(0 0.22855348 0)
(0 -0.23399126 0)
(0 0.23888935 0)
(0 -0.24441062 0)
(0 0.2493993 0)
(0 -0.25499842 0)
(0 0.26006758 0)
(0 -0.26573852 0)
(0 0.27087793 0)
(0 -0.27661347 0)
(0 0.28181374 0)
(0 -0.28760547 0)
(0 0.29285827 0)
(0 -0.29869746 0)
(0 0.30399526 0)
(0 -0.30987437 0)
(0 0.31521044 0)
(0 -0.32112414 0)
(0 0.32649352 0)
(0 -0.33243923 0)
(0 0.33784009 0)
(0 -0.34381863 0)
(0 0.34925344 0)
(0 -0.35526993 0)
(0 0.36074612 0)
(0 -0.36681091 0)
(0 0.37234146 0)
(0 -0.37847042 0)
(0 0.38407416 0)
(0 -0.39028853 0)
(0 0.3959897 0)
(0 -0.40231547 0)
(0 0.40814245 0)
(0 -0.41460883 0)
(0 0.42059169 0)
(0 -0.42722832 0)
(0 0.43339505 0)
(0 -0.44022739 0)
(0 0.44659796 0)
(0 -0.45364056 0)
(0 0.46021868 0)
(0 -0.46746546 0)
(0 0.4742275 0)
(0 -0.48163907 0)
(0 0.48852005 0)
(0 -0.49600797 0)
(0 0.50288507 0)
(0 -0.51029355 0)
(0 0.51696816 0)
(0 -0.52405467 0)
(0 0.53023312 0)
(0 -0.53664937 0)
(0 0.54192157 0)
(0 -0.54719585 0)
)
;

boundaryField
{
    left
    {
        type            noSlip;
    }
    right
    {
        type            noSlip;
    }
    walls
    {
        type            noSlip;
    }
    centreline
    {
        type            noSlip;
    }
    frontAndBack
    {
        type            noSlip;
    }
}


// ************************************************************************* //
