/*--------------------------------*- C++ -*----------------------------------*\
  =========                 |
  \\      /  F ield         | OpenFOAM: The Open Source CFD Toolbox
   \\    /   O peration     | Website:  https://openfoam.org
    \\  /    A nd           | Version:  8
     \\/     M anipulation  |
\*---------------------------------------------------------------------------*/
FoamFile
{
    version     2.0;
    format      ascii;
    class       volScalarField;
    location    "0.8";
    object      N;
}
// * * * * * * * * * * * * * * * * * * * * * * * * * * * * * * * * * * * * * //

dimensions      [0 -3 0 0 0 0 0];

internalField   nonuniform List<scalar> 
200
(
26156749
0.10259013
0.10109475
0.10039194
0.1001203
0.10003207
0.10000756
0.10000165
0.1000004
0.10000016
0.10000012
0.10000011
0.10000011
0.10000011
0.10000011
0.10000011
0.10000011
0.10000011
0.10000011
0.10000011
0.10000011
0.10000011
0.10000011
0.10000011
0.10000011
0.10000011
0.10000011
0.10000011
0.10000011
0.10000011
0.10000011
0.10000011
0.10000011
0.10000011
0.10000011
0.10000011
0.10000011
0.10000011
0.10000011
0.10000011
0.10000011
0.10000011
0.10000011
0.10000011
0.10000011
0.10000011
0.10000011
0.10000011
0.10000011
0.10000011
0.10000011
0.10000011
0.10000011
0.10000011
0.10000011
0.10000011
0.10000011
0.10000011
0.10000011
0.10000011
0.10000011
0.10000011
0.10000011
0.10000011
0.10000011
0.1000001
0.1000001
0.1000001
0.1000001
0.1000001
0.1000001
0.1000001
0.1000001
0.1000001
0.1000001
0.1000001
0.1000001
0.1000001
0.1000001
0.1000001
0.1000001
0.1000001
0.1000001
0.1000001
0.1000001
0.1000001
0.1000001
0.1000001
0.1000001
0.1000001
0.1000001
0.1000001
0.1000001
0.1000001
0.1000001
0.1000001
0.10000009
0.10000009
0.10000009
0.10000009
0.10000009
0.10000009
0.10000009
0.10000009
0.10000009
0.10000009
0.10000009
0.10000009
0.10000009
0.10000009
0.10000009
0.10000009
0.10000009
0.10000009
0.10000009
0.10000009
0.10000008
0.10000008
0.10000008
0.10000008
0.10000008
0.10000008
0.10000008
0.10000008
0.10000008
0.10000008
0.10000008
0.10000008
0.10000008
0.10000008
0.10000008
0.10000007
0.10000007
0.10000007
0.10000007
0.10000007
0.10000007
0.10000007
0.10000007
0.10000007
0.10000007
0.10000006
0.10000007
0.10000006
0.10000007
0.10000006
0.10000007
0.10000005
0.10000007
0.10000005
0.10000007
0.10000004
0.10000007
0.10000004
0.10000007
0.10000003
0.10000008
0.10000002
0.10000008
0.10000002
0.10000008
0.10000001
0.10000009
0.099999995
0.1000001
0.099999981
0.10000011
0.099999965
0.10000012
0.099999946
0.10000014
0.099999924
0.10000015
0.099999899
0.10000018
0.09999987
0.1000002
0.099999837
0.10000023
0.099999801
0.10000026
0.099999762
0.1000003
0.09999972
0.10000034
0.099999676
0.10000037
0.099999637
0.10000042
0.09999958
0.10000044
0.099999555
0.10000049
0.099999501
0.10000051
0.099999476
0.10000055
0.099999441
0.10000056
0.099999366
)
;

boundaryField
{
    left
    {
        type            zeroGradient;
    }
    right
    {
        type            zeroGradient;
    }
    walls
    {
        type            zeroGradient;
    }
    centreline
    {
        type            zeroGradient;
    }
    frontAndBack
    {
        type            zeroGradient;
    }
}


// ************************************************************************* //
