/*--------------------------------*- C++ -*----------------------------------*\
  =========                 |
  \\      /  F ield         | OpenFOAM: The Open Source CFD Toolbox
   \\    /   O peration     | Website:  https://openfoam.org
    \\  /    A nd           | Version:  8
     \\/     M anipulation  |
\*---------------------------------------------------------------------------*/
FoamFile
{
    version     2.0;
    format      ascii;
    class       volScalarField;
    location    "0.8";
    object      p;
}
// * * * * * * * * * * * * * * * * * * * * * * * * * * * * * * * * * * * * * //

dimensions      [1 -1 -2 0 0 0 0];

internalField   nonuniform List<scalar> 
200
(
4247.0054
4247.0054
4247.0054
4247.0054
4247.0054
4247.0054
4247.0054
4247.0054
4247.0054
4247.0054
4247.0054
4247.0054
4247.0054
4247.0054
4247.0054
4247.0054
4247.0054
4247.0054
4247.0054
4247.0053
4247.0053
4247.0053
4247.0053
4247.0053
4247.0053
4247.0053
4247.0053
4247.0053
4247.0053
4247.0053
4247.0053
4247.0053
4247.0053
4247.0053
4247.0053
4247.0053
4247.0053
4247.0053
4247.0053
4247.0053
4247.0053
4247.0052
4247.0052
4247.0052
4247.0052
4247.0052
4247.0052
4247.0052
4247.0052
4247.0052
4247.0052
4247.0052
4247.0052
4247.0052
4247.0051
4247.0051
4247.0051
4247.0051
4247.0051
4247.0051
4247.0051
4247.0051
4247.0051
4247.0051
4247.005
4247.005
4247.005
4247.005
4247.005
4247.005
4247.005
4247.005
4247.0049
4247.0049
4247.0049
4247.0049
4247.0049
4247.0049
4247.0049
4247.0048
4247.0048
4247.0048
4247.0048
4247.0048
4247.0048
4247.0048
4247.0047
4247.0047
4247.0047
4247.0047
4247.0047
4247.0046
4247.0046
4247.0046
4247.0046
4247.0046
4247.0045
4247.0045
4247.0045
4247.0045
4247.0045
4247.0044
4247.0044
4247.0044
4247.0044
4247.0043
4247.0043
4247.0043
4247.0043
4247.0042
4247.0042
4247.0042
4247.0042
4247.0041
4247.0041
4247.0041
4247.0041
4247.004
4247.004
4247.004
4247.0039
4247.0039
4247.0039
4247.0038
4247.0038
4247.0038
4247.0038
4247.0037
4247.0037
4247.0036
4247.0036
4247.0035
4247.0036
4247.0034
4247.0035
4247.0033
4247.0034
4247.0032
4247.0034
4247.0031
4247.0034
4247.003
4247.0033
4247.0028
4247.0033
4247.0027
4247.0033
4247.0025
4247.0033
4247.0023
4247.0034
4247.002
4247.0034
4247.0018
4247.0035
4247.0015
4247.0037
4247.0011
4247.0039
4247.0007
4247.0041
4247.0002
4247.0044
4246.9997
4247.0048
4246.999
4247.0053
4246.9982
4247.0059
4246.9973
4247.0066
4246.9962
4247.0075
4246.9949
4247.0086
4246.9935
4247.0099
4246.9919
4247.0113
4246.9901
4247.013
4246.9882
4247.0147
4246.9861
4247.0166
4246.9839
4247.0187
4246.9815
4247.0202
4246.9797
4247.0228
4246.9769
4247.0242
4246.9752
4247.0263
4246.973
4247.0276
4246.9715
4247.0288
4246.9702
)
;

boundaryField
{
    left
    {
        type            zeroGradient;
    }
    right
    {
        type            zeroGradient;
    }
    walls
    {
        type            zeroGradient;
    }
    centreline
    {
        type            fixedValue;
        value           uniform 4247;
    }
    frontAndBack
    {
        type            zeroGradient;
    }
}


// ************************************************************************* //
