/*--------------------------------*- C++ -*----------------------------------*\
  =========                 |
  \\      /  F ield         | OpenFOAM: The Open Source CFD Toolbox
   \\    /   O peration     | Website:  https://openfoam.org
    \\  /    A nd           | Version:  8
     \\/     M anipulation  |
\*---------------------------------------------------------------------------*/
FoamFile
{
    version     2.0;
    format      ascii;
    class       surfaceScalarField;
    location    "0.8";
    object      phi;
}
// * * * * * * * * * * * * * * * * * * * * * * * * * * * * * * * * * * * * * //

dimensions      [1 0 -1 0 0 0 0];

internalField   nonuniform List<scalar> 
199
(
-5.4898955e-05
-0.00012903969
-0.00018615765
-0.00021748547
-0.0002308172
-0.00023542128
-0.00023674179
-0.00023705157
-0.00023709799
-0.00023708465
-0.00023705907
-0.00023703111
-0.00023700277
-0.00023697451
-0.00023694649
-0.00023691874
-0.00023689118
-0.0002368637
-0.00023683615
-0.00023680837
-0.00023678027
-0.00023675175
-0.0002367228
-0.00023669343
-0.00023666368
-0.00023663359
-0.00023660322
-0.0002365726
-0.00023654173
-0.00023651061
-0.00023647921
-0.00023644748
-0.00023641537
-0.00023638284
-0.00023634985
-0.00023631635
-0.00023628231
-0.00023624771
-0.00023621252
-0.00023617672
-0.00023614027
-0.00023610317
-0.00023606539
-0.00023602692
-0.00023598776
-0.0002359479
-0.00023590736
-0.00023586616
-0.00023582433
-0.00023578189
-0.00023573889
-0.00023569536
-0.00023565135
-0.00023560689
-0.00023556204
-0.00023551685
-0.00023547136
-0.00023542563
-0.00023537971
-0.00023533365
-0.00023528752
-0.00023524137
-0.00023519525
-0.00023514921
-0.00023510331
-0.00023505758
-0.00023501207
-0.00023496679
-0.00023492177
-0.00023487699
-0.00023483247
-0.00023478816
-0.00023474403
-0.00023470003
-0.00023465608
-0.00023461212
-0.00023456806
-0.00023452379
-0.00023447924
-0.00023443429
-0.00023438885
-0.00023434284
-0.00023429616
-0.00023424875
-0.00023420053
-0.00023415147
-0.00023410154
-0.00023405071
-0.00023399899
-0.00023394639
-0.00023389297
-0.00023383878
-0.00023378389
-0.00023372842
-0.00023367246
-0.00023361616
-0.00023355966
-0.00023350312
-0.0002334467
-0.00023339058
-0.00023333491
-0.00023327987
-0.00023322562
-0.00023317229
-0.00023312002
-0.00023306891
-0.00023301903
-0.00023297045
-0.00023292316
-0.00023287717
-0.0002328324
-0.00023278877
-0.00023274613
-0.00023270431
-0.00023266307
-0.00023262218
-0.00023258133
-0.00023254021
-0.00023249851
-0.0002324559
-0.00023241208
-0.00023236678
-0.00023231979
-0.00023227102
-0.00023222041
-0.0002321681
-0.00023211429
-0.00023205938
-0.00023200384
-0.00023194829
-0.0002318934
-0.00023183989
-0.00023178851
-0.00023173983
-0.00023169454
-0.00023165279
-0.00023161515
-0.00023158114
-0.00023155127
-0.00023152434
-0.00023150107
-0.00023147953
-0.0002314611
-0.00023144304
-0.00023142794
-0.00023141194
-0.00023139945
-0.00023138471
-0.00023137481
-0.00023136069
-0.00023135356
-0.00023133894
-0.00023133469
-0.00023131766
-0.00023131663
-0.00023129472
-0.000231298
-0.0002312682
-0.00023127751
-0.00023123529
-0.00023125192
-0.00023118976
-0.00023121389
-0.00023112153
-0.00023115441
-0.00023102368
-0.00023107317
-0.00023090634
-0.0002309898
-0.00023080244
-0.00023093828
-0.00023074679
-0.00023093807
-0.00023074092
-0.0002309722
-0.00023075365
-0.00023100813
-0.00023076645
-0.00023103522
-0.00023079271
-0.00023106352
-0.00023084959
-0.0002311084
-0.00023090886
-0.00023080117
-0.00023164893
-0.00024073863
-0.00023043016
-0.00020917207
-0.00023111148
-0.00025018802
-0.00023172074
-0.00021640715
-0.00023126906
-0.00024123689
-0.00023197786
-0.00022564995
-0.00023161944
-0.00023245784
)
;

boundaryField
{
    left
    {
        type            calculated;
        value           uniform 0;
    }
    right
    {
        type            calculated;
        value           uniform 0;
    }
    walls
    {
        type            calculated;
        value           uniform 0;
    }
    centreline
    {
        type            calculated;
        value           uniform -0.00023217789;
    }
    frontAndBack
    {
        type            calculated;
        value           uniform 0;
    }
}


// ************************************************************************* //
