/*--------------------------------*- C++ -*----------------------------------*\
  =========                 |
  \\      /  F ield         | OpenFOAM: The Open Source CFD Toolbox
   \\    /   O peration     | Website:  https://openfoam.org
    \\  /    A nd           | Version:  8
     \\/     M anipulation  |
\*---------------------------------------------------------------------------*/
FoamFile
{
    version     2.0;
    format      ascii;
    class       volVectorField;
    location    "0.8";
    object      U;
}
// * * * * * * * * * * * * * * * * * * * * * * * * * * * * * * * * * * * * * //

dimensions      [0 1 -1 0 0 0 0];

internalField   nonuniform List<vector> 
200
(
(0 -9.8798406e-05 0)
(0 -0.0006820195 0)
(0 -0.0013517623 0)
(0 -0.0016866683 0)
(0 -0.0018775895 0)
(0 -0.0019238475 0)
(0 -0.0019503072 0)
(0 -0.001949349 0)
(0 -0.0019534659 0)
(0 -0.0019513655 0)
(0 -0.0019524704 0)
(0 -0.0019514264 0)
(0 -0.0019517094 0)
(0 -0.0019511501 0)
(0 -0.0019511265 0)
(0 -0.0019507651 0)
(0 -0.0019506227 0)
(0 -0.0019503421 0)
(0 -0.0019501508 0)
(0 -0.0019499004 0)
(0 -0.001949685 0)
(0 -0.0019494422 0)
(0 -0.0019492117 0)
(0 -0.0019489674 0)
(0 -0.0019487266 0)
(0 -0.0019484785 0)
(0 -0.001948231 0)
(0 -0.0019479794 0)
(0 -0.0019477271 0)
(0 -0.0019474719 0)
(0 -0.0019472151 0)
(0 -0.0019469553 0)
(0 -0.0019466929 0)
(0 -0.0019464271 0)
(0 -0.0019461577 0)
(0 -0.0019458842 0)
(0 -0.0019456064 0)
(0 -0.0019453241 0)
(0 -0.0019450371 0)
(0 -0.0019447451 0)
(0 -0.0019444479 0)
(0 -0.0019441454 0)
(0 -0.0019438373 0)
(0 -0.0019435236 0)
(0 -0.0019432042 0)
(0 -0.001942879 0)
(0 -0.0019425481 0)
(0 -0.0019422117 0)
(0 -0.0019418699 0)
(0 -0.001941523 0)
(0 -0.0019411713 0)
(0 -0.001940815 0)
(0 -0.0019404545 0)
(0 -0.0019400902 0)
(0 -0.0019397224 0)
(0 -0.0019393514 0)
(0 -0.0019389778 0)
(0 -0.0019386019 0)
(0 -0.0019382241 0)
(0 -0.001937845 0)
(0 -0.001937465 0)
(0 -0.0019370845 0)
(0 -0.0019367041 0)
(0 -0.0019363241 0)
(0 -0.001935945 0)
(0 -0.0019355672 0)
(0 -0.001935191 0)
(0 -0.0019348167 0)
(0 -0.0019344445 0)
(0 -0.0019340744 0)
(0 -0.0019337064 0)
(0 -0.0019333404 0)
(0 -0.0019329761 0)
(0 -0.0019326131 0)
(0 -0.001932251 0)
(0 -0.0019318892 0)
(0 -0.0019315268 0)
(0 -0.0019311635 0)
(0 -0.0019307978 0)
(0 -0.0019304301 0)
(0 -0.0019300578 0)
(0 -0.0019296825 0)
(0 -0.0019293003 0)
(0 -0.0019289149 0)
(0 -0.0019285196 0)
(0 -0.0019281227 0)
(0 -0.0019277114 0)
(0 -0.0019273028 0)
(0 -0.001926873 0)
(0 -0.0019264549 0)
(0 -0.0019260034 0)
(0 -0.0019255816 0)
(0 -0.0019251037 0)
(0 -0.0019246887 0)
(0 -0.0019241762 0)
(0 -0.0019237864 0)
(0 -0.0019232233 0)
(0 -0.00192289 0)
(0 -0.0019222462 0)
(0 -0.0019220209 0)
(0 -0.001921241 0)
(0 -0.0019212091 0)
(0 -0.0019201945 0)
(0 -0.0019204971 0)
(0 -0.0019190765 0)
(0 -0.0019199463 0)
(0 -0.001917829 0)
(0 -0.0019196478 0)
(0 -0.0019163506 0)
(0 -0.0019197402 0)
(0 -0.0019144724 0)
(0 -0.0019204354 0)
(0 -0.0019119239 0)
(0 -0.0019220599 0)
(0 -0.0019082832 0)
(0 -0.0019251131 0)
(0 -0.0019029057 0)
(0 -0.0019303516 0)
(0 -0.0018948277 0)
(0 -0.0019389049 0)
(0 -0.0018826356 0)
(0 -0.0019524299 0)
(0 -0.0018642986 0)
(0 -0.0019733069 0)
(0 -0.0018369621 0)
(0 -0.002004875 0)
(0 -0.0017967069 0)
(0 -0.0020516959 0)
(0 -0.0017382887 0)
(0 -0.0021198187 0)
(0 -0.0016548908 0)
(0 -0.0022169984 0)
(0 -0.0015379434 0)
(0 -0.0023528019 0)
(0 -0.0013770806 0)
(0 -0.0025385336 0)
(0 -0.0011602968 0)
(0 -0.0027869457 0)
(0 -0.00087431502 0)
(0 -0.0031117673 0)
(0 -0.00050510432 0)
(0 -0.0035271601 0)
(0 -3.8425562e-05 0)
(0 -0.0040472276 0)
(0 0.00053971983 0)
(0 -0.0046856803 0)
(0 0.0012428273 0)
(0 -0.0054557003 0)
(0 0.0020838474 0)
(0 -0.006370006 0)
(0 0.0030753564 0)
(0 -0.0074410996 0)
(0 0.0042299066 0)
(0 -0.0086816751 0)
(0 0.0055605103 0)
(0 -0.010105154 0)
(0 0.0070812077 0)
(0 -0.011726289 0)
(0 0.0088076688 0)
(0 -0.013561751 0)
(0 0.010757747 0)
(0 -0.015630577 0)
(0 0.012951871 0)
(0 -0.017954394 0)
(0 0.015413122 0)
(0 -0.020557357 0)
(0 0.018166853 0)
(0 -0.023465731 0)
(0 0.021239861 0)
(0 -0.026707056 0)
(0 0.024659287 0)
(0 -0.030308847 0)
(0 0.028451563 0)
(0 -0.03429704 0)
(0 0.032641447 0)
(0 -0.03869469 0)
(0 0.037250784 0)
(0 -0.043521099 0)
(0 0.042296973 0)
(0 -0.048791005 0)
(0 0.047791907 0)
(0 -0.05451362 0)
(0 0.053741602 0)
(0 -0.06069205 0)
(0 0.060146045 0)
(0 -0.067325055 0)
(0 0.06700188 0)
(0 -0.074385354 0)
(0 0.074275991 0)
(0 -0.081874608 0)
(0 0.081969547 0)
(0 -0.08979215 0)
(0 0.090081301 0)
(0 -0.098127573 0)
(0 0.098594836 0)
(0 -0.10680015 0)
(0 0.10742506 0)
(0 -0.11576778 0)
(0 0.11652327 0)
(0 -0.12496321 0)
)
;

boundaryField
{
    left
    {
        type            noSlip;
    }
    right
    {
        type            noSlip;
    }
    walls
    {
        type            noSlip;
    }
    centreline
    {
        type            noSlip;
    }
    frontAndBack
    {
        type            noSlip;
    }
}


// ************************************************************************* //
