/*--------------------------------*- C++ -*----------------------------------*\
  =========                 |
  \\      /  F ield         | OpenFOAM: The Open Source CFD Toolbox
   \\    /   O peration     | Website:  https://openfoam.org
    \\  /    A nd           | Version:  8
     \\/     M anipulation  |
\*---------------------------------------------------------------------------*/
FoamFile
{
    version     2.0;
    format      ascii;
    class       volScalarField;
    location    "0.6";
    object      N;
}
// * * * * * * * * * * * * * * * * * * * * * * * * * * * * * * * * * * * * * //

dimensions      [0 -3 0 0 0 0 0];

internalField   nonuniform List<scalar> 
200
(
20294983
0.10205656
0.10072194
0.10020856
0.10005055
0.10001041
0.10000179
0.10000019
0.099999937
0.099999899
0.099999895
0.099999894
0.099999894
0.099999894
0.099999894
0.099999894
0.099999894
0.099999894
0.099999894
0.099999894
0.099999894
0.099999894
0.099999894
0.099999894
0.099999894
0.099999894
0.099999894
0.099999894
0.099999894
0.099999894
0.099999894
0.099999894
0.099999894
0.099999894
0.099999894
0.099999894
0.099999894
0.099999894
0.099999894
0.099999894
0.099999894
0.099999894
0.099999894
0.099999894
0.099999894
0.099999894
0.099999894
0.099999894
0.099999894
0.099999894
0.099999894
0.099999895
0.099999895
0.099999895
0.099999895
0.099999895
0.099999895
0.099999895
0.099999895
0.099999895
0.099999895
0.099999895
0.099999895
0.099999895
0.099999896
0.099999896
0.099999896
0.099999896
0.099999896
0.099999896
0.099999896
0.099999896
0.099999896
0.099999897
0.099999897
0.099999897
0.099999897
0.099999897
0.099999897
0.099999897
0.099999897
0.099999898
0.099999898
0.099999898
0.099999898
0.099999898
0.099999898
0.099999899
0.099999899
0.099999899
0.099999899
0.099999899
0.099999899
0.0999999
0.0999999
0.0999999
0.0999999
0.099999901
0.099999901
0.099999901
0.099999901
0.099999902
0.099999902
0.099999902
0.099999902
0.099999903
0.099999903
0.099999903
0.099999904
0.099999904
0.099999904
0.099999905
0.099999905
0.099999905
0.099999906
0.099999906
0.099999907
0.099999907
0.099999907
0.099999908
0.099999908
0.099999909
0.099999909
0.099999909
0.09999991
0.09999991
0.099999911
0.099999911
0.099999912
0.099999912
0.099999914
0.099999913
0.099999915
0.099999914
0.099999917
0.099999914
0.099999919
0.099999915
0.099999921
0.099999915
0.099999923
0.099999915
0.099999926
0.099999914
0.09999993
0.099999913
0.099999935
0.099999911
0.09999994
0.099999908
0.099999947
0.099999904
0.099999956
0.099999898
0.099999966
0.099999891
0.099999978
0.099999882
0.099999992
0.09999987
0.10000001
0.099999857
0.10000003
0.099999842
0.10000005
0.099999825
0.10000007
0.099999806
0.10000009
0.099999786
0.10000012
0.099999765
0.10000014
0.099999744
0.10000017
0.099999723
0.1000002
0.099999705
0.10000024
0.099999669
0.10000025
0.099999664
0.10000029
0.099999631
0.1000003
0.099999628
0.10000033
0.099999604
0.10000034
0.099999602
0.10000036
0.09999959
0.10000037
0.099999592
0.10000037
0.099999593
0.10000038
0.099999589
0.10000039
0.099999532
)
;

boundaryField
{
    left
    {
        type            zeroGradient;
    }
    right
    {
        type            zeroGradient;
    }
    walls
    {
        type            zeroGradient;
    }
    centreline
    {
        type            zeroGradient;
    }
    frontAndBack
    {
        type            zeroGradient;
    }
}


// ************************************************************************* //
