/*--------------------------------*- C++ -*----------------------------------*\
  =========                 |
  \\      /  F ield         | OpenFOAM: The Open Source CFD Toolbox
   \\    /   O peration     | Website:  https://openfoam.org
    \\  /    A nd           | Version:  8
     \\/     M anipulation  |
\*---------------------------------------------------------------------------*/
FoamFile
{
    version     2.0;
    format      ascii;
    class       volScalarField;
    location    "0.6";
    object      p;
}
// * * * * * * * * * * * * * * * * * * * * * * * * * * * * * * * * * * * * * //

dimensions      [1 -1 -2 0 0 0 0];

internalField   nonuniform List<scalar> 
200
(
4246.9949
4246.9949
4246.9949
4246.9949
4246.9949
4246.9949
4246.9949
4246.9949
4246.9949
4246.9949
4246.9949
4246.9949
4246.9949
4246.9949
4246.9949
4246.9949
4246.9949
4246.9949
4246.9949
4246.9949
4246.9949
4246.9949
4246.9949
4246.9949
4246.9949
4246.9949
4246.9949
4246.9949
4246.9949
4246.9949
4246.9949
4246.9949
4246.9949
4246.9949
4246.9949
4246.9949
4246.9949
4246.9949
4246.9949
4246.9949
4246.9949
4246.9949
4246.9949
4246.9949
4246.9949
4246.9949
4246.9949
4246.9949
4246.9949
4246.9949
4246.9949
4246.9949
4246.9949
4246.9949
4246.9949
4246.9949
4246.9949
4246.9949
4246.9949
4246.9949
4246.9949
4246.9949
4246.995
4246.995
4246.995
4246.995
4246.995
4246.995
4246.995
4246.995
4246.995
4246.995
4246.995
4246.995
4246.995
4246.995
4246.995
4246.995
4246.995
4246.995
4246.9951
4246.9951
4246.9951
4246.9951
4246.9951
4246.9951
4246.9951
4246.9951
4246.9951
4246.9951
4246.9951
4246.9951
4246.9951
4246.9952
4246.9952
4246.9952
4246.9952
4246.9952
4246.9952
4246.9952
4246.9952
4246.9953
4246.9953
4246.9953
4246.9953
4246.9953
4246.9953
4246.9953
4246.9954
4246.9954
4246.9954
4246.9954
4246.9954
4246.9954
4246.9955
4246.9955
4246.9955
4246.9955
4246.9955
4246.9955
4246.9956
4246.9956
4246.9956
4246.9956
4246.9957
4246.9957
4246.9957
4246.9957
4246.9958
4246.9958
4246.9958
4246.9958
4246.9959
4246.9958
4246.996
4246.9959
4246.9961
4246.9959
4246.9962
4246.9959
4246.9963
4246.9959
4246.9964
4246.9959
4246.9966
4246.9958
4246.9968
4246.9957
4246.9971
4246.9956
4246.9974
4246.9954
4246.9979
4246.9951
4246.9984
4246.9947
4246.999
4246.9943
4246.9996
4246.9937
4247.0004
4246.9931
4247.0013
4246.9923
4247.0023
4246.9915
4247.0034
4246.9906
4247.0046
4246.9896
4247.0058
4246.9886
4247.007
4246.9876
4247.0083
4246.9866
4247.0098
4246.9854
4247.0108
4246.9846
4247.0127
4246.983
4247.0135
4246.9825
4247.0151
4246.9812
4247.0158
4246.9808
4247.0171
4246.9799
4247.0177
4246.9797
4247.0186
4246.9792
4247.0192
4246.979
4247.0196
4246.9788
4247.0204
4246.9781
)
;

boundaryField
{
    left
    {
        type            zeroGradient;
    }
    right
    {
        type            zeroGradient;
    }
    walls
    {
        type            zeroGradient;
    }
    centreline
    {
        type            fixedValue;
        value           uniform 4247;
    }
    frontAndBack
    {
        type            zeroGradient;
    }
}


// ************************************************************************* //
