/*--------------------------------*- C++ -*----------------------------------*\
  =========                 |
  \\      /  F ield         | OpenFOAM: The Open Source CFD Toolbox
   \\    /   O peration     | Website:  https://openfoam.org
    \\  /    A nd           | Version:  8
     \\/     M anipulation  |
\*---------------------------------------------------------------------------*/
FoamFile
{
    version     2.0;
    format      ascii;
    class       surfaceScalarField;
    location    "0.6";
    object      phi;
}
// * * * * * * * * * * * * * * * * * * * * * * * * * * * * * * * * * * * * * //

dimensions      [1 0 -1 0 0 0 0];

internalField   nonuniform List<scalar> 
199
(
-7.9507981e-05
-0.00017397041
-0.00023333543
-0.00025896205
-0.00026725643
-0.00026925178
-0.00026946547
-0.00026926591
-0.00026898421
-0.00026868704
-0.00026838582
-0.00026808211
-0.00026777599
-0.00026746737
-0.0002671562
-0.00026684245
-0.00026652615
-0.0002662073
-0.00026588594
-0.00026556208
-0.00026523571
-0.00026490682
-0.00026457542
-0.00026424148
-0.00026390499
-0.00026356595
-0.00026322436
-0.00026288023
-0.00026253356
-0.00026218438
-0.00026183271
-0.00026147859
-0.00026112203
-0.00026076309
-0.00026040179
-0.00026003818
-0.00025967228
-0.00025930411
-0.00025893372
-0.00025856112
-0.00025818631
-0.00025780932
-0.00025743015
-0.0002570488
-0.00025666524
-0.00025627948
-0.00025589147
-0.0002555012
-0.00025510862
-0.00025471369
-0.00025431635
-0.00025391654
-0.00025351421
-0.00025310927
-0.00025270165
-0.00025229127
-0.00025187806
-0.00025146191
-0.00025104276
-0.00025062051
-0.00025019507
-0.00024976635
-0.00024933427
-0.00024889875
-0.0002484597
-0.00024801705
-0.00024757072
-0.00024712064
-0.00024666674
-0.00024620898
-0.00024574729
-0.00024528163
-0.00024481197
-0.00024433827
-0.00024386052
-0.0002433787
-0.00024289282
-0.00024240288
-0.00024190891
-0.00024141094
-0.00024090901
-0.00024040318
-0.00023989352
-0.00023938009
-0.00023886296
-0.00023834224
-0.00023781798
-0.00023729028
-0.00023675921
-0.00023622483
-0.00023568719
-0.00023514633
-0.00023460227
-0.00023405502
-0.00023350455
-0.00023295084
-0.00023239383
-0.00023183348
-0.00023126971
-0.00023070247
-0.00023013168
-0.00022955729
-0.00022897926
-0.00022839754
-0.00022781213
-0.00022722301
-0.0002266302
-0.00022603371
-0.00022543358
-0.00022482985
-0.00022422255
-0.0002236117
-0.00022299737
-0.00022237954
-0.00022175826
-0.00022113353
-0.00022050535
-0.0002198737
-0.00021923861
-0.00021860001
-0.00021795795
-0.00021731235
-0.00021666325
-0.00021601055
-0.00021535434
-0.00021469446
-0.00021403104
-0.00021336388
-0.00021269314
-0.0002120186
-0.00021134046
-0.00021065851
-0.00020997293
-0.00020928372
-0.00020859086
-0.0002078948
-0.00020719513
-0.00020649307
-0.00020578756
-0.00020508086
-0.00020437111
-0.00020366167
-0.00020295004
-0.00020224031
-0.00020152986
-0.00020082283
-0.0002001171
-0.00019941627
-0.00019871846
-0.0001980275
-0.00019733902
-0.00019666096
-0.00019597964
-0.00019531617
-0.00019463558
-0.00019398766
-0.00019329887
-0.00019266956
-0.0001919645
-0.00019136251
-0.00019063571
-0.00019007598
-0.00018932191
-0.00018881964
-0.00018802724
-0.00018758686
-0.00018673962
-0.00018635336
-0.00018544184
-0.00018511934
-0.00018414519
-0.0001839504
-0.00018291394
-0.00018286648
-0.00018140531
-0.00018230624
-0.00018716803
-0.00018001027
-0.00016107896
-0.00017969816
-0.00019555123
-0.00017890655
-0.00016202047
-0.00017765954
-0.00018975527
-0.00017710641
-0.00016406091
-0.00017600768
-0.00018345802
-0.00017527116
-0.00016577499
-0.00017404775
-0.00017716517
-0.00017367904
-0.00017622201
-0.00017224774
-0.00016680208
-0.00017153736
-0.00017480788
)
;

boundaryField
{
    left
    {
        type            calculated;
        value           uniform 0;
    }
    right
    {
        type            calculated;
        value           uniform 0;
    }
    walls
    {
        type            calculated;
        value           uniform 0;
    }
    centreline
    {
        type            calculated;
        value           uniform -0.00017103475;
    }
    frontAndBack
    {
        type            calculated;
        value           uniform 0;
    }
}


// ************************************************************************* //
