/*--------------------------------*- C++ -*----------------------------------*\
  =========                 |
  \\      /  F ield         | OpenFOAM: The Open Source CFD Toolbox
   \\    /   O peration     | Website:  https://openfoam.org
    \\  /    A nd           | Version:  8
     \\/     M anipulation  |
\*---------------------------------------------------------------------------*/
FoamFile
{
    version     2.0;
    format      ascii;
    class       volVectorField;
    location    "0.6";
    object      U;
}
// * * * * * * * * * * * * * * * * * * * * * * * * * * * * * * * * * * * * * //

dimensions      [0 1 -1 0 0 0 0];

internalField   nonuniform List<vector> 
200
(
(0 -0.00016781455 0)
(0 -0.00098602652 0)
(0 -0.0017766362 0)
(0 -0.0020527699 0)
(0 -0.0021979462 0)
(0 -0.0022068636 0)
(0 -0.0022239881 0)
(0 -0.0022151776 0)
(0 -0.0022177926 0)
(0 -0.0022123404 0)
(0 -0.002211775 0)
(0 -0.002208082 0)
(0 -0.0022063329 0)
(0 -0.002203318 0)
(0 -0.0022010752 0)
(0 -0.0021983049 0)
(0 -0.0021958381 0)
(0 -0.0021931416 0)
(0 -0.002190559 0)
(0 -0.0021878686 0)
(0 -0.0021852143 0)
(0 -0.0021825023 0)
(0 -0.0021797938 0)
(0 -0.0021770485 0)
(0 -0.0021742928 0)
(0 -0.0021715091 0)
(0 -0.002168709 0)
(0 -0.0021658848 0)
(0 -0.0021630416 0)
(0 -0.0021601764 0)
(0 -0.0021572914 0)
(0 -0.0021543854 0)
(0 -0.0021514597 0)
(0 -0.0021485138 0)
(0 -0.0021455486 0)
(0 -0.0021425641 0)
(0 -0.0021395606 0)
(0 -0.0021365383 0)
(0 -0.0021334975 0)
(0 -0.0021304384 0)
(0 -0.0021273612 0)
(0 -0.0021242659 0)
(0 -0.0021211526 0)
(0 -0.0021180213 0)
(0 -0.0021148719 0)
(0 -0.0021117044 0)
(0 -0.0021085187 0)
(0 -0.0021053143 0)
(0 -0.0021020912 0)
(0 -0.0020988489 0)
(0 -0.002095587 0)
(0 -0.0020923051 0)
(0 -0.0020890027 0)
(0 -0.0020856792 0)
(0 -0.002082334 0)
(0 -0.0020789664 0)
(0 -0.0020755759 0)
(0 -0.0020721617 0)
(0 -0.0020687231 0)
(0 -0.0020652594 0)
(0 -0.0020617699 0)
(0 -0.0020582539 0)
(0 -0.0020547105 0)
(0 -0.0020511392 0)
(0 -0.0020475393 0)
(0 -0.00204391 0)
(0 -0.0020402508 0)
(0 -0.002036561 0)
(0 -0.0020328401 0)
(0 -0.0020290876 0)
(0 -0.002025303 0)
(0 -0.0020214859 0)
(0 -0.0020176359 0)
(0 -0.0020137528 0)
(0 -0.0020098364 0)
(0 -0.0020058864 0)
(0 -0.0020019029 0)
(0 -0.0019978859 0)
(0 -0.0019938355 0)
(0 -0.001989752 0)
(0 -0.0019856355 0)
(0 -0.0019814867 0)
(0 -0.0019773057 0)
(0 -0.0019730935 0)
(0 -0.0019688502 0)
(0 -0.0019645772 0)
(0 -0.0019602741 0)
(0 -0.0019559431 0)
(0 -0.0019515827 0)
(0 -0.0019471966 0)
(0 -0.0019427808 0)
(0 -0.0019383424 0)
(0 -0.0019338715 0)
(0 -0.0019293833 0)
(0 -0.0019248558 0)
(0 -0.0019203207 0)
(0 -0.0019157314 0)
(0 -0.0019111544 0)
(0 -0.0019064929 0)
(0 -0.0019018846 0)
(0 -0.0018971313 0)
(0 -0.0018925137 0)
(0 -0.0018876326 0)
(0 -0.001883051 0)
(0 -0.0018779758 0)
(0 -0.0018735187 0)
(0 -0.0018681266 0)
(0 -0.0018639605 0)
(0 -0.0018580257 0)
(0 -0.0018544571 0)
(0 -0.0018475695 0)
(0 -0.0018451507 0)
(0 -0.0018365757 0)
(0 -0.0018362853 0)
(0 -0.0018247313 0)
(0 -0.0018282711 0)
(0 -0.0018115106 0)
(0 -0.0018217859 0)
(0 -0.0017960485 0)
(0 -0.0018179293 0)
(0 -0.0017769543 0)
(0 -0.0018184479 0)
(0 -0.001752045 0)
(0 -0.0018260473 0)
(0 -0.0017179872 0)
(0 -0.001844793 0)
(0 -0.0016698641 0)
(0 -0.0018805595 0)
(0 -0.0016007364 0)
(0 -0.0019414226 0)
(0 -0.0015013389 0)
(0 -0.0020378333 0)
(0 -0.0013600755 0)
(0 -0.0021824376 0)
(0 -0.0011633793 0)
(0 -0.0023895793 0)
(0 -0.00089629171 0)
(0 -0.0026747293 0)
(0 -0.00054295065 0)
(0 -0.00305416 0)
(0 -8.6717376e-05 0)
(0 -0.0035450397 0)
(0 0.00049011458 0)
(0 -0.0041658762 0)
(0 0.0012068377 0)
(0 -0.0049370209 0)
(0 0.0020847239 0)
(0 -0.0058808565 0)
(0 0.003146945 0)
(0 -0.0070213879 0)
(0 0.0044178586 0)
(0 -0.0083832063 0)
(0 0.0059217809 0)
(0 -0.0099900756 0)
(0 0.0076815654 0)
(0 -0.01186353 0)
(0 0.009717324 0)
(0 -0.01402181 0)
(0 0.012045499 0)
(0 -0.016479253 0)
(0 0.014678348 0)
(0 -0.019246052 0)
(0 0.017623813 0)
(0 -0.022328228 0)
(0 0.02088576 0)
(0 -0.025727806 0)
(0 0.024464544 0)
(0 -0.029443358 0)
(0 0.028357708 0)
(0 -0.033470901 0)
(0 0.032560133 0)
(0 -0.037804236 0)
(0 0.037063272 0)
(0 -0.042434046 0)
(0 0.041855496 0)
(0 -0.047350392 0)
(0 0.046928417 0)
(0 -0.052531832 0)
(0 0.052266229 0)
(0 -0.057946504 0)
(0 0.057832769 0)
(0 -0.063639326 0)
(0 0.063663197 0)
(0 -0.069608477 0)
(0 0.069755981 0)
(0 -0.075787297 0)
(0 0.076046507 0)
(0 -0.082174427 0)
(0 0.082534329 0)
(0 -0.088715259 0)
(0 0.089166929 0)
(0 -0.095401779 0)
(0 0.095933571 0)
(0 -0.10219173 0)
(0 0.1027972 0)
(0 -0.10910732 0)
(0 0.10977862 0)
(0 -0.11616522 0)
(0 0.11690823 0)
(0 -0.12336662 0)
)
;

boundaryField
{
    left
    {
        type            noSlip;
    }
    right
    {
        type            noSlip;
    }
    walls
    {
        type            noSlip;
    }
    centreline
    {
        type            noSlip;
    }
    frontAndBack
    {
        type            noSlip;
    }
}


// ************************************************************************* //
