/*--------------------------------*- C++ -*----------------------------------*\
  =========                 |
  \\      /  F ield         | OpenFOAM: The Open Source CFD Toolbox
   \\    /   O peration     | Website:  https://openfoam.org
    \\  /    A nd           | Version:  8
     \\/     M anipulation  |
\*---------------------------------------------------------------------------*/
FoamFile
{
    version     2.0;
    format      ascii;
    class       volScalarField;
    location    "0.8";
    object      N;
}
// * * * * * * * * * * * * * * * * * * * * * * * * * * * * * * * * * * * * * //

dimensions      [0 -3 0 0 0 0 0];

internalField   nonuniform List<scalar> 
800
(
1544437.1
1542976.7
1543729.8
1543653.9
1543706.3
1543694.8
1543701.9
1543699.5
1543700.2
1543699.9
1543699.9
1543700.2
1543699.5
1543701.9
1543694.8
1543706.3
1543653.9
1543729.8
1542976.7
1544437.1
335.37766
220.94524
276.9408
267.96767
273.49873
272.02854
273.41282
273.74254
274.64735
274.89882
274.89882
274.64735
273.74254
273.41282
272.02854
273.49873
267.96767
276.9408
220.94524
335.37765
0.16912772
0.13772002
0.1519375
0.14926706
0.15098233
0.15055001
0.15097161
0.15102087
0.15126586
0.15132508
0.15132508
0.15126586
0.15102087
0.15097161
0.15055001
0.15098233
0.14926706
0.1519375
0.13772002
0.16912772
0.099988013
0.099980573
0.099983709
0.099983049
0.099983499
0.099983405
0.099983514
0.099983515
0.099983562
0.099983569
0.099983569
0.099983562
0.099983515
0.099983514
0.099983405
0.099983499
0.099983049
0.099983709
0.099980573
0.099988013
0.10000662
0.10000669
0.10000665
0.10000668
0.10000666
0.10000669
0.10000669
0.10000669
0.10000667
0.10000666
0.10000666
0.10000667
0.10000669
0.10000669
0.10000669
0.10000666
0.10000668
0.10000665
0.10000669
0.10000662
0.099950279
0.099950259
0.099950327
0.09995024
0.099950286
0.099950273
0.099950293
0.099950302
0.099950293
0.099950284
0.099950284
0.099950293
0.099950302
0.099950293
0.099950273
0.099950286
0.09995024
0.099950327
0.099950259
0.099950279
0.10002862
0.10002867
0.10002866
0.1000287
0.1000287
0.10002869
0.10002869
0.10002869
0.1000287
0.1000287
0.1000287
0.1000287
0.10002869
0.10002869
0.10002869
0.1000287
0.1000287
0.10002866
0.10002867
0.10002862
0.099926635
0.099926626
0.09992668
0.099926618
0.099926668
0.099926647
0.099926671
0.099926671
0.099926682
0.099926687
0.099926687
0.099926682
0.099926671
0.099926671
0.099926647
0.099926668
0.099926618
0.09992668
0.099926626
0.099926635
0.10008447
0.10008455
0.10008447
0.10008453
0.10008447
0.10008449
0.10008447
0.10008448
0.10008448
0.10008448
0.10008448
0.10008448
0.10008448
0.10008447
0.10008449
0.10008447
0.10008453
0.10008447
0.10008455
0.10008447
0.099856417
0.099856436
0.099856482
0.099856457
0.099856487
0.099856462
0.099856474
0.099856451
0.099856459
0.099856451
0.099856451
0.099856459
0.099856451
0.099856474
0.099856462
0.099856487
0.099856457
0.099856482
0.099856436
0.099856417
1540053.8
1538387
1539224.3
1539140.9
1539198.9
1539186.2
1539194.7
1539192
1539192.9
1539192.5
1539192.5
1539192.9
1539192
1539194.7
1539186.2
1539198.9
1539140.9
1539224.3
1538387
1540053.8
89.163765
34.65047
60.680296
56.042161
58.740449
57.954224
58.68176
59.013712
59.619842
59.834975
59.834975
59.619843
59.013713
58.681761
57.954227
58.740451
56.042164
60.680299
34.650469
89.163756
0.11311875
0.10377985
0.1078777
0.10706056
0.10756199
0.10743235
0.10756554
0.10762353
0.10773517
0.10777789
0.10777789
0.10773517
0.10762353
0.10756554
0.10743235
0.10756199
0.10706056
0.1078777
0.10377985
0.11311875
0.099976494
0.099974818
0.099975491
0.09997534
0.099975447
0.099975442
0.09997547
0.099975479
0.099975491
0.099975495
0.099975495
0.099975491
0.099975479
0.09997547
0.099975442
0.099975447
0.09997534
0.099975491
0.099974818
0.099976494
0.10000669
0.10000676
0.10000672
0.10000675
0.10000673
0.10000677
0.10000676
0.10000676
0.10000675
0.10000673
0.10000673
0.10000675
0.10000676
0.10000676
0.10000677
0.10000673
0.10000675
0.10000672
0.10000676
0.10000669
0.09995033
0.099950307
0.099950375
0.099950285
0.099950333
0.09995032
0.099950341
0.09995035
0.099950341
0.099950332
0.099950332
0.099950341
0.09995035
0.099950341
0.09995032
0.099950333
0.099950285
0.099950375
0.099950307
0.09995033
0.10002871
0.10002877
0.10002876
0.10002879
0.1000288
0.10002878
0.10002879
0.10002878
0.10002879
0.10002879
0.10002879
0.10002879
0.10002878
0.10002879
0.10002878
0.1000288
0.10002879
0.10002876
0.10002877
0.10002871
0.099926721
0.09992671
0.099926768
0.09992671
0.099926757
0.099926733
0.099926759
0.099926759
0.09992677
0.099926774
0.099926774
0.09992677
0.099926759
0.099926759
0.099926733
0.099926757
0.09992671
0.099926768
0.09992671
0.099926721
0.10008463
0.10008471
0.10008463
0.10008469
0.10008463
0.10008466
0.10008464
0.10008464
0.10008464
0.10008464
0.10008464
0.10008464
0.10008464
0.10008464
0.10008466
0.10008463
0.10008469
0.10008463
0.10008471
0.10008463
0.099856641
0.099856663
0.099856709
0.099856683
0.099856714
0.099856689
0.099856701
0.099856678
0.099856685
0.099856678
0.099856678
0.099856685
0.099856678
0.099856701
0.099856689
0.099856714
0.099856683
0.099856709
0.099856663
0.099856641
1540053.8
1538387
1539224.3
1539140.9
1539198.9
1539186.2
1539194.7
1539192
1539192.9
1539192.5
1539192.5
1539192.9
1539192
1539194.7
1539186.2
1539198.9
1539140.9
1539224.3
1538387
1540053.8
89.163757
34.650464
60.680289
56.042153
58.740441
57.954217
58.681752
59.013704
59.619835
59.834967
59.834968
59.619835
59.013705
58.681754
57.954219
58.740443
56.042156
60.680291
34.650465
89.163754
0.11311875
0.10377985
0.1078777
0.10706056
0.10756199
0.10743235
0.10756553
0.10762353
0.10773516
0.10777789
0.10777789
0.10773516
0.10762353
0.10756554
0.10743235
0.10756199
0.10706056
0.1078777
0.10377985
0.11311875
0.099976494
0.099974818
0.099975491
0.09997534
0.099975447
0.099975442
0.09997547
0.099975479
0.099975491
0.099975495
0.099975495
0.099975491
0.099975479
0.09997547
0.099975442
0.099975447
0.09997534
0.099975491
0.099974818
0.099976494
0.10000669
0.10000676
0.10000672
0.10000675
0.10000673
0.10000677
0.10000676
0.10000676
0.10000675
0.10000673
0.10000673
0.10000675
0.10000676
0.10000676
0.10000677
0.10000673
0.10000675
0.10000672
0.10000676
0.10000669
0.09995033
0.099950307
0.099950375
0.099950285
0.099950333
0.09995032
0.099950341
0.09995035
0.099950341
0.099950332
0.099950332
0.099950341
0.09995035
0.099950341
0.09995032
0.099950333
0.099950285
0.099950375
0.099950307
0.09995033
0.10002871
0.10002877
0.10002876
0.10002879
0.1000288
0.10002878
0.10002879
0.10002878
0.10002879
0.10002879
0.10002879
0.10002879
0.10002878
0.10002879
0.10002878
0.1000288
0.10002879
0.10002876
0.10002877
0.10002871
0.099926721
0.09992671
0.099926768
0.09992671
0.099926757
0.099926733
0.099926759
0.099926759
0.09992677
0.099926774
0.099926774
0.09992677
0.099926759
0.099926759
0.099926733
0.099926757
0.09992671
0.099926768
0.09992671
0.099926721
0.10008463
0.10008471
0.10008463
0.10008469
0.10008463
0.10008466
0.10008464
0.10008464
0.10008464
0.10008464
0.10008464
0.10008464
0.10008464
0.10008464
0.10008466
0.10008463
0.10008469
0.10008463
0.10008471
0.10008463
0.099856641
0.099856663
0.099856709
0.099856683
0.099856714
0.099856689
0.099856701
0.099856678
0.099856685
0.099856678
0.099856678
0.099856685
0.099856678
0.099856701
0.099856689
0.099856714
0.099856683
0.099856709
0.099856663
0.099856641
1544437.1
1542976.7
1543729.8
1543653.9
1543706.3
1543694.8
1543701.9
1543699.5
1543700.2
1543699.9
1543699.9
1543700.2
1543699.5
1543701.9
1543694.8
1543706.3
1543653.9
1543729.8
1542976.7
1544437.1
335.37763
220.94522
276.94077
267.96764
273.49871
272.02851
273.41279
273.74252
274.64733
274.8988
274.8988
274.64733
273.74252
273.41279
272.02851
273.49871
267.96764
276.94077
220.94522
335.37764
0.16912771
0.13772001
0.1519375
0.14926705
0.15098233
0.15055
0.1509716
0.15102086
0.15126586
0.15132508
0.15132508
0.15126586
0.15102086
0.15097161
0.15055
0.15098233
0.14926705
0.1519375
0.13772001
0.16912772
0.099988013
0.099980573
0.099983709
0.099983049
0.099983499
0.099983405
0.099983514
0.099983515
0.099983562
0.099983569
0.099983569
0.099983562
0.099983515
0.099983514
0.099983405
0.099983499
0.099983049
0.099983709
0.099980573
0.099988013
0.10000662
0.10000669
0.10000665
0.10000668
0.10000666
0.10000669
0.10000669
0.10000669
0.10000667
0.10000666
0.10000666
0.10000667
0.10000669
0.10000669
0.10000669
0.10000666
0.10000668
0.10000665
0.10000669
0.10000662
0.099950279
0.099950259
0.099950327
0.09995024
0.099950286
0.099950273
0.099950293
0.099950302
0.099950293
0.099950284
0.099950284
0.099950293
0.099950302
0.099950293
0.099950273
0.099950286
0.09995024
0.099950327
0.099950259
0.099950279
0.10002862
0.10002867
0.10002866
0.1000287
0.1000287
0.10002869
0.10002869
0.10002869
0.1000287
0.1000287
0.1000287
0.1000287
0.10002869
0.10002869
0.10002869
0.1000287
0.1000287
0.10002866
0.10002867
0.10002862
0.099926635
0.099926626
0.09992668
0.099926618
0.099926668
0.099926647
0.099926671
0.099926671
0.099926682
0.099926687
0.099926687
0.099926682
0.099926671
0.099926671
0.099926647
0.099926668
0.099926618
0.09992668
0.099926626
0.099926635
0.10008447
0.10008455
0.10008447
0.10008453
0.10008447
0.10008449
0.10008447
0.10008448
0.10008448
0.10008448
0.10008448
0.10008448
0.10008448
0.10008447
0.10008449
0.10008447
0.10008453
0.10008447
0.10008455
0.10008447
0.099856417
0.099856436
0.099856482
0.099856457
0.099856487
0.099856462
0.099856474
0.099856451
0.099856459
0.099856451
0.099856451
0.099856459
0.099856451
0.099856474
0.099856462
0.099856487
0.099856457
0.099856482
0.099856436
0.099856417
)
;

boundaryField
{
    left
    {
        type            zeroGradient;
    }
    right
    {
        type            zeroGradient;
    }
    walls
    {
        type            zeroGradient;
    }
    centreline
    {
        type            zeroGradient;
    }
    frontAndBack
    {
        type            zeroGradient;
    }
}


// ************************************************************************* //
