/*--------------------------------*- C++ -*----------------------------------*\
  =========                 |
  \\      /  F ield         | OpenFOAM: The Open Source CFD Toolbox
   \\    /   O peration     | Website:  https://openfoam.org
    \\  /    A nd           | Version:  8
     \\/     M anipulation  |
\*---------------------------------------------------------------------------*/
FoamFile
{
    version     2.0;
    format      ascii;
    class       volScalarField;
    location    "0.8";
    object      p;
}
// * * * * * * * * * * * * * * * * * * * * * * * * * * * * * * * * * * * * * //

dimensions      [1 -1 -2 0 0 0 0];

internalField   nonuniform List<scalar> 
800
(
4246.3688
4246.3696
4246.3685
4246.3696
4246.369
4246.3681
4246.367
4246.3671
4246.3675
4246.3683
4246.3683
4246.3675
4246.3671
4246.367
4246.3681
4246.369
4246.3696
4246.3685
4246.3696
4246.3688
4245.9984
4245.9942
4245.9974
4245.9967
4245.9962
4245.9953
4245.9948
4245.9951
4245.9954
4245.996
4245.996
4245.9954
4245.9951
4245.9948
4245.9953
4245.9962
4245.9967
4245.9974
4245.9942
4245.9984
4246.7039
4246.7075
4246.7064
4246.7068
4246.7061
4246.7062
4246.7057
4246.7058
4246.7058
4246.7061
4246.7061
4246.7058
4246.7058
4246.7057
4246.7062
4246.7061
4246.7068
4246.7064
4246.7075
4246.7039
4245.7306
4245.7251
4245.7263
4245.7252
4245.7262
4245.727
4245.7272
4245.7273
4245.7269
4245.7268
4245.7268
4245.7269
4245.7273
4245.7272
4245.727
4245.7262
4245.7252
4245.7263
4245.7251
4245.7306
4247.2716
4247.2747
4247.2726
4247.2741
4247.2731
4247.2748
4247.2747
4247.2746
4247.2739
4247.2732
4247.2732
4247.2739
4247.2746
4247.2747
4247.2748
4247.2731
4247.2741
4247.2726
4247.2747
4247.2716
4244.528
4244.5261
4244.5294
4244.5253
4244.5275
4244.5269
4244.5278
4244.5283
4244.5278
4244.5274
4244.5274
4244.5278
4244.5283
4244.5278
4244.5269
4244.5275
4244.5253
4244.5294
4244.5261
4244.528
4248.3034
4248.3049
4248.3046
4248.3061
4248.3066
4248.3058
4248.3061
4248.3057
4248.3061
4248.3063
4248.3063
4248.3061
4248.3057
4248.3061
4248.3058
4248.3066
4248.3061
4248.3046
4248.3049
4248.3034
4243.289
4243.2871
4243.2895
4243.2866
4243.289
4243.288
4243.2892
4243.2891
4243.2897
4243.2899
4243.2899
4243.2897
4243.2891
4243.2892
4243.288
4243.289
4243.2866
4243.2895
4243.2871
4243.289
4250.8499
4250.8511
4250.8479
4250.8505
4250.8477
4250.8488
4250.848
4250.8482
4250.8481
4250.8482
4250.8482
4250.8481
4250.8482
4250.848
4250.8488
4250.8477
4250.8505
4250.8479
4250.8511
4250.8499
4239.8254
4239.823
4239.8255
4239.8241
4239.8257
4239.8244
4239.825
4239.8239
4239.8243
4239.8239
4239.8239
4239.8243
4239.8239
4239.825
4239.8244
4239.8257
4239.8241
4239.8255
4239.823
4239.8254
4246.3613
4246.3577
4246.3578
4246.3594
4246.3588
4246.3578
4246.3568
4246.3569
4246.3573
4246.358
4246.358
4246.3573
4246.3569
4246.3568
4246.3578
4246.3588
4246.3594
4246.3578
4246.3577
4246.3613
4246.0048
4246.0012
4246.0047
4246.0037
4246.0033
4246.0024
4246.0019
4246.0022
4246.0025
4246.0031
4246.0031
4246.0025
4246.0022
4246.0019
4246.0024
4246.0033
4246.0037
4246.0047
4246.0012
4246.0048
4246.7036
4246.7099
4246.708
4246.7079
4246.7073
4246.7074
4246.707
4246.707
4246.7071
4246.7073
4246.7073
4246.7071
4246.707
4246.707
4246.7074
4246.7073
4246.7079
4246.708
4246.7099
4246.7036
4245.7293
4245.7227
4245.7243
4245.7233
4245.7242
4245.725
4245.7253
4245.7253
4245.725
4245.7248
4245.7248
4245.725
4245.7253
4245.7253
4245.725
4245.7242
4245.7233
4245.7243
4245.7227
4245.7293
4247.273
4247.2758
4247.2738
4247.2755
4247.2745
4247.2761
4247.2761
4247.276
4247.2752
4247.2746
4247.2746
4247.2752
4247.276
4247.2761
4247.2761
4247.2745
4247.2755
4247.2738
4247.2758
4247.273
4244.5273
4244.5253
4244.5286
4244.5243
4244.5267
4244.526
4244.527
4244.5274
4244.527
4244.5266
4244.5266
4244.527
4244.5274
4244.527
4244.526
4244.5267
4244.5243
4244.5286
4244.5253
4244.5273
4248.304
4248.3055
4248.3053
4248.3068
4248.3072
4248.3064
4248.3067
4248.3063
4248.3068
4248.3069
4248.3069
4248.3068
4248.3063
4248.3067
4248.3064
4248.3072
4248.3068
4248.3053
4248.3055
4248.304
4243.2869
4243.2848
4243.2875
4243.2847
4243.2869
4243.2858
4243.287
4243.287
4243.2876
4243.2878
4243.2878
4243.2876
4243.287
4243.287
4243.2858
4243.2869
4243.2847
4243.2875
4243.2848
4243.2869
4250.8506
4250.8519
4250.8485
4250.851
4250.8482
4250.8494
4250.8486
4250.8489
4250.8488
4250.8488
4250.8488
4250.8488
4250.8489
4250.8486
4250.8494
4250.8482
4250.851
4250.8485
4250.8519
4250.8506
4239.8239
4239.8215
4239.8239
4239.8225
4239.8241
4239.8228
4239.8235
4239.8223
4239.8227
4239.8224
4239.8224
4239.8227
4239.8223
4239.8235
4239.8228
4239.8241
4239.8225
4239.8239
4239.8215
4239.8239
4246.3613
4246.3577
4246.3578
4246.3594
4246.3588
4246.3578
4246.3568
4246.3569
4246.3573
4246.358
4246.358
4246.3573
4246.3569
4246.3568
4246.3578
4246.3588
4246.3594
4246.3578
4246.3577
4246.3613
4246.0048
4246.0012
4246.0047
4246.0037
4246.0033
4246.0024
4246.0019
4246.0022
4246.0025
4246.0031
4246.0031
4246.0025
4246.0022
4246.0019
4246.0024
4246.0033
4246.0037
4246.0047
4246.0012
4246.0048
4246.7036
4246.7099
4246.708
4246.7079
4246.7073
4246.7074
4246.707
4246.707
4246.7071
4246.7073
4246.7073
4246.7071
4246.707
4246.707
4246.7074
4246.7073
4246.7079
4246.708
4246.7099
4246.7036
4245.7293
4245.7227
4245.7243
4245.7233
4245.7242
4245.725
4245.7253
4245.7253
4245.725
4245.7248
4245.7248
4245.725
4245.7253
4245.7253
4245.725
4245.7242
4245.7233
4245.7243
4245.7227
4245.7293
4247.273
4247.2758
4247.2738
4247.2755
4247.2745
4247.2761
4247.2761
4247.276
4247.2752
4247.2746
4247.2746
4247.2752
4247.276
4247.2761
4247.2761
4247.2745
4247.2755
4247.2738
4247.2758
4247.273
4244.5273
4244.5253
4244.5286
4244.5243
4244.5267
4244.526
4244.527
4244.5274
4244.527
4244.5266
4244.5266
4244.527
4244.5274
4244.527
4244.526
4244.5267
4244.5243
4244.5286
4244.5253
4244.5273
4248.304
4248.3055
4248.3053
4248.3068
4248.3072
4248.3064
4248.3067
4248.3063
4248.3068
4248.3069
4248.3069
4248.3068
4248.3063
4248.3067
4248.3064
4248.3072
4248.3068
4248.3053
4248.3055
4248.304
4243.2869
4243.2848
4243.2875
4243.2847
4243.2869
4243.2858
4243.287
4243.287
4243.2876
4243.2878
4243.2878
4243.2876
4243.287
4243.287
4243.2858
4243.2869
4243.2847
4243.2875
4243.2848
4243.2869
4250.8506
4250.8519
4250.8485
4250.851
4250.8482
4250.8494
4250.8486
4250.8489
4250.8488
4250.8488
4250.8488
4250.8488
4250.8489
4250.8486
4250.8494
4250.8482
4250.851
4250.8485
4250.8519
4250.8506
4239.8239
4239.8215
4239.8239
4239.8225
4239.8241
4239.8228
4239.8235
4239.8223
4239.8227
4239.8224
4239.8224
4239.8227
4239.8223
4239.8235
4239.8228
4239.8241
4239.8225
4239.8239
4239.8215
4239.8239
4246.3688
4246.3696
4246.3685
4246.3696
4246.369
4246.3681
4246.367
4246.3671
4246.3675
4246.3683
4246.3683
4246.3675
4246.3671
4246.367
4246.3681
4246.369
4246.3696
4246.3685
4246.3696
4246.3688
4245.9984
4245.9942
4245.9974
4245.9967
4245.9962
4245.9953
4245.9948
4245.9951
4245.9954
4245.996
4245.996
4245.9954
4245.9951
4245.9948
4245.9953
4245.9962
4245.9967
4245.9974
4245.9942
4245.9984
4246.7039
4246.7075
4246.7064
4246.7068
4246.7061
4246.7062
4246.7057
4246.7058
4246.7058
4246.7061
4246.7061
4246.7058
4246.7058
4246.7057
4246.7062
4246.7061
4246.7068
4246.7064
4246.7075
4246.7039
4245.7306
4245.7251
4245.7263
4245.7252
4245.7262
4245.727
4245.7272
4245.7273
4245.7269
4245.7268
4245.7268
4245.7269
4245.7273
4245.7272
4245.727
4245.7262
4245.7252
4245.7263
4245.7251
4245.7306
4247.2716
4247.2747
4247.2726
4247.2741
4247.2731
4247.2748
4247.2747
4247.2746
4247.2739
4247.2732
4247.2732
4247.2739
4247.2746
4247.2747
4247.2748
4247.2731
4247.2741
4247.2726
4247.2747
4247.2716
4244.528
4244.5261
4244.5294
4244.5253
4244.5275
4244.5269
4244.5278
4244.5283
4244.5278
4244.5274
4244.5274
4244.5278
4244.5283
4244.5278
4244.5269
4244.5275
4244.5253
4244.5294
4244.5261
4244.528
4248.3034
4248.3049
4248.3046
4248.3061
4248.3066
4248.3058
4248.3061
4248.3057
4248.3061
4248.3063
4248.3063
4248.3061
4248.3057
4248.3061
4248.3058
4248.3066
4248.3061
4248.3046
4248.3049
4248.3034
4243.289
4243.2871
4243.2895
4243.2866
4243.289
4243.288
4243.2892
4243.2891
4243.2897
4243.2899
4243.2899
4243.2897
4243.2891
4243.2892
4243.288
4243.289
4243.2866
4243.2895
4243.2871
4243.289
4250.8499
4250.8511
4250.8479
4250.8505
4250.8477
4250.8488
4250.848
4250.8482
4250.8481
4250.8482
4250.8482
4250.8481
4250.8482
4250.848
4250.8488
4250.8477
4250.8505
4250.8479
4250.8511
4250.8499
4239.8254
4239.823
4239.8255
4239.8241
4239.8257
4239.8244
4239.825
4239.8239
4239.8243
4239.8239
4239.8239
4239.8243
4239.8239
4239.825
4239.8244
4239.8257
4239.8241
4239.8255
4239.823
4239.8254
)
;

boundaryField
{
    left
    {
        type            zeroGradient;
    }
    right
    {
        type            zeroGradient;
    }
    walls
    {
        type            zeroGradient;
    }
    centreline
    {
        type            fixedValue;
        value           uniform 4247;
    }
    frontAndBack
    {
        type            zeroGradient;
    }
}


// ************************************************************************* //
