/*--------------------------------*- C++ -*----------------------------------*\
  =========                 |
  \\      /  F ield         | OpenFOAM: The Open Source CFD Toolbox
   \\    /   O peration     | Website:  https://openfoam.org
    \\  /    A nd           | Version:  8
     \\/     M anipulation  |
\*---------------------------------------------------------------------------*/
FoamFile
{
    version     2.0;
    format      ascii;
    class       surfaceScalarField;
    location    "0.8";
    object      phi;
}
// * * * * * * * * * * * * * * * * * * * * * * * * * * * * * * * * * * * * * //

dimensions      [1 0 -1 0 0 0 0];

internalField   nonuniform List<scalar> 
2080
(
-2.7463273e-05
0.0002688534
-7.3069251e-05
-1.5980027e-06
0.00022084358
-7.4652673e-05
-2.8050341e-06
0.0002475818
-7.4054432e-05
-3.7719333e-07
0.00024468357
-7.4232821e-05
-4.8544828e-07
0.00024690273
-7.4113716e-05
-1.6061543e-07
0.00024596462
-7.4074761e-05
-3.3484843e-07
0.00024643422
-7.4053697e-05
-2.4768119e-07
0.00024647629
-7.4050955e-05
-1.5552651e-07
0.00024683355
-7.4044043e-05
-6.3426816e-13
0.00024687427
-7.4042756e-05
1.5552545e-07
0.00024687427
-7.4042756e-05
2.4768085e-07
0.00024683355
-7.4044043e-05
3.348485e-07
0.0002464763
-7.4050955e-05
1.6061579e-07
0.00024643422
-7.4053697e-05
4.8544848e-07
0.00024596462
-7.4074761e-05
3.7719319e-07
0.00024690273
-7.4113716e-05
2.8050337e-06
0.00024468357
-7.4232821e-05
1.5980034e-06
0.0002475818
-7.4054433e-05
2.7463277e-05
0.00022084358
-7.4652674e-05
0.00026885339
-7.3069254e-05
8.8741448e-06
0.00060212712
4.2963544e-05
-2.9540174e-07
0.00057130468
4.5664884e-05
-1.0152611e-06
0.00058990767
4.4421668e-05
-3.1526906e-07
0.00058471534
4.4525529e-05
-5.0605858e-07
0.00058768873
4.4487863e-05
-1.7607024e-07
0.0005864867
4.4489489e-05
-2.0384678e-07
0.00058732787
4.4473591e-05
-1.1390597e-07
0.00058729565
4.4475667e-05
-5.4122834e-08
0.00058767151
4.4470552e-05
-7.7023756e-13
0.00058761888
4.4471984e-05
5.4121409e-08
0.00058761888
4.4471984e-05
1.1390534e-07
0.00058767152
4.4470552e-05
2.0384671e-07
0.00058729566
4.4475667e-05
1.7607065e-07
0.00058732788
4.4473591e-05
5.0605906e-07
0.00058648671
4.448949e-05
3.1526944e-07
0.00058768873
4.4487863e-05
1.0152611e-06
0.00058471534
4.4525529e-05
2.9540224e-07
0.00058990768
4.442167e-05
-8.8741439e-06
0.00057130468
4.5664885e-05
0.00060212712
4.2963544e-05
3.0030722e-06
0.00087540213
8.6816033e-06
-1.7250335e-06
0.00085235735
8.7410938e-06
-1.8042399e-06
0.0008659992
8.6188825e-06
-7.5159888e-07
0.00085959595
8.6986285e-06
-6.644725e-07
0.00086349774
8.6789211e-06
-2.6005778e-07
0.00086168659
8.6418385e-06
-3.7049797e-07
0.00086280554
8.6577005e-06
-2.9050766e-07
0.00086265098
8.6546968e-06
-2.2590705e-07
0.0008633627
8.6527085e-06
-1.0853434e-13
0.00086342833
8.6453964e-06
2.2590688e-07
0.00086342834
8.6453964e-06
2.9050789e-07
0.0008633627
8.6527086e-06
3.704985e-07
0.00086265098
8.6546969e-06
2.6005847e-07
0.00086280554
8.6577005e-06
6.6447322e-07
0.00086168659
8.6418386e-06
7.5159952e-07
0.00086349775
8.6789212e-06
1.8042402e-06
0.00085959595
8.6986288e-06
1.7250339e-06
0.0008659992
8.6188838e-06
-3.003072e-06
0.00085235735
8.7410946e-06
0.00087540214
8.681605e-06
6.9061437e-06
0.00067299392
1.4662074e-05
9.0384572e-07
0.00066059902
1.4626786e-05
7.5593266e-07
0.00066805463
1.480337e-05
-3.2033188e-07
0.00066466519
1.4834827e-05
-4.2077939e-08
0.00066748016
1.4806621e-05
2.600764e-08
0.0006660256
1.4807607e-05
2.5313937e-07
0.00066689039
1.4780743e-05
1.5580167e-07
0.00066674636
1.4792183e-05
1.3077474e-07
0.00066722307
1.4802145e-05
-3.6057573e-13
0.00066726216
1.4811398e-05
-1.3077536e-07
0.00066726216
1.4811398e-05
-1.5580203e-07
0.00066722307
1.4802145e-05
-2.5313947e-07
0.00066674636
1.4792183e-05
-2.6007734e-08
0.00066689039
1.4780743e-05
4.2078066e-08
0.0006660256
1.4807607e-05
3.2033231e-07
0.00066748016
1.4806621e-05
-7.5593282e-07
0.00066466519
1.4834827e-05
-9.0384514e-07
0.00066805463
1.480337e-05
-6.9061414e-06
0.00066059902
1.4626785e-05
0.00067299392
1.4662073e-05
-1.045803e-06
0.00057561045
-1.3210107e-05
-2.0728154e-06
0.00056158959
-1.3365024e-05
-2.3154884e-06
0.00056705141
-1.3350707e-05
-1.4988064e-06
0.0005646848
-1.3506278e-05
-1.4386325e-06
0.00056850122
-1.3414806e-05
-6.4953693e-07
0.00056699459
-1.3423315e-05
-4.2318872e-07
0.00056846909
-1.3379495e-05
-6.7351013e-08
0.00056761487
-1.3402299e-05
-5.9817243e-08
0.00056792072
-1.3412365e-05
6.5611033e-13
0.0005675969
-1.3425623e-05
5.981844e-08
0.0005675969
-1.3425623e-05
6.7352291e-08
0.00056792072
-1.3412365e-05
4.2319037e-07
0.00056761487
-1.34023e-05
6.4953853e-07
0.00056846909
-1.3379495e-05
1.4386339e-06
0.00056699459
-1.3423315e-05
1.4988074e-06
0.00056850122
-1.3414806e-05
2.3154888e-06
0.0005646848
-1.3506277e-05
2.0728156e-06
0.00056705141
-1.3350707e-05
1.0458035e-06
0.00056158959
-1.3365024e-05
0.00057561044
-1.3210109e-05
6.3435245e-06
1.9003818e-05
1.6249082e-05
2.4671552e-06
1.5497254e-05
1.6390191e-05
4.4923366e-06
1.438801e-05
1.6539629e-05
9.4939446e-07
1.6255896e-05
1.6639885e-05
1.4279687e-06
1.4940217e-05
1.6546695e-05
4.7656878e-07
1.6917219e-05
1.6508438e-05
1.1608582e-06
1.5900025e-05
1.6515366e-05
4.812053e-07
1.6411418e-05
1.6505739e-05
3.6381402e-07
1.5771437e-05
1.6502898e-05
-5.1304212e-13
1.5919564e-05
1.6495992e-05
-3.6381499e-07
1.5919564e-05
1.6495992e-05
-4.8120599e-07
1.5771437e-05
1.6502898e-05
-1.1608581e-06
1.6411419e-05
1.6505739e-05
-4.7656825e-07
1.5900026e-05
1.6515366e-05
-1.4279686e-06
1.691722e-05
1.6508437e-05
-9.4939553e-07
1.4940217e-05
1.6546695e-05
-4.4923412e-06
1.6255892e-05
1.6639886e-05
-2.4671608e-06
1.4388012e-05
1.653963e-05
-6.3435273e-06
1.5497258e-05
1.6390192e-05
1.9003819e-05
1.6249081e-05
-4.2441368e-06
-0.0011856572
-1.6005776e-05
-2.1955234e-06
-0.0011976484
-1.615684e-05
-2.2327564e-06
-0.0011957874
-1.6146766e-05
-1.414841e-06
-0.0011967396
-1.6134675e-05
-1.4103526e-06
-0.0011967598
-1.6135715e-05
-1.5057154e-06
-0.0011965353
-1.6132504e-05
-1.8637845e-06
-0.0011967403
-1.6154698e-05
-1.2598429e-06
-0.0011965349
-1.6155333e-05
-7.7182335e-07
-0.0011965328
-1.614821e-05
9.684347e-13
-0.0011963691
-1.6138154e-05
7.7182553e-07
-0.0011963691
-1.6138154e-05
1.2598454e-06
-0.0011965328
-1.614821e-05
1.863787e-06
-0.0011965349
-1.6155333e-05
1.5057178e-06
-0.0011967403
-1.6154698e-05
1.410354e-06
-0.0011965353
-1.6132503e-05
1.4148426e-06
-0.0011967598
-1.6135715e-05
2.2327616e-06
-0.0011967396
-1.6134674e-05
2.1955279e-06
-0.0011957874
-1.6146765e-05
4.2441373e-06
-0.0011976484
-1.6156839e-05
-0.0011856572
-1.6005774e-05
1.4745133e-05
-0.0014165269
1.4249083e-05
6.570485e-07
-0.0014029959
1.4086696e-05
7.014438e-06
-0.0014176527
1.4613808e-05
1.3079682e-06
-0.0014075949
1.4750658e-05
4.0425562e-06
-0.0014150514
1.4687905e-05
1.6354608e-06
-0.0014098468
1.4594338e-05
2.716263e-06
-0.0014138992
1.4572974e-05
1.1413588e-06
-0.0014112679
1.4507948e-05
9.9862825e-07
-0.0014129118
1.4532637e-05
-7.9906592e-14
-0.001412165
1.4530387e-05
-9.986281e-07
-0.001412165
1.4530387e-05
-1.1413578e-06
-0.0014129118
1.4532637e-05
-2.7162606e-06
-0.0014112679
1.4507947e-05
-1.6354606e-06
-0.0014138992
1.4572974e-05
-4.0425668e-06
-0.0014098468
1.4594338e-05
-1.307979e-06
-0.0014150514
1.4687912e-05
-7.0144336e-06
-0.0014075949
1.4750688e-05
-6.5704799e-07
-0.0014176527
1.4613819e-05
-1.4745143e-05
-0.0014029959
1.4086721e-05
-0.0014165269
1.4249091e-05
-1.4275326e-05
-0.00020490806
-8.9594468e-06
-2.4711988e-06
-0.00021125695
-8.9385708e-06
-8.5925599e-06
-0.00021190797
-9.1985027e-06
-3.1136786e-06
-0.0002120091
-9.1392486e-06
-6.0820859e-06
-0.00021153786
-9.198302e-06
-3.1989761e-06
-0.00021195767
-9.1725511e-06
-3.974204e-06
-0.00021141655
-9.1602095e-06
-1.5902714e-06
-0.00021178907
-9.1203735e-06
-1.2345219e-06
-0.0002115195
-9.1308287e-06
1.8033529e-13
-0.00021168368
-9.1304273e-06
1.2345216e-06
-0.00021168368
-9.1304272e-06
1.5902696e-06
-0.0002115195
-9.1308285e-06
3.9741997e-06
-0.00021178907
-9.120373e-06
3.1989734e-06
-0.00021141655
-9.1602094e-06
6.082093e-06
-0.00021195767
-9.1725518e-06
3.1136876e-06
-0.00021153786
-9.1983066e-06
8.5925569e-06
-0.0002120091
-9.1392633e-06
2.4711997e-06
-0.00021190797
-9.1985095e-06
1.4275338e-05
-0.00021125695
-8.9385834e-06
-0.00020490806
-8.9594511e-06
7.5356495e-06
1.4467316e-05
7.0839502e-06
1.6652569e-05
6.5904075e-06
1.5460114e-05
6.0367778e-06
1.5753727e-05
5.3349339e-06
1.5637391e-05
3.7696786e-06
1.5670904e-05
2.8148868e-06
1.5641585e-05
1.3750677e-06
1.5666974e-05
6.9908838e-07
1.565326e-05
-9.9222919e-14
1.5661512e-05
-6.9908918e-07
1.5661512e-05
-1.3750694e-06
1.565326e-05
-2.8148895e-06
1.5666974e-05
-3.7696812e-06
1.5641585e-05
-5.3349348e-06
1.5670903e-05
-6.0367772e-06
1.563739e-05
-6.5904079e-06
1.5753727e-05
-7.0839503e-06
1.5460114e-05
-7.5356482e-06
1.6652568e-05
1.4467315e-05
-2.8553466e-05
0.00012800089
4.5840593e-12
-1.6925499e-06
7.8679428e-05
6.0214606e-12
-2.7754947e-06
0.00010545929
6.439245e-12
-3.5165337e-07
0.00010253281
6.6388518e-12
-4.7700735e-07
0.00010471849
6.5317977e-12
-1.5885897e-07
0.00010373604
6.4593027e-12
-3.356626e-07
0.00010421042
6.3953519e-12
-2.481943e-07
0.00010424327
6.4438031e-12
-1.5565089e-07
0.00010459699
6.4975587e-12
-6.5128512e-13
0.00010462907
6.5399312e-12
1.556498e-07
0.00010462907
6.5210172e-12
2.4819396e-07
0.00010459699
6.4394969e-12
3.3566266e-07
0.00010424327
6.4246739e-12
1.5885935e-07
0.00010421042
6.3790679e-12
4.7700755e-07
0.00010373605
6.5362361e-12
3.5165319e-07
0.00010471849
6.6121984e-12
2.7754942e-06
0.00010253282
6.461316e-12
1.6925506e-06
0.00010545929
6.4885063e-12
2.8553469e-05
7.867943e-05
5.0889525e-12
0.00012800089
-1.951062e-12
9.5573071e-06
0.00053851312
-4.9062027e-12
-2.3871813e-07
0.00050639296
-4.4583098e-12
-1.1090932e-06
0.00052542486
-4.8152599e-12
-3.3179133e-07
0.00052020134
-3.7542847e-12
-5.1011123e-07
0.00052316755
-3.9612258e-12
-1.804354e-07
0.00052194124
-4.1581969e-12
-2.069402e-07
0.00052278741
-4.2201835e-12
-1.1504113e-07
0.00052275111
-4.1953821e-12
-5.4402774e-08
0.00052312723
-4.1843717e-12
-7.6777859e-13
0.00052307093
-4.1182268e-12
5.440136e-08
0.00052307093
-4.1158396e-12
1.1504051e-07
0.00052312723
-4.1617308e-12
2.0694013e-07
0.00052275111
-4.1866205e-12
1.8043581e-07
0.00052278742
-4.1841155e-12
5.1011173e-07
0.00052194124
-4.2321719e-12
3.3179181e-07
0.00052316755
-4.1717167e-12
1.1090933e-06
0.00052020134
-3.8043818e-12
2.3871869e-07
0.00052542486
-4.7499815e-12
-9.5573064e-06
0.00050639296
-3.302212e-12
0.00053851312
-1.7525885e-12
3.0259285e-06
0.00083911687
-2.4248806e-11
-1.6851817e-06
0.00081424293
-2.4312117e-11
-1.8523506e-06
0.00082873131
-2.4244038e-11
-7.8100257e-07
0.00082213654
-2.4000395e-11
-6.8407664e-07
0.00082616202
-2.4576537e-11
-2.6371626e-07
0.00082432741
-2.4753468e-11
-3.7361087e-07
0.00082547007
-2.4838816e-11
-2.9395799e-07
0.00082530937
-2.4807811e-11
-2.2953961e-07
0.00082603005
-2.4736207e-11
-9.6515138e-14
0.00082609553
-2.4699986e-11
2.2953947e-07
0.00082609553
-2.4695331e-11
2.9395824e-07
0.00082603005
-2.4714295e-11
3.7361138e-07
0.00082530937
-2.4811969e-11
2.6371694e-07
0.00082547008
-2.4872332e-11
6.840774e-07
0.00082432741
-2.4849735e-11
7.8100333e-07
0.00082616202
-2.4711771e-11
1.8523511e-06
0.00082213654
-2.3877355e-11
1.6851821e-06
0.00082873131
-2.3551376e-11
-3.0259283e-06
0.00081424294
-2.2723779e-11
0.00083911688
-1.9074401e-11
6.9943725e-06
0.0006567177
-3.9674244e-11
9.1526865e-07
0.00064370017
-3.516119e-11
8.1484054e-07
0.00065138414
-3.551096e-11
-3.1525271e-07
0.00064793136
-3.6799284e-11
-4.4538559e-08
0.0006507975
-3.7396851e-11
2.1144861e-08
0.0006493334
-3.7553182e-11
2.5759876e-07
0.00065021423
-3.7551425e-11
1.6086452e-07
0.00065006164
-3.7567428e-11
1.3460267e-07
0.00065053722
-3.7604017e-11
-3.7192057e-13
0.00065057421
-3.7690688e-11
-1.3460332e-07
0.00065057421
-3.7703013e-11
-1.6086488e-07
0.00065053722
-3.7674101e-11
-2.5759886e-07
0.00065006164
-3.7644269e-11
-2.1144969e-08
0.00065021423
-3.7573672e-11
4.453867e-08
0.00064933341
-3.7449859e-11
3.1525312e-07
0.0006507975
-3.7080816e-11
-8.1484074e-07
0.00064793137
-3.6580574e-11
-9.1526816e-07
0.00065138414
-3.5516878e-11
-6.9943703e-06
0.00064370017
-3.5409274e-11
0.0006567177
-4.2350826e-11
-1.0932767e-06
0.00054351104
-2.0516494e-11
-2.1321045e-06
0.00052906156
-1.981296e-11
-2.3640902e-06
0.00053460914
-2.0173772e-11
-1.5027147e-06
0.00053216981
-2.0229234e-11
-1.4495546e-06
0.00053605596
-2.0348545e-11
-6.5066547e-07
0.00053449076
-2.0277873e-11
-4.3964285e-07
0.00053600754
-2.0396514e-11
-7.6719146e-08
0.00053513315
-2.0455267e-11
-6.6324238e-08
0.00053545054
-2.0429674e-11
6.4618464e-13
0.0005351205
-2.040267e-11
6.6325436e-08
0.0005351205
-2.0429794e-11
7.6720418e-08
0.00053545054
-2.0498486e-11
4.3964451e-07
0.00053513315
-2.0558297e-11
6.5066712e-07
0.00053600754
-2.0396589e-11
1.4495561e-06
0.00053449076
-2.0061055e-11
1.5027157e-06
0.00053605596
-1.9942277e-11
2.3640906e-06
0.00053216981
-1.9754345e-11
2.1321046e-06
0.00053460914
-1.9891057e-11
1.093277e-06
0.00052906156
-2.0450798e-11
0.00054351103
-2.3849907e-11
6.4623181e-06
5.1742134e-06
-9.5151616e-12
2.5259439e-06
1.3794827e-06
-1.1633496e-11
4.5771554e-06
3.5018813e-07
-1.1250473e-11
9.4532569e-07
2.213452e-06
-1.0845592e-11
1.4435171e-06
9.040341e-07
-1.0695281e-11
4.8000358e-07
2.8613599e-06
-1.0591619e-11
1.1747768e-06
1.8475016e-06
-1.0647784e-11
4.8316219e-07
2.3545682e-06
-1.0825135e-11
3.656247e-07
1.7225333e-06
-1.0982932e-11
-5.2416002e-13
1.8729167e-06
-1.1008209e-11
-3.6562568e-07
1.8729167e-06
-1.1033053e-11
-4.8316291e-07
1.7225337e-06
-1.0989395e-11
-1.1747768e-06
2.3545688e-06
-1.0837511e-11
-4.8000314e-07
1.8475027e-06
-1.0723611e-11
-1.4435169e-06
2.8613615e-06
-1.071235e-11
-9.4532658e-07
9.0403498e-07
-1.0829057e-11
-4.5771602e-06
2.2134497e-06
-1.1051239e-11
-2.5259494e-06
3.5019014e-07
-1.1296337e-11
-6.4623214e-06
1.3794885e-06
-1.165528e-11
5.1742156e-06
-9.7267707e-12
-4.3436603e-06
-0.0012190001
6.7283795e-13
-2.2419986e-06
-0.0012316487
9.2215172e-13
-2.2755923e-06
-0.0012296037
5.16276e-13
-1.44443e-06
-0.0012306034
7.4612006e-13
-1.4450676e-06
-0.0012305958
7.066933e-13
-1.5330129e-06
-0.0012304061
6.2960843e-13
-1.8838989e-06
-0.0012305863
4.774218e-13
-1.2676157e-06
-0.0012303996
5.8245305e-13
-7.7415831e-07
-0.0012303863
8.2458808e-13
9.4956671e-13
-0.0012302274
9.9256746e-13
7.7416046e-07
-0.0012302274
9.6210924e-13
1.2676182e-06
-0.0012303863
8.3629564e-13
1.8839015e-06
-0.0012303996
5.956418e-13
1.5330154e-06
-0.0012305863
4.4843754e-13
1.4450692e-06
-0.0012304062
6.024355e-13
1.4444317e-06
-0.0012305958
6.4024291e-13
2.2755978e-06
-0.0012306034
7.9686756e-13
2.2420032e-06
-0.0012296037
6.935742e-13
4.343661e-06
-0.0012316487
1.5528336e-12
-0.0012190001
1.928892e-12
1.499412e-05
-0.0014297678
2.0951078e-12
7.8177947e-07
-0.0014168134
2.7592677e-12
7.2207349e-06
-0.0014314246
3.9483199e-12
1.3296045e-06
-0.0014213246
3.4148688e-12
4.0571931e-06
-0.001428833
4.0556107e-12
1.6275426e-06
-0.0014236637
4.163485e-12
2.7318979e-06
-0.0014276739
4.1772831e-12
1.1527963e-06
-0.0014250571
4.2147306e-12
1.0093747e-06
-0.0014266902
4.2878454e-12
-9.4754108e-14
-0.0014259516
4.4269528e-12
-1.0093746e-06
-0.0014259516
4.4172848e-12
-1.1527955e-06
-0.0014266902
4.2868648e-12
-2.7318957e-06
-0.0014250571
4.1780015e-12
-1.6275414e-06
-0.0014276739
4.0669222e-12
-4.0571998e-06
-0.0014236637
4.2060182e-12
-1.3296118e-06
-0.001428833
4.0504628e-12
-7.2207312e-06
-0.0014213246
3.4979657e-12
-7.8177966e-07
-0.0014314246
4.005694e-12
-1.4994133e-05
-0.0014168134
2.6243185e-12
-0.0014297678
2.1301097e-12
-1.4519792e-05
-0.0002356565
1.4164848e-12
-2.5565401e-06
-0.00024279546
1.7089178e-12
-8.7530227e-06
-0.00024341235
-1.5431989e-13
-3.1620239e-06
-0.00024355159
-2.6519417e-13
-6.140398e-06
-0.00024304596
-8.0267707e-13
-3.2140439e-06
-0.00024351367
-1.0436306e-12
-4.0053253e-06
-0.00024292296
-7.8201603e-13
-1.6070536e-06
-0.00024332694
-7.3298547e-13
-1.2480617e-06
-0.00024303531
-7.9799573e-13
1.8238095e-13
-0.00024321147
-8.3379284e-13
1.2480614e-06
-0.00024321147
-8.2239752e-13
1.6070519e-06
-0.00024303531
-7.4119983e-13
4.0053212e-06
-0.00024332694
-7.1025103e-13
3.2140405e-06
-0.00024292296
-8.2190304e-13
6.1404032e-06
-0.00024351367
-1.1552716e-12
3.1620311e-06
-0.00024304596
-8.3067039e-13
8.7530198e-06
-0.00024355159
-3.1499694e-13
2.5565416e-06
-0.00024341235
-1.4605978e-13
1.4519805e-05
-0.00024279546
1.8095189e-12
-0.0002356565
1.5438119e-12
5.9027585e-06
1.4065773e-12
7.4558175e-06
1.3784487e-12
6.56809e-06
1.4872044e-12
6.1263899e-06
1.3190789e-12
5.3786605e-06
1.3649578e-12
3.8216551e-06
1.5471101e-12
2.8467796e-06
1.5123764e-12
1.4000658e-06
1.4233769e-12
7.0970862e-07
1.4048388e-12
-9.7040325e-14
1.3550323e-12
-7.0970943e-07
1.4007903e-12
-1.4000676e-06
1.3951509e-12
-2.8467822e-06
1.4816119e-12
-3.8216577e-06
1.5326083e-12
-5.3786615e-06
1.4983055e-12
-6.1263893e-06
1.3272752e-12
-6.5680905e-06
1.2695989e-12
-7.4558177e-06
1.3958694e-12
-5.9027573e-06
1.2644557e-12
1.3392533e-12
-2.8553465e-05
0.00012800088
7.306926e-05
-1.6925501e-06
7.8679414e-05
7.4652676e-05
-2.7754946e-06
0.00010545927
7.4054438e-05
-3.5165336e-07
0.0001025328
7.4232827e-05
-4.7700737e-07
0.00010471848
7.4113722e-05
-1.5885898e-07
0.00010373603
7.4074767e-05
-3.3566258e-07
0.00010421041
7.4053703e-05
-2.4819429e-07
0.00010424325
7.4050961e-05
-1.5565088e-07
0.00010459698
7.4044049e-05
-6.5954679e-13
0.00010462906
7.4042762e-05
1.5564978e-07
0.00010462906
7.4042762e-05
2.4819394e-07
0.00010459698
7.4044049e-05
3.3566266e-07
0.00010424325
7.4050961e-05
1.5885938e-07
0.00010421041
7.4053703e-05
4.7700758e-07
0.00010373603
7.4074767e-05
3.5165318e-07
0.00010471848
7.4113722e-05
2.775494e-06
0.0001025328
7.4232827e-05
1.6925506e-06
0.00010545928
7.4054439e-05
2.8553466e-05
7.8679418e-05
7.4652674e-05
0.00012800089
7.3069253e-05
9.5573068e-06
0.00053851311
-4.2963553e-05
-2.3871792e-07
0.00050639295
-4.5664889e-05
-1.1090931e-06
0.00052542485
-4.4421675e-05
-3.3179131e-07
0.00052020133
-4.4525535e-05
-5.101113e-07
0.00052316754
-4.4487869e-05
-1.8043542e-07
0.00052194123
-4.4489495e-05
-2.0694019e-07
0.0005227874
-4.4473597e-05
-1.1504112e-07
0.0005227511
-4.4475673e-05
-5.4402761e-08
0.00052312722
-4.4470558e-05
-7.6871467e-13
0.00052307092
-4.447199e-05
5.4401345e-08
0.00052307092
-4.447199e-05
1.150405e-07
0.00052312722
-4.4470558e-05
2.0694013e-07
0.0005227511
-4.4475673e-05
1.8043581e-07
0.0005227874
-4.4473597e-05
5.1011177e-07
0.00052194123
-4.4489495e-05
3.317918e-07
0.00052316754
-4.4487869e-05
1.1090934e-06
0.00052020133
-4.4525535e-05
2.3871878e-07
0.00052542485
-4.4421676e-05
-9.5573056e-06
0.00050639295
-4.5664888e-05
0.00053851311
-4.2963547e-05
3.0259282e-06
0.00083911687
-8.6816392e-06
-1.6851817e-06
0.00081424293
-8.7411264e-06
-1.8523506e-06
0.00082873131
-8.6189159e-06
-7.8100264e-07
0.00082213654
-8.6986618e-06
-6.8407673e-07
0.00082616201
-8.6789552e-06
-2.6371629e-07
0.0008243274
-8.6418728e-06
-3.7361086e-07
0.00082547007
-8.6577349e-06
-2.9395797e-07
0.00082530936
-8.6547312e-06
-2.2953959e-07
0.00082603004
-8.6527427e-06
-9.4227789e-14
0.00082609552
-8.6454305e-06
2.2953945e-07
0.00082609552
-8.6454305e-06
2.9395821e-07
0.00082603004
-8.6527428e-06
3.7361137e-07
0.00082530937
-8.6547313e-06
2.6371695e-07
0.00082547007
-8.657735e-06
6.8407748e-07
0.00082432741
-8.641873e-06
7.810035e-07
0.00082616201
-8.6789554e-06
1.8523513e-06
0.00082213654
-8.6986619e-06
1.6851824e-06
0.00082873131
-8.6189165e-06
-3.0259272e-06
0.00081424293
-8.7411249e-06
0.00083911687
-8.6816337e-06
6.9943732e-06
0.00065671771
-1.466213e-05
9.1526873e-07
0.00064370017
-1.4626837e-05
8.148403e-07
0.00065138414
-1.4803421e-05
-3.1525292e-07
0.00064793137
-1.483488e-05
-4.4538651e-08
0.0006507975
-1.4806675e-05
2.1144839e-08
0.00064933341
-1.4807661e-05
2.5759876e-07
0.00065021424
-1.4780797e-05
1.6086453e-07
0.00065006164
-1.4792237e-05
1.3460266e-07
0.00065053722
-1.4802199e-05
-3.7769512e-13
0.00065057422
-1.4811452e-05
-1.3460331e-07
0.00065057422
-1.4811452e-05
-1.6086489e-07
0.00065053722
-1.4802199e-05
-2.5759884e-07
0.00065006164
-1.4792237e-05
-2.114491e-08
0.00065021424
-1.4780797e-05
4.4538778e-08
0.00064933341
-1.4807661e-05
3.1525333e-07
0.0006507975
-1.4806674e-05
-8.1484057e-07
0.00064793137
-1.4834879e-05
-9.1526843e-07
0.00065138414
-1.4803421e-05
-6.9943714e-06
0.00064370017
-1.4626836e-05
0.0006567177
-1.4662132e-05
-1.0932765e-06
0.00054351104
1.3210076e-05
-2.1321045e-06
0.00052906157
1.3364993e-05
-2.3640903e-06
0.00053460914
1.3350676e-05
-1.5027147e-06
0.00053216982
1.3506247e-05
-1.4495546e-06
0.00053605597
1.3414775e-05
-6.5066547e-07
0.00053449077
1.3423284e-05
-4.3964287e-07
0.00053600755
1.3379464e-05
-7.6719139e-08
0.00053513315
1.3402268e-05
-6.6324222e-08
0.00053545055
1.3412333e-05
6.4471197e-13
0.00053512051
1.3425592e-05
6.632541e-08
0.00053512051
1.3425592e-05
7.6720413e-08
0.00053545055
1.3412333e-05
4.3964455e-07
0.00053513315
1.3402268e-05
6.5066717e-07
0.00053600755
1.3379464e-05
1.4495561e-06
0.00053449077
1.3423284e-05
1.5027157e-06
0.00053605597
1.3414775e-05
2.3640906e-06
0.00053216982
1.3506247e-05
2.1321044e-06
0.00053460914
1.3350677e-05
1.0932764e-06
0.00052906157
1.3364992e-05
0.00054351104
1.3210073e-05
6.4623179e-06
5.1742162e-06
-1.6249096e-05
2.5259438e-06
1.3794854e-06
-1.6390208e-05
4.5771554e-06
3.5019097e-07
-1.6539646e-05
9.4532575e-07
2.2134548e-06
-1.6639901e-05
1.4435171e-06
9.0403696e-07
-1.6546711e-05
4.8000358e-07
2.8613628e-06
-1.6508454e-05
1.1747768e-06
1.8475045e-06
-1.6515382e-05
4.8316217e-07
2.354571e-06
-1.6505755e-05
3.6562467e-07
1.7225362e-06
-1.6502914e-05
-5.1972822e-13
1.8729196e-06
-1.6496009e-05
-3.6562567e-07
1.8729196e-06
-1.6496009e-05
-4.8316289e-07
1.7225366e-06
-1.6502914e-05
-1.1747768e-06
2.3545717e-06
-1.6505755e-05
-4.8000314e-07
1.8475056e-06
-1.6515382e-05
-1.4435169e-06
2.8613643e-06
-1.6508453e-05
-9.4532663e-07
9.0403781e-07
-1.6546711e-05
-4.5771602e-06
2.2134526e-06
-1.6639903e-05
-2.5259493e-06
3.5019297e-07
-1.6539647e-05
-6.4623212e-06
1.3794913e-06
-1.6390209e-05
5.1742187e-06
-1.6249095e-05
-4.3436603e-06
-0.0012190001
1.6005774e-05
-2.2419986e-06
-0.0012316487
1.6156839e-05
-2.2755923e-06
-0.0012296037
1.6146764e-05
-1.44443e-06
-0.0012306034
1.6134674e-05
-1.4450676e-06
-0.0012305958
1.6135714e-05
-1.5330129e-06
-0.0012304061
1.6132502e-05
-1.8838988e-06
-0.0012305863
1.6154696e-05
-1.2676156e-06
-0.0012303996
1.6155332e-05
-7.7415831e-07
-0.0012303863
1.6148209e-05
9.5159875e-13
-0.0012302274
1.6138153e-05
7.7416042e-07
-0.0012302274
1.6138153e-05
1.2676181e-06
-0.0012303863
1.6148209e-05
1.8839014e-06
-0.0012303996
1.6155332e-05
1.5330154e-06
-0.0012305863
1.6154696e-05
1.4450692e-06
-0.0012304061
1.6132502e-05
1.4444318e-06
-0.0012305958
1.6135714e-05
2.2755979e-06
-0.0012306034
1.6134673e-05
2.2420033e-06
-0.0012296037
1.6146764e-05
4.3436611e-06
-0.0012316487
1.6156839e-05
-0.0012190001
1.6005775e-05
1.4994121e-05
-0.0014297678
-1.4249079e-05
7.8177959e-07
-0.0014168134
-1.4086692e-05
7.2207349e-06
-0.0014314246
-1.4613802e-05
1.3296046e-06
-0.0014213246
-1.4750653e-05
4.0571931e-06
-0.001428833
-1.4687899e-05
1.6275426e-06
-0.0014236637
-1.4594332e-05
2.731898e-06
-0.0014276739
-1.4572968e-05
1.1527964e-06
-0.0014250571
-1.4507942e-05
1.0093747e-06
-0.0014266902
-1.4532631e-05
-1.2578924e-13
-0.0014259516
-1.4530381e-05
-1.0093746e-06
-0.0014259516
-1.4530381e-05
-1.1527956e-06
-0.0014266902
-1.4532631e-05
-2.7318957e-06
-0.0014250571
-1.4507941e-05
-1.6275414e-06
-0.0014276739
-1.4572968e-05
-4.0571998e-06
-0.0014236637
-1.4594332e-05
-1.3296119e-06
-0.001428833
-1.4687906e-05
-7.2207314e-06
-0.0014213246
-1.4750683e-05
-7.8177985e-07
-0.0014314246
-1.4613814e-05
-1.4994134e-05
-0.0014168134
-1.4086717e-05
-0.0014297678
-1.4249088e-05
-1.4519792e-05
-0.0002356565
8.9594486e-06
-2.5565403e-06
-0.00024279546
8.9385732e-06
-8.7530229e-06
-0.00024341235
9.1985022e-06
-3.162024e-06
-0.00024355159
9.1392481e-06
-6.1403981e-06
-0.00024304596
9.1983006e-06
-3.2140438e-06
-0.00024351367
9.1725495e-06
-4.0053253e-06
-0.00024292296
9.1602081e-06
-1.6070536e-06
-0.00024332694
9.1203723e-06
-1.2480617e-06
-0.00024303531
9.1308274e-06
2.1126352e-13
-0.00024321147
9.1304259e-06
1.2480614e-06
-0.00024321147
9.1304259e-06
1.6070519e-06
-0.00024303531
9.1308273e-06
4.0053211e-06
-0.00024332694
9.1203718e-06
3.2140404e-06
-0.00024292296
9.160208e-06
6.1404032e-06
-0.00024351367
9.17255e-06
3.1620313e-06
-0.00024304596
9.1983052e-06
8.75302e-06
-0.00024355159
9.1392626e-06
2.5565418e-06
-0.00024341235
9.198509e-06
1.4519805e-05
-0.00024279546
8.938586e-06
-0.0002356565
8.9594532e-06
5.9027583e-06
-1.4467314e-05
7.4558176e-06
-1.6652567e-05
6.5680902e-06
-1.5460112e-05
6.1263899e-06
-1.5753725e-05
5.3786606e-06
-1.5637389e-05
3.8216551e-06
-1.5670901e-05
2.8467796e-06
-1.5641583e-05
1.4000658e-06
-1.5666972e-05
7.0970861e-07
-1.5653258e-05
-9.4347255e-14
-1.566151e-05
-7.0970941e-07
-1.566151e-05
-1.4000676e-06
-1.5653258e-05
-2.8467822e-06
-1.5666972e-05
-3.8216577e-06
-1.5641583e-05
-5.3786615e-06
-1.5670901e-05
-6.1263893e-06
-1.5637389e-05
-6.5680906e-06
-1.5753725e-05
-7.4558178e-06
-1.5460112e-05
-5.9027573e-06
-1.6652566e-05
-1.4467313e-05
-2.7463273e-05
0.00026885337
-1.5980026e-06
0.00022084356
-2.8050338e-06
0.00024758178
-3.7719332e-07
0.00024468355
-4.8544834e-07
0.00024690271
-1.6061544e-07
0.00024596459
-3.3484841e-07
0.00024643419
-2.4768115e-07
0.00024647627
-1.5552649e-07
0.00024683353
-6.4761212e-13
0.00024687424
1.5552541e-07
0.00024687424
2.4768082e-07
0.00024683353
3.3484848e-07
0.00024647627
1.6061584e-07
0.00024643419
4.8544858e-07
0.00024596459
3.7719319e-07
0.00024690271
2.8050334e-06
0.00024468355
1.5980024e-06
0.00024758178
2.7463273e-05
0.00022084356
0.00026885339
8.8741444e-06
0.0006021271
-2.9540129e-07
0.00057130465
-1.0152609e-06
0.00058990765
-3.15269e-07
0.00058471531
-5.0605869e-07
0.0005876887
-1.7607029e-07
0.00058648668
-2.0384678e-07
0.00058732785
-1.1390596e-07
0.00058729563
-5.4122812e-08
0.00058767149
-7.6704057e-13
0.00058761886
5.4121395e-08
0.00058761886
1.1390534e-07
0.00058767149
2.0384669e-07
0.00058729563
1.7607065e-07
0.00058732786
5.060591e-07
0.00058648668
3.152694e-07
0.00058768871
1.0152612e-06
0.00058471532
2.954027e-07
0.00058990766
-8.874142e-06
0.00057130466
0.00060212711
3.0030725e-06
0.00087540212
-1.7250331e-06
0.00085235734
-1.80424e-06
0.00086599919
-7.5159915e-07
0.00085959594
-6.6447268e-07
0.00086349773
-2.6005783e-07
0.00086168658
-3.7049795e-07
0.00086280552
-2.905076e-07
0.00086265096
-2.2590702e-07
0.00086336268
-1.0334423e-13
0.00086342832
2.2590686e-07
0.00086342832
2.9050783e-07
0.00086336269
3.7049845e-07
0.00086265097
2.6005847e-07
0.00086280553
6.6447339e-07
0.00086168658
7.5159993e-07
0.00086349773
1.8042407e-06
0.00085959594
1.7250343e-06
0.00086599919
-3.0030706e-06
0.00085235734
0.00087540212
6.9061453e-06
0.00067299393
9.03846e-07
0.00066059903
7.5593208e-07
0.00066805464
-3.2033238e-07
0.0006646652
-4.207811e-08
0.00066748017
2.6007578e-08
0.0006660256
2.5313937e-07
0.0006668904
1.5580168e-07
0.00066674637
1.3077468e-07
0.00066722308
-3.7280806e-13
0.00066726217
-1.3077533e-07
0.00066726217
-1.5580205e-07
0.00066722308
-2.5313942e-07
0.00066674637
-2.6007574e-08
0.0006668904
4.2078326e-08
0.00066602561
3.2033283e-07
0.00066748017
-7.5593243e-07
0.0006646652
-9.0384593e-07
0.00066805464
-6.906144e-06
0.00066059903
0.00067299393
-1.0458028e-06
0.00057561046
-2.0728154e-06
0.00056158961
-2.3154885e-06
0.00056705143
-1.4988064e-06
0.00056468482
-1.4386325e-06
0.00056850124
-6.4953691e-07
0.00056699461
-4.2318875e-07
0.0005684691
-6.7351048e-08
0.00056761489
-5.9817253e-08
0.00056792073
6.3476097e-13
0.00056759692
5.9818419e-08
0.00056759692
6.7352324e-08
0.00056792073
4.2319047e-07
0.00056761489
6.4953864e-07
0.0005684691
1.438634e-06
0.00056699461
1.4988074e-06
0.00056850124
2.3154887e-06
0.00056468482
2.0728149e-06
0.00056705143
1.0458021e-06
0.0005615896
0.00057561046
6.3435238e-06
1.9003825e-05
2.467155e-06
1.5497261e-05
4.4923368e-06
1.4388017e-05
9.4939462e-07
1.6255903e-05
1.4279688e-06
1.4940224e-05
4.7656874e-07
1.6917226e-05
1.1608581e-06
1.5900032e-05
4.812052e-07
1.6411425e-05
3.6381398e-07
1.5771444e-05
-5.1577415e-13
1.5919571e-05
-3.6381496e-07
1.5919571e-05
-4.812059e-07
1.5771444e-05
-1.1608581e-06
1.6411426e-05
-4.7656824e-07
1.5900033e-05
-1.4279687e-06
1.6917227e-05
-9.4939568e-07
1.4940224e-05
-4.4923413e-06
1.6255899e-05
-2.4671606e-06
1.4388018e-05
-6.3435267e-06
1.5497265e-05
1.9003827e-05
-4.2441369e-06
-0.0011856571
-2.1955234e-06
-0.0011976484
-2.2327564e-06
-0.0011957874
-1.4148409e-06
-0.0011967395
-1.4103527e-06
-0.0011967598
-1.5057155e-06
-0.0011965353
-1.8637844e-06
-0.0011967403
-1.2598427e-06
-0.0011965349
-7.7182322e-07
-0.0011965327
9.6418325e-13
-0.0011963691
7.7182539e-07
-0.0011963691
1.2598452e-06
-0.0011965327
1.863787e-06
-0.0011965349
1.5057178e-06
-0.0011967403
1.4103541e-06
-0.0011965353
1.4148426e-06
-0.0011967598
2.2327619e-06
-0.0011967396
2.1955282e-06
-0.0011957874
4.2441376e-06
-0.0011976484
-0.0011856572
1.4745134e-05
-0.0014165269
6.5704884e-07
-0.0014029959
7.0144382e-06
-0.0014176527
1.3079684e-06
-0.0014075949
4.0425563e-06
-0.0014150514
1.6354609e-06
-0.0014098468
2.7162631e-06
-0.0014138992
1.1413589e-06
-0.0014112679
9.9862829e-07
-0.0014129118
-9.5758952e-14
-0.001412165
-9.9862816e-07
-0.001412165
-1.1413579e-06
-0.0014129118
-2.7162607e-06
-0.0014112679
-1.6354606e-06
-0.0014138992
-4.0425668e-06
-0.0014098468
-1.3079792e-06
-0.0014150514
-7.0144339e-06
-0.0014075949
-6.570483e-07
-0.0014176527
-1.4745144e-05
-0.0014029959
-0.0014165269
-1.4275327e-05
-0.00020490806
-2.4711993e-06
-0.00021125695
-8.5925604e-06
-0.00021190798
-3.1136789e-06
-0.0002120091
-6.082086e-06
-0.00021153786
-3.198976e-06
-0.00021195767
-3.9742039e-06
-0.00021141656
-1.5902715e-06
-0.00021178907
-1.234522e-06
-0.0002115195
1.9754257e-13
-0.00021168368
1.2345216e-06
-0.00021168368
1.5902696e-06
-0.0002115195
3.9741996e-06
-0.00021178907
3.1989733e-06
-0.00021141655
6.0820931e-06