/*--------------------------------*- C++ -*----------------------------------*\
  =========                 |
  \\      /  F ield         | OpenFOAM: The Open Source CFD Toolbox
   \\    /   O peration     | Website:  https://openfoam.org
    \\  /    A nd           | Version:  8
     \\/     M anipulation  |
\*---------------------------------------------------------------------------*/
FoamFile
{
    version     2.0;
    format      ascii;
    class       volVectorField;
    location    "0.8";
    object      U;
}
// * * * * * * * * * * * * * * * * * * * * * * * * * * * * * * * * * * * * * //

dimensions      [0 1 -1 0 0 0 0];

internalField   nonuniform List<vector> 
800
(
(-0.0080538557 2.1904909 -0.015203043)
(0.00036824128 2.1967935 -0.015404582)
(-0.00085761529 2.1984987 -0.015372559)
(0.00011007293 2.1985233 -0.015372225)
(-0.00022789624 2.1985359 -0.015367375)
(8.2662489e-05 2.1986057 -0.015366607)
(-0.00013675448 2.1985309 -0.015365513)
(5.157158e-05 2.1986295 -0.015366008)
(-0.00012033403 2.1985986 -0.015365595)
(8.3348099e-05 2.1986426 -0.015365669)
(-8.3348277e-05 2.1986426 -0.015365669)
(0.00012033394 2.1985986 -0.015365595)
(-5.1571599e-05 2.1986295 -0.015366008)
(0.00013675452 2.1985309 -0.015365513)
(-8.2662424e-05 2.1986057 -0.015366607)
(0.00022789625 2.1985359 -0.015367375)
(-0.00011007298 2.1985233 -0.015372225)
(0.00085761529 2.1984987 -0.015372559)
(-0.00036824099 2.1967935 -0.015404582)
(0.0080538559 2.1904909 -0.015203044)
(0.0017136451 -2.5217468 0.0026930768)
(0.0003888584 -2.5358978 0.0028428643)
(-0.00042990939 -2.5340908 0.0027860421)
(0.00014787532 -2.5345407 0.0027864685)
(-0.00021917199 -2.5342424 0.0027858601)
(8.6291461e-05 -2.5344579 0.0027861328)
(-0.00013382347 -2.5343011 0.0027853639)
(8.8787203e-05 -2.5344084 0.0027855502)
(-0.00011906907 -2.5343222 0.0027853622)
(0.00010873865 -2.5343681 0.0027855284)
(-0.00010873884 -2.5343681 0.0027855284)
(0.00011906895 -2.5343222 0.0027853622)
(-8.878725e-05 -2.5344084 0.0027855502)
(0.0001338235 -2.5343011 0.0027853639)
(-8.6291387e-05 -2.5344579 0.0027861328)
(0.00021917203 -2.5342424 0.0027858601)
(-0.00014787527 -2.5345407 0.0027864686)
(0.00042990934 -2.5340908 0.0027860422)
(-0.00038885827 -2.5358978 0.0028428644)
(-0.0017136449 -2.5217468 0.0026930769)
(0.00075530252 3.0501506 0.0003890329)
(-4.8420932e-05 3.0619114 0.00041926869)
(-0.00036410774 3.0626812 0.00040587052)
(4.5632279e-06 3.0624082 0.00040579507)
(-0.00017894407 3.0625239 0.00040491689)
(4.7828925e-05 3.0625922 0.00040329831)
(-0.00011045461 3.0625379 0.0004043316)
(3.6618913e-05 3.0626548 0.00040427796)
(-0.00010075105 3.0626127 0.00040413464)
(5.6720449e-05 3.0626568 0.00040367066)
(-5.6720474e-05 3.0626568 0.00040367066)
(0.00010075105 3.0626127 0.00040413464)
(-3.6618873e-05 3.0626548 0.00040427797)
(0.00011045468 3.0625379 0.0004043316)
(-4.7828847e-05 3.0625922 0.00040329831)
(0.00017894414 3.0625239 0.00040491689)
(-4.5631623e-06 3.0624082 0.00040579509)
(0.00036410773 3.0626812 0.00040587057)
(4.8420995e-05 3.0619114 0.00041926873)
(-0.00075530245 3.0501506 0.00038903294)
(0.0010035102 -3.4630306 0.00073016856)
(0.00015410322 -3.479874 0.00072057684)
(5.1123658e-05 -3.4789544 0.00073065355)
(6.2994565e-05 -3.4794898 0.00073335013)
(-0.00011050306 -3.4791002 0.00073181697)
(0.00010379577 -3.4794174 0.00073182302)
(-0.00010073644 -3.4792037 0.00073073233)
(0.0001479958 -3.4793583 0.00073121605)
(-0.00012308589 -3.479217 0.00073165831)
(0.0001475635 -3.4792591 0.00073209671)
(-0.00014756356 -3.4792591 0.00073209671)
(0.00012308585 -3.479217 0.00073165831)
(-0.00014799582 -3.4793583 0.00073121604)
(0.00010073645 -3.4792037 0.00073073233)
(-0.0001037958 -3.4794174 0.00073182302)
(0.00011050311 -3.4791002 0.00073181697)
(-6.2994543e-05 -3.4794898 0.00073335012)
(-5.1123711e-05 -3.4789544 0.00073065354)
(-0.00015410303 -3.479874 0.00072057681)
(-0.00100351 -3.4630306 0.00073016854)
(4.3103629e-05 4.16895 -0.00058684491)
(-0.00016971693 4.1866414 -0.00059500229)
(-0.00020698274 4.186765 -0.00059378835)
(-0.00011211294 4.1868597 -0.00059755876)
(-0.00015532241 4.1868478 -0.00059489922)
(-4.1393721e-05 4.1869846 -0.00059500054)
(-7.1337916e-05 4.1868728 -0.00059391232)
(8.7865369e-06 4.1870277 -0.00059463619)
(-2.2859017e-05 4.1869398 -0.00059506276)
(1.0531086e-05 4.186993 -0.00059547787)
(-1.0530979e-05 4.186993 -0.00059547787)
(2.2859118e-05 4.1869398 -0.00059506276)
(-8.7864174e-06 4.1870277 -0.00059463619)
(7.133805e-05 4.1868728 -0.00059391233)
(4.1393841e-05 4.1869846 -0.00059500054)
(0.0001553225 4.1868478 -0.00059489921)
(0.00011211301 4.1868597 -0.00059755875)
(0.00020698274 4.186765 -0.00059378836)
(0.00016971697 4.1866414 -0.00059500229)
(-4.3103599e-05 4.16895 -0.00058684494)
(0.00075840774 -4.8169057 0.00061978765)
(3.197479e-05 -4.8392329 0.00062413878)
(0.00036635714 -4.8387036 0.0006289118)
(0.00014905428 -4.8391282 0.00063069046)
(1.6166879e-05 -4.8386477 0.00062870349)
(0.000148021 -4.8389931 0.00062724029)
(-7.2099176e-05 -4.8386848 0.00062791201)
(0.00023345244 -4.8389617 0.00062766562)
(-0.00017565727 -4.8388231 0.00062767473)
(0.00022170818 -4.838922 0.00062750189)
(-0.00022170825 -4.838922 0.00062750189)
(0.00017565722 -4.8388231 0.00062767473)
(-0.00023345247 -4.8389617 0.00062766562)
(7.2099227e-05 -4.8386848 0.000627912)
(-0.000148021 -4.8389931 0.00062724027)
(-1.6166874e-05 -4.8386477 0.00062870348)
(-0.0001490544 -4.8391282 0.00063069046)
(-0.00036635766 -4.8387036 0.0006289118)
(-3.1975095e-05 -4.8392329 0.00062413878)
(-0.00075840776 -4.8169057 0.00061978763)
(-0.00035724962 5.6443897 -0.00053814242)
(-0.00010603516 5.669958 -0.00054348895)
(-0.00017029046 5.669158 -0.00054314118)
(-6.7067988e-05 5.6699529 -0.00054260456)
(-8.9006414e-05 5.6691908 -0.00054288717)
(-9.1770234e-05 5.6698804 -0.00054289321)
(-6.5889706e-05 5.6693703 -0.00054351883)
(-0.00016294433 5.6697623 -0.0005435854)
(2.8413087e-05 5.6695114 -0.00054341104)
(-0.00011867862 5.6696493 -0.00054317186)
(0.00011867874 5.6696493 -0.00054317186)
(-2.8412956e-05 5.6695114 -0.00054341104)
(0.00016294448 5.6697623 -0.0005435854)
(6.588984e-05 5.6693703 -0.00054351883)
(9.1770386e-05 5.6698804 -0.0005428932)
(8.9006417e-05 5.6691908 -0.00054288716)
(6.7068167e-05 5.6699529 -0.00054260452)
(0.00017029089 5.669158 -0.00054314116)
(0.00010603527 5.669958 -0.0005434889)
(0.00035724954 5.6443897 -0.00053814238)
(0.0016774425 -6.8124853 0.00042130514)
(-0.0002932846 -6.8442455 0.0004190887)
(0.0003866186 -6.8429878 0.00043332855)
(0.00022682944 -6.8441041 0.00043782785)
(-6.1271766e-05 -6.8432007 0.00043517017)
(0.00041781242 -6.8439721 0.00043200486)
(-0.00023361467 -6.8434027 0.00043184585)
(0.00048493719 -6.8438237 0.00043049022)
(-0.0003643005 -6.8435318 0.00043111275)
(0.00046132436 -6.8436672 0.00043107978)
(-0.00046132437 -6.8436672 0.00043107978)
(0.00036430054 -6.8435318 0.00043111274)
(-0.00048493715 -6.8438237 0.00043049021)
(0.00023361487 -6.8434027 0.00043184584)
(-0.00041781258 -6.8439721 0.00043200485)
(6.1270829e-05 -6.8432007 0.00043517032)
(-0.00022682958 -6.8441041 0.00043782851)
(-0.0003866182 -6.8429878 0.00043332879)
(0.00029328422 -6.8442455 0.00041908924)
(-0.0016774429 -6.8124853 0.00042130528)
(-0.0012883593 7.8233974 -0.00031926312)
(0.0001488238 7.8620026 -0.00031991051)
(-0.00040762207 7.8588504 -0.00032751568)
(-0.00023478643 7.8613171 -0.00032765682)
(-7.9361867e-05 7.8593988 -0.00032765489)
(-0.0003873681 7.8608965 -0.00032621826)
(9.3398273e-05 7.8597653 -0.00032617109)
(-0.00041461601 7.8605564 -0.00032551574)
(0.00027448736 7.8600276 -0.00032575486)
(-0.00037644333 7.8602702 -0.00032577833)
(0.00037644334 7.8602702 -0.00032577833)
(-0.00027448741 7.8600276 -0.00032575486)
(0.00041461592 7.8605564 -0.00032551573)
(-9.3398552e-05 7.8597653 -0.00032617108)
(0.00038736815 7.8608965 -0.00032621825)
(7.9362459e-05 7.8593988 -0.00032765496)
(0.00023478652 7.8613171 -0.00032765709)
(0.00040762186 7.8588504 -0.0003275158)
(-0.00014882344 7.8620026 -0.00031991073)
(0.0012883597 7.8233974 -0.00031926316)
(-0.0010525056 -9.2016842 -0.010982089)
(0.0015449155 -9.248002 -0.011023498)
(-0.00096908095 -9.2444299 -0.011041952)
(0.0013960185 -9.2473429 -0.011039201)
(-0.00091194398 -9.2449973 -0.01103936)
(0.0012606909 -9.2468351 -0.01104002)
(-0.0009578529 -9.2454044 -0.011039516)
(0.0011380515 -9.2464047 -0.011039766)
(-0.0010234905 -9.2457332 -0.011039547)
(0.0010669511 -9.2460494 -0.011039628)
(-0.0010669511 -9.2460494 -0.011039628)
(0.0010234904 -9.2457332 -0.011039547)
(-0.0011380516 -9.2464047 -0.011039766)
(0.00095785278 -9.2454044 -0.011039516)
(-0.001260691 -9.2468351 -0.01104002)
(0.00091194399 -9.2449973 -0.01103936)
(-0.0013960184 -9.2473429 -0.011039201)
(0.0009690809 -9.2444299 -0.011041952)
(-0.0015449155 -9.248002 -0.011023498)
(0.0010525056 -9.2016842 -0.010982089)
(-0.0083338864 2.2183191 0.0047801977)
(0.00035019865 2.224802 0.0047006928)
(-0.00084397278 2.2264996 0.0047476211)
(0.00011416977 2.2265197 0.0047473712)
(-0.00022755716 2.2265308 0.004752685)
(8.4703234e-05 2.2265998 0.0047540467)
(-0.00013814644 2.2265237 0.0047547179)
(5.2689831e-05 2.2266229 0.00475476)
(-0.00012157033 2.2265912 0.0047548598)
(8.4584142e-05 2.2266352 0.0047549884)
(-8.4584324e-05 2.2266352 0.0047549884)
(0.00012157023 2.2265912 0.0047548598)
(-5.2689852e-05 2.2266229 0.00475476)
(0.00013814648 2.2265237 0.0047547179)
(-8.4703164e-05 2.2265998 0.0047540467)
(0.00022755717 2.2265308 0.004752685)
(-0.00011416983 2.2265197 0.0047473712)
(0.00084397277 2.2264996 0.004747621)
(-0.0003501984 2.224802 0.0047006928)
(0.0083338866 2.2183191 0.0047801974)
(0.0018138127 -2.5738895 0.0027132076)
(0.00043312963 -2.5884065 0.0028552314)
(-0.00046274166 -2.5865873 0.0027998059)
(0.00014954812 -2.5870421 0.0027999919)
(-0.00022196642 -2.5867458 0.0027995574)
(8.7304932e-05 -2.5869662 0.0027997611)
(-0.00013589954 -2.5868072 0.0027990393)
(9.0072373e-05 -2.5869164 0.0027991996)
(-0.00012060691 -2.5868296 0.0027990268)
(0.00011021737 -2.5868768 0.0027991855)
(-0.00011021757 -2.5868768 0.0027991855)
(0.00012060679 -2.5868296 0.0027990268)
(-9.0072419e-05 -2.5869164 0.0027991996)
(0.00013589957 -2.5868072 0.0027990393)
(-8.7304858e-05 -2.5869662 0.0027997611)
(0.00022196646 -2.5867458 0.0027995574)
(-0.00014954805 -2.5870421 0.0027999919)
(0.00046274163 -2.5865873 0.0027998059)
(-0.00043312951 -2.5884065 0.0028552315)
(-0.0018138126 -2.5738895 0.0027132077)
(0.0007811401 3.100728 0.00058064362)
(-4.2087042e-05 3.1126723 0.00061008544)
(-0.00037584401 3.1135114 0.00059608775)
(4.7227155e-06 3.1132342 0.00059615498)
(-0.00018303358 3.1133535 0.00059518894)
(4.8138387e-05 3.1134222 0.00059357726)
(-0.00011166145 3.1133675 0.00059460553)
(3.7246991e-05 3.1134859 0.00059454794)
(-0.00010221461 3.1134436 0.00059441539)
(5.739237e-05 3.1134883 0.00059395291)
(-5.7392391e-05 3.1134883 0.00059395291)
(0.00010221461 3.1134436 0.00059441539)
(-3.724695e-05 3.1134859 0.00059454795)
(0.00011166152 3.1133675 0.00059460553)
(-4.8138309e-05 3.1134222 0.00059357726)
(0.00018303366 3.1133535 0.00059518894)
(-4.7226244e-06 3.1132342 0.000596155)
(0.00037584401 3.1135114 0.00059608783)
(4.2087104e-05 3.1126723 0.00061008551)
(-0.00078114002 3.100728 0.00058064385)
(0.0010096897 -3.5266926 0.00052565589)
(0.00015225936 -3.5440166 0.00051132439)
(5.9339505e-05 -3.5430598 0.00052189606)
(6.4808778e-05 -3.5436076 0.00052438776)
(-0.00011199939 -3.5432079 0.00052299501)
(0.00010486019 -3.5435283 0.00052294855)
(-0.00010252804 -3.5433117 0.00052190204)
(0.00015023615 -3.543469 0.00052235925)
(-0.00012443252 -3.5433265 0.00052281162)
(0.00014962972 -3.5433692 0.00052324037)
(-0.00014962979 -3.5433692 0.00052324037)
(0.00012443248 -3.5433265 0.00052281162)
(-0.00015023617 -3.543469 0.00052235924)
(0.00010252804 -3.5433117 0.00052190204)
(-0.00010486022 -3.5435283 0.00052294854)
(0.00011199944 -3.5432079 0.00052299502)
(-6.4808757e-05 -3.5436076 0.00052438776)
(-5.9339567e-05 -3.5430598 0.00052189606)
(-0.00015225919 -3.5440166 0.00051132435)
(-0.0010096896 -3.5266926 0.0005256558)
(4.0290914e-05 4.2405536 -0.000370565)
(-0.00017491293 4.258712 -0.00037765402)
(-0.00021120065 4.2588293 -0.00037670399)
(-0.00011324177 4.2589255 -0.00038035637)
(-0.00015638718 4.2589115 -0.00037776655)
(-4.1147899e-05 4.2590501 -0.0003778496)
(-7.2481151e-05 4.2589375 -0.00037676174)
(8.1587229e-06 4.2590942 -0.00037749043)
(-2.3932751e-05 4.2590047 -0.00037791372)
(1.0547282e-05 4.2590583 -0.00037833326)
(-1.0547176e-05 4.2590583 -0.00037833326)
(2.3932853e-05 4.2590047 -0.00037791372)
(-8.1586064e-06 4.2590942 -0.00037749043)
(7.2481289e-05 4.2589375 -0.00037676174)
(4.1148021e-05 4.2590501 -0.0003778496)
(0.00015638727 4.2589115 -0.00037776653)
(0.00011324184 4.2589255 -0.00038035635)
(0.00021120066 4.2588293 -0.00037670397)
(0.00017491296 4.258712 -0.00037765403)
(-4.0290898e-05 4.2405536 -0.0003705651)
(0.00077008369 -4.9041963 0.00040511169)
(3.3459141e-05 -4.9271076 0.00040555659)
(0.00037442981 -4.9265664 0.00041047539)
(0.00015027035 -4.9269994 0.00041216838)
(1.5137927e-05 -4.9265115 0.00041023817)
(0.00015020802 -4.9268646 0.00040876288)
(-7.3395557e-05 -4.9265513 0.00040944057)
(0.00023638133 -4.926832 0.00040920159)
(-0.00017830388 -4.9266904 0.00040921257)
(0.00022461697 -4.9267903 0.00040903826)
(-0.00022461704 -4.9267903 0.00040903826)
(0.00017830382 -4.9266904 0.00040921257)
(-0.00023638137 -4.926832 0.00040920158)
(7.3395595e-05 -4.9265513 0.00040944056)
(-0.00015020801 -4.9268646 0.00040876286)
(-1.5137911e-05 -4.9265115 0.00041023816)
(-0.00015027047 -4.9269994 0.00041216837)
(-0.00037443032 -4.9265664 0.00041047539)
(-3.3459455e-05 -4.9271076 0.00040555658)
(-0.00077008372 -4.9041963 0.00040511167)
(-0.00036566034 5.7442534 -0.00032624295)
(-0.00010865966 5.7704626 -0.00032891005)
(-0.00017324986 5.76966 -0.00032855141)
(-6.8709578e-05 5.770465 -0.00032805408)
(-9.1019155e-05 5.7696947 -0.00032829836)
(-9.3922269e-05 5.7703907 -0.00032834618)
(-6.6687259e-05 5.7698749 -0.00032894694)
(-0.00016457652 5.7702706 -0.00032903578)
(2.9208297e-05 5.7700173 -0.00032885302)
(-0.00011983246 5.7701566 -0.00032861894)
(0.00011983258 5.7701566 -0.00032861894)
(-2.9208167e-05 5.7700173 -0.00032885302)
(0.00016457668 5.7702706 -0.00032903578)
(6.6687398e-05 5.7698749 -0.00032894694)
(9.3922426e-05 5.7703907 -0.00032834617)
(9.1019174e-05 5.7696947 -0.00032829835)
(6.8709763e-05 5.770465 -0.00032805403)
(0.00017325029 5.76966 -0.00032855138)
(0.00010865979 5.7704626 -0.00032890999)
(0.00036566026 5.7442534 -0.00032624288)
(0.0016987708 -6.9342815 0.00021045499)
(-0.0002936268 -6.9668906 0.00020173923)
(0.00040253146 -6.9655994 0.00021554055)
(0.00023165083 -6.9667345 0.00022022537)
(-6.4617078e-05 -6.9658175 0.00021747549)
(0.00042203135 -6.9666026 0.00021433613)
(-0.00023797465 -6.9660221 0.00021418031)
(0.00049081881 -6.9664504 0.00021280555)
(-0.00036913549 -6.9661539 0.00021344697)
(0.00046723367 -6.9662917 0.00021340337)
(-0.00046723368 -6.9662917 0.00021340336)
(0.00036913552 -6.9661539 0.00021344697)
(-0.00049081878 -6.9664504 0.00021280554)
(0.00023797485 -6.9660221 0.0002141803)
(-0.00042203143 -6.9666026 0.00021433611)
(6.4616487e-05 -6.9658175 0.00021747563)
(-0.00023165094 -6.9667345 0.00022022603)
(-0.00040253111 -6.9655994 0.00021554079)
(0.00029362638 -6.9668906 0.00020173977)
(-0.0016987714 -6.9342815 0.00021045514)
(-0.0013068049 7.9640065 -3.6744642e-05)
(0.00015011474 8.0035389 -3.0899522e-05)
(-0.00041801849 8.0003502 -3.7897843e-05)
(-0.00023811722 8.0028436 -3.8258713e-05)
(-7.9617187e-05 8.0009036 -3.8178261e-05)
(-0.00039156963 8.0024144 -3.6725933e-05)
(9.575696e-05 8.0012745 -3.673018e-05)
(-0.00041958116 8.0020727 -3.6012926e-05)
(0.0002780541 8.0015394 -3.6302475e-05)
(-0.00038114889 8.0017841 -3.6298051e-05)
(0.00038114891 8.0017841 -3.629805e-05)
(-0.00027805414 8.0015394 -3.6302471e-05)
(0.00041958107 8.0020727 -3.6012917e-05)
(-9.5757236e-05 8.0012745 -3.6730172e-05)
(0.00039156964 8.0024144 -3.672592e-05)
(7.961764e-05 8.0009036 -3.8178338e-05)
(0.0002381173 8.0028436 -3.8258972e-05)
(0.0004180183 8.0003502 -3.7897962e-05)
(-0.00015011434 8.0035389 -3.089974e-05)
(0.0013068054 7.9640065 -3.6744687e-05)
(-0.0012167414 -9.3717673 0.011459443)
(0.0015947758 -9.419283 0.011577981)
(-0.00099094814 -9.4156583 0.011553808)
(0.0014161727 -9.4186088 0.011561022)
(-0.00092517692 -9.4162337 0.011557353)
(0.0012769809 -9.4180943 0.011559333)
(-0.00097025361 -9.4166465 0.011557817)
(0.0011526752 -9.4176591 0.011558982)
(-0.0010362051 -9.4169796 0.011558269)
(0.0010803957 -9.4172996 0.011558637)
(-0.0010803957 -9.4172996 0.011558637)
(0.001036205 -9.4169796 0.011558269)
(-0.0011526752 -9.4176591 0.011558982)
(0.0009702535 -9.4166465 0.011557817)
(-0.0012769809 -9.4180943 0.011559333)
(0.00092517693 -9.4162337 0.011557353)
(-0.0014161727 -9.4186088 0.011561022)
(0.00099094808 -9.4156583 0.011553808)
(-0.0015947758 -9.419283 0.011577981)
(0.0012167415 -9.3717673 0.011459443)
(-0.0083338864 2.2183191 -0.004780197)
(0.00035019869 2.224802 -0.0047006921)
(-0.00084397277 2.2264996 -0.0047476203)
(0.00011416977 2.2265197 -0.0047473704)
(-0.00022755717 2.2265308 -0.0047526842)
(8.4703233e-05 2.2265998 -0.0047540459)
(-0.00013814644 2.2265237 -0.0047547171)
(5.2689834e-05 2.2266229 -0.0047547592)
(-0.00012157033 2.2265912 -0.004754859)
(8.4584142e-05 2.2266352 -0.0047549876)
(-8.4584327e-05 2.2266352 -0.0047549876)
(0.00012157023 2.2265912 -0.004754859)
(-5.2689854e-05 2.2266229 -0.0047547592)
(0.00013814648 2.2265237 -0.0047547171)
(-8.4703158e-05 2.2265998 -0.0047540459)
(0.00022755716 2.2265308 -0.0047526842)
(-0.00011416983 2.2265197 -0.0047473704)
(0.00084397275 2.2264996 -0.0047476202)
(-0.00035019855 2.224802 -0.0047006922)
(0.0083338865 2.2183191 -0.0047801976)
(0.0018138128 -2.5738895 -0.0027132083)
(0.00043312964 -2.5884065 -0.0028552319)
(-0.00046274166 -2.5865873 -0.0027998064)
(0.00014954814 -2.5870421 -0.0027999923)
(-0.00022196643 -2.5867458 -0.0027995579)
(8.7304928e-05 -2.5869662 -0.0027997616)
(-0.00013589954 -2.5868072 -0.0027990398)
(9.0072375e-05 -2.5869164 -0.0027992001)
(-0.00012060691 -2.5868296 -0.0027990273)
(0.00011021737 -2.5868768 -0.0027991859)
(-0.00011021757 -2.5868768 -0.0027991859)
(0.00012060679 -2.5868296 -0.0027990273)
(-9.007242e-05 -2.5869164 -0.0027992001)
(0.00013589957 -2.5868072 -0.0027990398)
(-8.7304858e-05 -2.5869662 -0.0027997616)
(0.00022196648 -2.5867458 -0.0027995579)
(-0.00014954806 -2.5870421 -0.0027999924)
(0.00046274165 -2.5865873 -0.0027998065)
(-0.00043312948 -2.5884065 -0.0028552318)
(-0.0018138126 -2.5738895 -0.002713208)
(0.00078114007 3.100728 -0.00058064618)
(-4.2087061e-05 3.1126723 -0.00061008791)
(-0.000375844 3.1135114 -0.00059609025)
(4.7227192e-06 3.1132342 -0.00059615745)
(-0.00018303359 3.1133535 -0.00059519147)
(4.8138383e-05 3.1134222 -0.00059357981)
(-0.00011166145 3.1133675 -0.00059460809)
(3.7246992e-05 3.1134859 -0.0005945505)
(-0.0001022146 3.1134436 -0.00059441794)
(5.7392371e-05 3.1134883 -0.00059395546)
(-5.7392392e-05 3.1134883 -0.00059395546)
(0.0001022146 3.1134436 -0.00059441794)
(-3.7246952e-05 3.1134859 -0.00059455051)
(0.00011166152 3.1133675 -0.0005946081)
(-4.8138308e-05 3.1134222 -0.00059357982)
(0.00018303368 3.1133535 -0.00059519149)
(-4.7226102e-06 3.1132342 -0.00059615746)
(0.00037584402 3.1135114 -0.00059609027)
(4.2087193e-05 3.1126723 -0.00061008782)
(-0.00078113993 3.100728 -0.00058064589)
(0.0010096898 -3.5266926 -0.00052565945)
(0.00015225941 -3.5440166 -0.0005113276)
(5.9339481e-05 -3.5430598 -0.00052189931)
(6.4808757e-05 -3.5436076 -0.00052439112)
(-0.00011199941 -3.5432079 -0.00052299843)
(0.00010486019 -3.5435283 -0.00052295197)
(-0.00010252804 -3.5433117 -0.00052190547)
(0.00015023615 -3.543469 -0.00052236268)
(-0.00012443252 -3.5433265 -0.00052281505)
(0.00014962972 -3.5433692 -0.0005232438)
(-0.00014962979 -3.5433692 -0.0005232438)
(0.00012443248 -3.5433265 -0.00052281505)
(-0.00015023617 -3.543469 -0.00052236268)
(0.00010252805 -3.5433117 -0.00052190547)
(-0.00010486021 -3.5435283 -0.00052295196)
(0.00011199945 -3.5432079 -0.0005229984)
(-6.4808735e-05 -3.5436076 -0.00052439109)
(-5.9339551e-05 -3.5430598 -0.00052189929)
(-0.00015225927 -3.5440166 -0.0005113276)
(-0.0010096896 -3.5266926 -0.0005256596)
(4.0290928e-05 4.2405536 0.00037056346)
(-0.00017491292 4.258712 0.00037765253)
(-0.00021120067 4.2588293 0.00037670247)
(-0.00011324177 4.2589255 0.00038035485)
(-0.00015638717 4.2589115 0.00037776502)
(-4.1147897e-05 4.2590501 0.00037784808)
(-7.2481154e-05 4.2589375 0.00037676021)
(8.1587239e-06 4.2590942 0.00037748889)
(-2.3932749e-05 4.2590047 0.00037791218)
(1.0547283e-05 4.2590583 0.00037833173)
(-1.0547177e-05 4.2590583 0.00037833173)
(2.393285e-05 4.2590047 0.00037791218)
(-8.1586048e-06 4.2590942 0.00037748889)
(7.2481294e-05 4.2589375 0.00037676021)
(4.1148026e-05 4.2590501 0.00037784809)
(0.00015638727 4.2589115 0.00037776503)
(0.00011324184 4.2589255 0.00038035487)
(0.00021120066 4.2588293 0.00037670248)
(0.00017491291 4.258712 0.0003776525)
(-4.0290941e-05 4.2405536 0.0003705633)
(0.00077008367 -4.9041963 -0.00040511227)
(3.3459127e-05 -4.9271076 -0.00040555731)
(0.00037442981 -4.9265664 -0.00041047609)
(0.00015027036 -4.9269994 -0.00041216905)
(1.5137925e-05 -4.9265115 -0.00041023883)
(0.00015020802 -4.9268646 -0.00040876354)
(-7.3395559e-05 -4.9265513 -0.00040944123)
(0.00023638133 -4.926832 -0.00040920225)
(-0.00017830388 -4.9266904 -0.00040921325)
(0.00022461697 -4.9267903 -0.00040903894)
(-0.00022461704 -4.9267903 -0.00040903894)
(0.00017830382 -4.9266904 -0.00040921325)
(-0.00023638137 -4.926832 -0.00040920225)
(7.3395595e-05 -4.9265513 -0.00040944122)
(-0.00015020801 -4.9268646 -0.00040876352)
(-1.5137912e-05 -4.9265115 -0.00041023883)
(-0.00015027047 -4.9269994 -0.00041216906)
(-0.00037443033 -4.9265664 -0.00041047609)
(-3.345944e-05 -4.9271076 -0.00040555731)
(-0.0007700837 -4.9041963 -0.00040511226)
(-0.00036566034 5.7442534 0.00032624302)
(-0.00010865966 5.7704626 0.00032891013)
(-0.00017324986 5.76966 0.00032855147)
(-6.8709578e-05 5.770465 0.00032805415)
(-9.1019153e-05 5.7696947 0.00032829843)
(-9.3922271e-05 5.7703907 0.00032834625)
(-6.668726e-05 5.7698749 0.000328947)
(-0.00016457651 5.7702706 0.00032903585)
(2.9208297e-05 5.7700173 0.00032885311)
(-0.00011983246 5.7701566 0.00032861903)
(0.00011983258 5.7701566 0.00032861903)
(-2.9208171e-05 5.7700173 0.00032885311)
(0.00016457667 5.7702706 0.00032903585)
(6.6687396e-05 5.7698749 0.000328947)
(9.3922427e-05 5.7703907 0.00032834624)
(9.1019173e-05 5.7696947 0.00032829843)
(6.8709764e-05 5.770465 0.00032805411)
(0.0001732503 5.76966 0.00032855146)
(0.0001086598 5.7704626 0.00032891011)
(0.00036566027 5.7442534 0.00032624303)
(0.0016987708 -6.9342815 -0.00021045488)
(-0.00029362679 -6.9668906 -0.00020173909)
(0.00040253147 -6.9655994 -0.00021554034)
(0.00023165083 -6.9667345 -0.00022022519)
(-6.4617076e-05 -6.9658175 -0.00021747528)
(0.00042203135 -6.9666026 -0.00021433592)
(-0.00023797465 -6.9660221 -0.00021418009)
(0.00049081882 -6.9664504 -0.00021280534)
(-0.00036913549 -6.9661539 -0.00021344675)
(0.00046723367 -6.9662917 -0.00021340314)
(-0.00046723368 -6.9662917 -0.00021340313)
(0.00036913552 -6.9661539 -0.00021344675)
(-0.00049081878 -6.9664504 -0.00021280533)
(0.00023797485 -6.9660221 -0.00021418009)
(-0.00042203143 -6.9666026 -0.0002143359)
(6.4616486e-05 -6.9658175 -0.00021747542)
(-0.00023165094 -6.9667345 -0.00022022584)
(-0.00040253113 -6.9655994 -0.00021554058)
(0.00029362637 -6.9668906 -0.00020173963)
(-0.0016987714 -6.9342815 -0.00021045502)
(-0.0013068049 7.9640065 3.6744701e-05)
(0.00015011473 8.0035389 3.0899602e-05)
(-0.0004180185 8.0003502 3.7897836e-05)
(-0.00023811723 8.0028436 3.8258698e-05)
(-7.961719e-05 8.0009036 3.8178225e-05)
(-0.00039156963 8.0024144 3.6725889e-05)
(9.5756962e-05 8.0012745 3.6730147e-05)
(-0.00041958116 8.0020727 3.6012895e-05)
(0.0002780541 8.0015394 3.630244e-05)
(-0.00038114889 8.0017841 3.6298015e-05)
(0.00038114891 8.0017841 3.6298015e-05)
(-0.00027805414 8.0015394 3.6302438e-05)
(0.00041958107 8.0020727 3.6012886e-05)
(-9.5757239e-05 8.0012745 3.6730137e-05)
(0.00039156964 8.0024144 3.6725872e-05)
(7.9617644e-05 8.0009036 3.8178301e-05)
(0.0002381173 8.0028436 3.8258954e-05)
(0.00041801832 8.0003502 3.7897955e-05)
(-0.00015011433 8.0035389 3.0899825e-05)
(0.0013068054 7.9640065 3.6744752e-05)
(-0.0012167414 -9.3717673 -0.011459443)
(0.0015947758 -9.419283 -0.011577981)
(-0.00099094813 -9.4156583 -0.011553808)
(0.0014161727 -9.4186088 -0.011561022)
(-0.00092517691 -9.4162337 -0.011557353)
(0.0012769809 -9.4180943 -0.011559333)
(-0.00097025361 -9.4166465 -0.011557817)
(0.0011526752 -9.4176591 -0.011558982)
(-0.0010362051 -9.4169796 -0.011558269)
(0.0010803957 -9.4172996 -0.011558637)
(-0.0010803957 -9.4172996 -0.011558637)
(0.001036205 -9.4169796 -0.011558269)
(-0.0011526752 -9.4176591 -0.011558982)
(0.0009702535 -9.4166465 -0.011557817)
(-0.0012769809 -9.4180943 -0.011559333)
(0.00092517693 -9.4162337 -0.011557353)
(-0.0014161727 -9.4186088 -0.011561022)
(0.00099094808 -9.4156583 -0.011553808)
(-0.0015947758 -9.419283 -0.011577981)
(0.0012167415 -9.3717673 -0.011459443)
(-0.0080538557 2.1904909 0.015203043)
(0.00036824131 2.1967935 0.015404582)
(-0.00085761524 2.1984987 0.015372559)
(0.00011007294 2.1985233 0.015372225)
(-0.00022789625 2.1985359 0.015367375)
(8.2662486e-05 2.1986057 0.015366607)
(-0.00013675448 2.1985309 0.015365513)
(5.1571585e-05 2.1986295 0.015366008)
(-0.00012033403 2.1985986 0.015365595)
(8.3348099e-05 2.1986426 0.015365669)
(-8.3348281e-05 2.1986426 0.015365669)
(0.00012033393 2.1985986 0.015365595)
(-5.1571602e-05 2.1986295 0.015366008)
(0.00013675452 2.1985309 0.015365513)
(-8.2662407e-05 2.1986057 0.015366607)
(0.00022789625 2.1985359 0.015367375)
(-0.00011007298 2.1985233 0.015372225)
(0.0008576152 2.1984987 0.015372559)
(-0.00036824134 2.1967935 0.015404581)
(0.0080538557 2.1904909 0.015203043)
(0.0017136451 -2.5217468 -0.002693077)
(0.00038885844 -2.5358978 -0.0028428644)
(-0.00042990937 -2.5340908 -0.0027860422)
(0.00014787535 -2.5345407 -0.0027864686)
(-0.000219172 -2.5342424 -0.0027858602)
(8.6291452e-05 -2.5344579 -0.0027861329)
(-0.00013382347 -2.5343011 -0.002785364)
(8.8787204e-05 -2.5344084 -0.0027855503)
(-0.00011906907 -2.5343222 -0.0027853623)
(0.00010873865 -2.5343681 -0.0027855285)
(-0.00010873884 -2.5343681 -0.0027855285)
(0.00011906895 -2.5343222 -0.0027853623)
(-8.878725e-05 -2.5344084 -0.0027855503)
(0.0001338235 -2.5343011 -0.002785364)
(-8.6291388e-05 -2.5344579 -0.0027861329)
(0.00021917205 -2.5342424 -0.0027858602)
(-0.0001478753 -2.5345407 -0.0027864686)
(0.00042990937 -2.5340908 -0.0027860423)
(-0.00038885817 -2.5358978 -0.0028428644)
(-0.0017136449 -2.5217468 -0.0026930768)
(0.00075530259 3.0501506 -0.00038903418)
(-4.842088e-05 3.0619114 -0.00041926979)
(-0.00036410775 3.0626812 -0.00040587165)
(4.5632111e-06 3.0624082 -0.00040579622)
(-0.0001789441 3.0625239 -0.00040491806)
(4.7828915e-05 3.0625922 -0.00040329948)
(-0.00011045461 3.0625379 -0.00040433278)
(3.6618918e-05 3.0626547 -0.00040427914)
(-0.00010075105 3.0626127 -0.00040413581)
(5.6720451e-05 3.0626568 -0.00040367183)
(-5.6720474e-05 3.0626568 -0.00040367183)
(0.00010075105 3.0626127 -0.00040413582)
(-3.6618879e-05 3.0626547 -0.00040427915)
(0.00011045468 3.0625379 -0.00040433278)
(-4.7828844e-05 3.0625922 -0.00040329949)
(0.00017894418 3.0625239 -0.00040491807)
(-4.5631211e-06 3.0624082 -0.00040579623)
(0.0003641078 3.0626812 -0.0004058717)
(4.8421102e-05 3.0619114 -0.00041926974)
(-0.0007553024 3.0501506 -0.00038903404)
(0.0010035104 -3.4630306 -0.00073016997)
(0.00015410333 -3.479874 -0.0007205781)
(5.1123609e-05 -3.4789544 -0.00073065482)
(6.2994505e-05 -3.4794898 -0.00073335144)
(-0.00011050308 -3.4791002 -0.00073181831)
(0.00010379577 -3.4794174 -0.00073182437)
(-0.00010073644 -3.4792037 -0.00073073368)
(0.0001479958 -3.4793583 -0.00073121739)
(-0.00012308589 -3.479217 -0.00073165966)
(0.00014756349 -3.4792591 -0.00073209806)
(-0.00014756356 -3.4792591 -0.00073209806)
(0.00012308585 -3.479217 -0.00073165966)
(-0.00014799582 -3.4793583 -0.00073121739)
(0.00010073645 -3.4792037 -0.00073073368)
(-0.00010379578 -3.4794174 -0.00073182436)
(0.00011050314 -3.4791002 -0.00073181829)
(-6.2994487e-05 -3.4794898 -0.00073335142)
(-5.1123685e-05 -3.4789544 -0.00073065481)
(-0.00015410324 -3.479874 -0.0007205781)
(-0.0010035102 -3.4630306 -0.00073017004)
(4.3103642e-05 4.16895 0.00058684416)
(-0.00016971692 4.1866414 0.00059500155)
(-0.00020698275 4.186765 0.0005937876)
(-0.00011211295 4.1868597 0.00059755801)
(-0.00015532241 4.1868478 0.00059489847)
(-4.139372e-05 4.1869846 0.0005949998)
(-7.133792e-05 4.1868728 0.00059391157)
(8.7865351e-06 4.1870277 0.00059463544)
(-2.2859018e-05 4.1869398 0.00059506201)
(1.0531085e-05 4.186993 0.00059547712)
(-1.053098e-05 4.186993 0.00059547712)
(2.2859117e-05 4.1869398 0.00059506201)
(-8.786414e-06 4.1870277 0.00059463544)
(7.1338062e-05 4.1868728 0.00059391157)
(4.1393851e-05 4.1869846 0.0005949998)
(0.00015532251 4.1868478 0.00059489848)
(0.00011211301 4.1868597 0.00059755802)
(0.00020698272 4.186765 0.00059378761)
(0.00016971686 4.1866414 0.00059500152)
(-4.3103688e-05 4.16895 0.00058684408)
(0.00075840768 -4.8169057 -0.00061978793)
(3.1974746e-05 -4.8392329 -0.00062413913)
(0.00036635716 -4.8387036 -0.00062891214)
(0.0001490543 -4.8391282 -0.00063069079)
(1.6166887e-05 -4.8386477 -0.0006287038)
(0.000148021 -4.8389931 -0.00062724061)
(-7.2099181e-05 -4.8386848 -0.00062791232)
(0.00023345243 -4.8389617 -0.00062766594)
(-0.00017565728 -4.8388231 -0.00062767506)
(0.00022170818 -4.838922 -0.00062750222)
(-0.00022170825 -4.838922 -0.00062750222)
(0.00017565722 -4.8388231 -0.00062767506)
(-0.00023345247 -4.8389617 -0.00062766594)
(7.209923e-05 -4.8386848 -0.00062791232)
(-0.000148021 -4.8389931 -0.00062724059)
(-1.6166883e-05 -4.8386477 -0.0006287038)
(-0.00014905442 -4.8391282 -0.00063069079)
(-0.00036635767 -4.8387036 -0.00062891213)
(-3.1975053e-05 -4.8392329 -0.00062413913)
(-0.00075840771 -4.8169057 -0.00061978791)