/*--------------------------------*- C++ -*----------------------------------*\
  =========                 |
  \\      /  F ield         | OpenFOAM: The Open Source CFD Toolbox
   \\    /   O peration     | Website:  https://openfoam.org
    \\  /    A nd           | Version:  8
     \\/     M anipulation  |
\*---------------------------------------------------------------------------*/
FoamFile
{
    version     2.0;
    format      ascii;
    class       surfaceScalarField;
    location    "0.5";
    object      phi;
}
// * * * * * * * * * * * * * * * * * * * * * * * * * * * * * * * * * * * * * //

dimensions      [1 0 -1 0 0 0 0];

internalField   nonuniform List<scalar> 
2080
(
-6.3310677e-06
-0.0086454762
-1.6242729e-05
-3.4496957e-07
-0.0086576336
-1.6242658e-05
-6.0799271e-07
-0.0086514625
-1.6244444e-05
-1.287468e-07
-0.0086521931
-1.6244193e-05
-1.4003308e-07
-0.0086517061
-1.6244308e-05
-6.4253517e-08
-0.0086517937
-1.6244299e-05
-4.8451679e-08
-0.0086517304
-1.6244304e-05
-2.7442311e-08
-0.0086517393
-1.6244313e-05
-1.2529156e-08
-0.0086517305
-1.6244309e-05
-6.4338543e-13
-0.0086517299
-1.6244313e-05
1.2528036e-08
-0.0086517299
-1.6244313e-05
2.7441395e-08
-0.0086517305
-1.6244309e-05
4.8451398e-08
-0.0086517393
-1.6244313e-05
6.4253653e-08
-0.0086517304
-1.6244304e-05
1.4003344e-07
-0.0086517937
-1.6244299e-05
1.2874724e-07
-0.0086517061
-1.6244308e-05
6.0799287e-07
-0.0086521931
-1.6244193e-05
3.4496921e-07
-0.0086514625
-1.6244444e-05
6.3310671e-06
-0.0086576336
-1.6242658e-05
-0.0086454762
-1.6242729e-05
1.7255642e-06
-0.0087494962
6.9042996e-06
-1.3809407e-07
-0.008758082
6.9048872e-06
-2.2666149e-07
-0.0087536768
6.9052678e-06
-9.6509108e-08
-0.0087546191
6.9052698e-06
-9.5847973e-08
-0.0087540003
6.9052963e-06
-5.0540967e-08
-0.0087541339
6.9053051e-06
-3.1559837e-08
-0.0087540392
6.9053019e-06
-2.1239849e-08
-0.0087540446
6.9053088e-06
-7.474803e-09
-0.0087540355
6.9053053e-06
-7.5646676e-13
-0.008754031
6.9053077e-06
7.4734767e-09
-0.008754031
6.9053077e-06
2.1238744e-08
-0.0087540355
6.9053052e-06
3.1559512e-08
-0.0087540446
6.9053088e-06
5.0541196e-08
-0.0087540392
6.9053018e-06
9.5848434e-08
-0.0087541339
6.9053051e-06
9.6509815e-08
-0.0087540003
6.9052964e-06
2.2666157e-07
-0.0087546191
6.9052696e-06
1.3809345e-07
-0.0087536768
6.9052677e-06
-1.725565e-06
-0.008758082
6.9048873e-06
-0.0087494962
6.9042998e-06
1.2016049e-06
-0.0086853161
3.8172883e-06
-4.1055765e-07
-0.0086911043
3.8176729e-06
-3.6517507e-07
-0.0086883477
3.8177686e-06
-2.1935278e-07
-0.0086893978
3.8177138e-06
-2.1289564e-07
-0.0086886348
3.8177685e-06
-1.1716593e-07
-0.00868886
3.8177588e-06
-9.6780295e-08
-0.008688687
3.8177679e-06
-5.1509555e-08
-0.00868872
3.8177717e-06
-2.7602648e-08
-0.0086886878
3.8177712e-06
-5.7772426e-13
-0.0086886884
3.8177736e-06
2.7601626e-08
-0.0086886884
3.8177736e-06
5.1508841e-08
-0.0086886878
3.817771e-06
9.6780096e-08
-0.00868872
3.8177716e-06
1.1716609e-07
-0.008688687
3.817768e-06
2.1289592e-07
-0.00868886
3.8177588e-06
2.1935309e-07
-0.0086886348
3.8177683e-06
3.6517487e-07
-0.0086893978
3.8177139e-06
4.1055688e-07
-0.0086883477
3.8177688e-06
-1.2016059e-06
-0.0086911043
3.8176728e-06
-0.0086853161
3.8172883e-06
9.9687784e-07
-0.0088965896
1.6189158e-06
1.3925914e-07
-0.008900497
1.6189959e-06
2.9927172e-07
-0.0088987755
1.618926e-06
3.0672743e-08
-0.0088993705
1.618987e-06
1.1480985e-07
-0.008898968
1.6189366e-06
1.2347721e-08
-0.0088990019
1.6189527e-06
5.457255e-08
-0.0088989727
1.6189404e-06
6.8304584e-09
-0.0088989222
1.6189416e-06
1.7002866e-08
-0.0088989453
1.6189402e-06
-6.7932859e-13
-0.0088989225
1.6189397e-06
-1.7004062e-08
-0.0088989225
1.6189398e-06
-6.8312088e-09
-0.0088989453
1.6189401e-06
-5.4572518e-08
-0.0088989222
1.6189417e-06
-1.2347186e-08
-0.0088989727
1.6189406e-06
-1.1480849e-07
-0.0088990019
1.6189527e-06
-3.0671628e-08
-0.008898968
1.6189367e-06
-2.9927112e-07
-0.0088993705
1.6189873e-06
-1.39259e-07
-0.0088987755
1.6189261e-06
-9.9687811e-07
-0.008900497
1.618996e-06
-0.0088965896
1.618916e-06
2.3307732e-07
-0.0086767399
-4.7298682e-07
-5.6065856e-07
-0.0086796465
-4.754027e-07
-3.8213321e-07
-0.0086788849
-4.7535523e-07
-3.7507994e-07
-0.0086793303
-4.7550498e-07
-3.4251108e-07
-0.0086789518
-4.7546642e-07
-2.2421411e-07
-0.0086790726
-4.754793e-07
-1.9587098e-07
-0.0086789567
-4.7547173e-07
-1.0431028e-07
-0.0086789682
-4.7546902e-07
-6.1696175e-08
-0.0086789444
-4.7546913e-07
-5.0009627e-14
-0.0086789405
-4.7546728e-07
6.1696027e-08
-0.0086789405
-4.7546752e-07
1.0431025e-07
-0.0086789444
-4.7546919e-07
1.9587121e-07
-0.0086789682
-4.7546902e-07
2.2421442e-07
-0.0086789567
-4.7547158e-07
3.425113e-07
-0.0086790726
-4.7547957e-07
3.7507988e-07
-0.0086789517
-4.7546633e-07
3.8213266e-07
-0.0086793303
-4.7550488e-07
5.6065771e-07
-0.0086788849
-4.7535536e-07
-2.3307814e-07
-0.0086796465
-4.7540281e-07
-0.0086767399
-4.7298668e-07
1.2563534e-06
-0.0088198782
1.6134318e-06
4.7219776e-07
-0.0088207042
1.6155507e-06
8.9788775e-07
-0.0088211886
1.6156189e-06
2.8449e-07
-0.0088205447
1.6156931e-06
5.1386032e-07
-0.0088210329
1.6156939e-06
1.7155639e-07
-0.0088205634
1.6156894e-06
2.6109216e-07
-0.0088208902
1.6156926e-06
8.3697692e-08
-0.0088206381
1.6156866e-06
8.0306971e-08
-0.0088207913
1.6156892e-06
4.3492132e-13
-0.0088207146
1.6156874e-06
-8.0305929e-08
-0.0088207146
1.6156877e-06
-8.3696691e-08
-0.0088207913
1.6156893e-06
-2.6109071e-07
-0.0088206381
1.6156866e-06
-1.7155432e-07
-0.0088208902
1.6156927e-06
-5.1385803e-07
-0.0088205634
1.6156894e-06
-2.8448751e-07
-0.0088210329
1.6156936e-06
-8.9788574e-07
-0.0088205447
1.6156932e-06
-4.7219672e-07
-0.0088211886
1.615619e-06
-1.256353e-06
-0.0088207042
1.6155506e-06
-0.0088198782
1.6134317e-06
-1.0194938e-06
-0.0091117338
-1.9626727e-06
-8.0740995e-07
-0.0091138193
-1.9594111e-06
-8.9289109e-07
-0.0091139901
-1.9594597e-06
-6.1901937e-07
-0.0091137338
-1.9592653e-06
-6.7659511e-07
-0.0091138855
-1.9592772e-06
-4.1451803e-07
-0.0091137399
-1.9592531e-06
-4.0844767e-07
-0.0091138069
-1.9592615e-06
-2.0751923e-07
-0.0091137431
-1.9592531e-06
-1.3497524e-07
-0.0091137653
-1.9592572e-06
5.6205483e-13
-0.0091137481
-1.9592546e-06
1.3497641e-07
-0.0091137481
-1.9592547e-06
2.0752066e-07
-0.0091137653
-1.959257e-06
4.0844898e-07
-0.0091137431
-1.9592532e-06
4.1451947e-07
-0.0091138069
-1.9592616e-06
6.7659669e-07
-0.0091137399
-1.9592522e-06
6.1902095e-07
-0.0091138855
-1.9592771e-06
8.9289226e-07
-0.0091137338
-1.9592656e-06
8.0741071e-07
-0.0091139901
-1.9594592e-06
1.019494e-06
-0.0091138193
-1.9594114e-06
-0.0091117338
-1.962673e-06
4.9949139e-06
-0.0073141527
5.0603017e-06
8.1777966e-07
-0.0073069912
5.0584712e-06
2.2751755e-06
-0.0073129151
5.0584079e-06
6.8840843e-07
-0.0073095118
5.0583016e-06
1.1686802e-06
-0.007311829
5.0582557e-06
4.7262102e-07
-0.0073104472
5.0582818e-06
5.9013115e-07
-0.0073113905
5.0582518e-06
2.3980088e-07
-0.0073108417
5.0582739e-06
1.8321139e-07
-0.0073111883
5.0582583e-06
2.7322691e-12
-0.0073110425
5.0582654e-06
-1.8320658e-07
-0.0073110425
5.0582658e-06
-2.3979719e-07
-0.0073111883
5.058258e-06
-5.90129e-07
-0.0073108417
5.0582739e-06
-4.7262043e-07
-0.0073113905
5.0582515e-06
-1.1686809e-06
-0.0073104472
5.0582826e-06
-6.8840848e-07
-0.007311829
5.0582541e-06
-2.275176e-06
-0.0073095119
5.058301e-06
-8.1778174e-07
-0.0073129151
5.0584091e-06
-4.9949143e-06
-0.0073069912
5.0584706e-06
-0.0073141527
5.0603014e-06
-4.8682637e-06
-0.0081060197
-5.0912605e-06
-1.1376926e-06
-0.0081075763
-5.0922413e-06
-2.5652961e-06
-0.0081082119
-5.0922947e-06
-9.9795457e-07
-0.0081079323
-5.0923028e-06
-1.494103e-06
-0.0081080864
-5.0922655e-06
-7.2334109e-07
-0.0081080365
-5.0923077e-06
-8.2595637e-07
-0.0081080459
-5.0922695e-06
-3.803731e-07
-0.0081080543
-5.0923013e-06
-2.6817091e-07
-0.008108039
-5.0922802e-06
-1.5876107e-12
-0.0081080466
-5.0922913e-06
2.6816819e-07
-0.0081080466
-5.0922913e-06
3.8037042e-07
-0.008108039
-5.0922802e-06
8.2595377e-07
-0.0081080543
-5.0923013e-06
7.2333848e-07
-0.0081080459
-5.0922698e-06
1.4941003e-06
-0.0081080365
-5.0923075e-06
9.9795215e-07
-0.0081080864
-5.0922657e-06
2.5652937e-06
-0.0081079323
-5.0923024e-06
1.1376909e-06
-0.0081082119
-5.0922943e-06
4.8682627e-06
-0.0081075763
-5.092241e-06
-0.0081060197
-5.0912598e-06
1.7523446e-06
4.6565368e-06
2.0121116e-06
4.6694026e-06
1.5610577e-06
4.6619191e-06
1.4651863e-06
4.6635082e-06
1.1610423e-06
4.6629393e-06
9.4624552e-07
4.6631486e-06
6.9868011e-07
4.6630197e-06
4.6044066e-07
4.6631017e-06
2.3100582e-07
4.6630487e-06
2.0310593e-13
4.663074e-06
-2.3100618e-07
4.6630741e-06
-4.6044067e-07
4.6630479e-06
-6.9867999e-07
4.6631015e-06
-9.4624548e-07
4.6630203e-06
-1.1610421e-06
4.6631484e-06
-1.4651868e-06
4.6629394e-06
-1.5610582e-06
4.6635077e-06
-2.0121111e-06
4.6619187e-06
-1.752344e-06
4.6694027e-06
4.6565368e-06
-6.3351298e-06
-0.0086775356
-3.6741932e-12
-3.4491323e-07
-0.008689701
-4.0084437e-12
-6.0832977e-07
-0.0086835289
-3.8435533e-12
-1.287941e-07
-0.0086842597
-3.9299255e-12
-1.4009539e-07
-0.0086837726
-3.9341623e-12
-6.428002e-08
-0.0086838603
-3.6430737e-12
-4.8473315e-08
-0.008683797
-3.9160681e-12
-2.7453918e-08
-0.0086838058
-4.062915e-12
-1.2535061e-08
-0.008683797
-3.9992413e-12
-6.3893955e-13
-0.0086837964
-3.9606245e-12
1.2533973e-08
-0.0086837964
-4.0070614e-12
2.7453061e-08
-0.008683797
-4.0679236e-12
4.8473031e-08
-0.0086838058
-3.7310435e-12
6.4280184e-08
-0.008683797
-3.9164645e-12
1.4009567e-07
-0.0086838603
-3.4620306e-12
1.287944e-07
-0.0086837726
-4.0021296e-12
6.0832999e-07
-0.0086842597
-4.1456226e-12
3.4491284e-07
-0.0086835289
-4.1627893e-12
6.3351291e-06
-0.008689701
-4.1363551e-12
-0.0086775356
-4.28725e-12
1.7261605e-06
-0.0087678176
-5.3674635e-12
-1.3806395e-07
-0.008776409
-5.9277991e-12
-2.266909e-07
-0.0087720027
-5.8713702e-12
-9.6541478e-08
-0.0087729452
-5.9572171e-12
-9.5881414e-08
-0.0087723263
-5.9384014e-12
-5.0561422e-08
-0.0087724599
-5.6415196e-12
-3.1574433e-08
-0.0087723652
-5.9504127e-12
-2.1249084e-08
-0.0087723706
-5.9384243e-12
-7.4789226e-09
-0.0087723615
-5.884866e-12
-7.7353618e-13
-0.008772357
-5.8117535e-12
7.4775954e-09
-0.008772357
-5.8323881e-12
2.1248001e-08
-0.0087723615
-5.8676859e-12
3.1574071e-08
-0.0087723706
-6.2510804e-12
5.0561637e-08
-0.0087723652
-5.8321994e-12
9.5881875e-08
-0.0087724599
-5.7780581e-12
9.6542134e-08
-0.0087723262
-5.7165433e-12
2.26691e-07
-0.0087729452
-5.8165002e-12
1.3806339e-07
-0.0087720027
-5.7317683e-12
-1.7261613e-06
-0.008776409
-5.5388383e-12
-0.0087678176
-4.5873697e-12
1.201886e-06
-0.0086960085
-4.2239087e-12
-4.1072266e-07
-0.0087018009
-4.1968031e-12
-3.6533694e-07
-0.0086990434
-4.3739066e-12
-2.1944672e-07
-0.0087000939
-4.3253772e-12
-2.1298283e-07
-0.0086993306
-4.6498899e-12
-1.1721651e-07
-0.0086995558
-4.0087565e-12
-9.6821601e-08
-0.0086993828
-4.1849895e-12
-5.1532022e-08
-0.0086994158
-4.3540758e-12
-2.7614975e-08
-0.0086993836
-4.2074725e-12
-5.6934877e-13
-0.0086993842
-4.3601635e-12
2.7613961e-08
-0.0086993842
-4.2975007e-12
5.153126e-08
-0.0086993836
-4.370229e-12
9.6821372e-08
-0.0086994158
-4.3946504e-12
1.1721667e-07
-0.0086993828
-4.3716292e-12
2.1298315e-07
-0.0086995558
-4.3797366e-12
2.1944698e-07
-0.0086993306
-4.1897551e-12
3.6533675e-07
-0.0087000939
-4.4791536e-12
4.1072188e-07
-0.0086990434
-4.5233344e-12
-1.201887e-06
-0.0087018009
-4.1814422e-12
-0.0086960085
-3.9121159e-12
9.9725205e-07
-0.0089040482
-1.4862671e-12
1.3928549e-07
-0.0089079587
-1.6237191e-12
2.9938099e-07
-0.0089062369
-1.5949933e-12
3.0689231e-08
-0.0089068321
-1.8383698e-12
1.1484567e-07
-0.0089064295
-1.890919e-12
1.235359e-08
-0.0089064634
-1.3670917e-12
5.4586693e-08
-0.0089064342
-1.4004387e-12
6.8325005e-09
-0.0089063836
-1.4201566e-12
1.7006617e-08
-0.0089064067
-1.2900318e-12
-6.546667e-13
-0.0089063839
-1.4077658e-12
-1.7007825e-08
-0.0089063839
-1.2956518e-12
-6.8332988e-09
-0.0089064067
-1.2756346e-12
-5.4586588e-08
-0.0089063836
-1.4878589e-12
-1.2353005e-08
-0.0089064342
-1.3198512e-12
-1.1484437e-07
-0.0089064634
-1.588962e-12
-3.0688098e-08
-0.0089064294
-1.6275853e-12
-2.9938024e-07
-0.008906832
-1.4078439e-12
-1.3928547e-07
-0.0089062369
-1.4618855e-12
-9.9725248e-07
-0.0089079587
-1.4163971e-12
-0.0089040482
-1.1509355e-12
2.3235225e-07
-0.0086851527
-1.1306299e-12
-5.6120024e-07
-0.0086880683
-1.7883955e-12
-3.8235595e-07
-0.0086873065
-1.5260624e-12
-3.7526115e-07
-0.008687752
-1.0859862e-12
-3.4266185e-07
-0.0086873733
-1.3019454e-12
-2.2431421e-07
-0.0086874942
-1.9296808e-12
-1.959546e-07
-0.0086873782
-1.9514157e-12
-1.0435655e-07
-0.0086873897
-1.8211433e-12
-6.172254e-08
-0.0086873659
-1.7518533e-12
-2.0423042e-13
-0.008687362
-1.4495072e-12
6.1722439e-08
-0.008687362
-1.7893274e-12
1.0435644e-07
-0.0086873659
-1.8573846e-12
1.9595491e-07
-0.0086873897
-1.8826457e-12
2.2431466e-07
-0.0086873782
-1.5456869e-12
3.4266191e-07
-0.0086874942
-1.3819596e-12
3.75261e-07
-0.0086873733
-1.483459e-12
3.8235569e-07
-0.008687752
-1.1938271e-12
5.6119925e-07
-0.0086873065
-7.9203295e-13
-2.3235356e-07
-0.0086880683
-1.501776e-12
-0.0086851527
-1.6001658e-12
1.2574388e-06
-0.0088250776
3.0338937e-14
4.7265601e-07
-0.0088259066
-6.2619135e-13
8.9825916e-07
-0.0088263911
-1.7080391e-13
2.846431e-07
-0.0088257471
8.4763043e-14
5.1404918e-07
-0.0088262354
-5.484879e-13
1.7163843e-07
-0.0088257658
1.2597338e-13
2.6118241e-07
-0.0088260926
1.145158e-13
8.3734614e-08
-0.0088258405
8.8790891e-14
8.0333506e-08
-0.0088259937
-2.2192997e-14
2.9454517e-13
-0.008825917
5.9430014e-14
-8.0332467e-08
-0.008825917
-1.7001482e-13
-8.3733656e-08
-0.0088259937
-2.04893e-13
-2.6118106e-07
-0.0088258405
1.4438275e-13
-1.7163617e-07
-0.0088260926
-3.5022777e-13
-5.1404674e-07
-0.0088257658
3.0190777e-13
-2.8464094e-07
-0.0088262354
2.7290126e-14
-8.9825715e-07
-0.0088257471
-1.7723529e-13
-4.7265475e-07
-0.0088263911
-4.653847e-13
-1.2574384e-06
-0.0088259066
-4.2400678e-13
-0.0088250776
-1.997933e-13
-1.0192079e-06
-0.0091208672
-4.9692655e-13
-8.0729863e-07
-0.0091229489
4.2999093e-14
-8.9324121e-07
-0.0091231195
-1.853129e-13
-6.1928261e-07
-0.0091228632
-4.4748668e-13
-6.7687457e-07
-0.009123015
-4.7966661e-13
-4.1470478e-07
-0.0091228693
-4.50313e-13
-4.0861113e-07
-0.0091229363
7.2583405e-14
-2.0761098e-07
-0.0091228725
-6.9458057e-13
-1.3502852e-07
-0.0091228947
-7.3073427e-13
4.4751951e-13
-0.0091228774
-4.2717385e-13
1.350296e-07
-0.0091228774
-7.3300008e-13
2.076125e-07
-0.0091228947
-3.5176374e-13
4.0861236e-07
-0.0091228725
-1.3779985e-13
4.1470635e-07
-0.0091229363
-5.3922329e-13
6.7687622e-07
-0.0091228693
-1.8077622e-13
6.192837e-07
-0.009123015
9.4178086e-14
8.9324245e-07
-0.0091228632
-2.2907341e-13
8.0729964e-07
-0.0091231195
-4.6697844e-13
1.0192081e-06
-0.0091229489
-5.2998808e-13
-0.0091208672
-6.6836459e-13
4.99616e-06
-0.007313206
-3.2025396e-13
8.1778916e-07
-0.0073060418
6.0393941e-13
2.2759603e-06
-0.0073119677
3.7408787e-13
6.8873036e-07
-0.0073085635
1.3411007e-13
1.1691021e-06
-0.0073108813
8.0659526e-13
4.7284303e-07
-0.0073094991
7.1064525e-14
5.9034074e-07
-0.0073104427
6.5981024e-13
2.3990925e-07
-0.0073098937
-7.7589233e-14
1.8327565e-07
-0.0073102404
-5.0940204e-13
2.7512025e-12
-0.0073100946
3.4390296e-13
-1.8327073e-07
-0.0073100946
1.0581419e-12
-2.3990582e-07
-0.0073102404
3.7054158e-14
-5.9033916e-07
-0.0073098937
-3.2527098e-13
-4.7284268e-07
-0.0073104427
-5.2316252e-14
-1.1691019e-06
-0.0073094991
1.365126e-13
-6.8873174e-07
-0.0073108813
-6.6020972e-13
-2.2759615e-06
-0.0073085635
-5.0630912e-13
-8.1778938e-07
-0.0073119677
3.9125793e-13
-4.99616e-06
-0.0073060418
2.6395629e-13
-0.007313206
-1.1466544e-13
-4.8702567e-06
-0.0081153138
-2.1895945e-13
-1.1382121e-06
-0.008116873
1.1401092e-14
-2.5662568e-06
-0.0081175088
2.543237e-14
-9.9843355e-07
-0.0081172291
-1.8021374e-13
-1.4946654e-06
-0.0081173832
-3.4364512e-13
-7.2367448e-07
-0.0081173334
1.3782081e-13
-8.2626108e-07
-0.0081173427
1.6233569e-13
-3.8054113e-07
-0.0081173511
1.1919599e-13
-2.6826799e-07
-0.0081173359
-1.0074294e-13
-1.8155681e-12
-0.0081173435
4.4477252e-13
2.6826526e-07
-0.0081173435
-1.9768699e-13
3.8053867e-07
-0.0081173359
-1.8729358e-13
8.2625842e-07
-0.0081173512
1.084875e-13
7.2367184e-07
-0.0081173427
9.6738699e-14
1.4946627e-06
-0.0081173334
3.3633429e-14
9.9843118e-07
-0.0081173832
-2.934915e-13
2.5662544e-06
-0.0081172291
-3.5965906e-14
1.1382105e-06
-0.0081175088
5.7045147e-13
4.8702558e-06
-0.008116873
3.6476339e-13
-0.0081153138
8.5203895e-14
1.7420633e-06
-1.1631082e-12
2.0145656e-06
3.8149169e-13
1.5610531e-06
6.332674e-13
1.4659722e-06
-1.0339298e-12
1.1614665e-06
-9.2074391e-13
9.467103e-07
1.9290141e-13
6.9895507e-07
-2.392517e-13
4.6066639e-07
6.4459522e-14
2.3109772e-07
8.8185534e-14
1.5098545e-13
-3.523348e-13
-2.3109819e-07
1.272266e-13
-4.6066638e-07
-5.2180333e-13
-6.9895489e-07
2.8012153e-14
-9.4671026e-07
4.1730928e-13
-1.1614667e-06
2.3320113e-13
-1.465973e-06
-4.9912749e-13
-1.5610539e-06
-1.0700456e-12
-2.0145659e-06
-3.8564606e-13
-1.7420623e-06
-1.1312947e-13
-6.542508e-13
-6.3351297e-06
-0.0086775356
1.6242725e-05
-3.4491326e-07
-0.008689701
1.6242654e-05
-6.0832982e-07
-0.0086835289
1.6244439e-05
-1.287941e-07
-0.0086842597
1.6244188e-05
-1.4009527e-07
-0.0086837726
1.6244303e-05
-6.4279926e-08
-0.0086838603
1.6244295e-05
-4.8473287e-08
-0.008683797
1.62443e-05
-2.7453898e-08
-0.0086838058
1.6244308e-05
-1.2535054e-08
-0.008683797
1.6244304e-05
-6.6685123e-13
-0.0086837964
1.6244308e-05
1.2533854e-08
-0.0086837964
1.6244308e-05
2.7452969e-08
-0.008683797
1.6244304e-05
4.847306e-08
-0.0086838058
1.6244308e-05
6.4280181e-08
-0.008683797
1.62443e-05
1.4009571e-07
-0.0086838603
1.6244295e-05
1.2879445e-07
-0.0086837726
1.6244304e-05
6.0832999e-07
-0.0086842597
1.6244188e-05
3.4491274e-07
-0.0086835289
1.6244439e-05
6.3351288e-06
-0.008689701
1.6242653e-05
-0.0086775356
1.6242725e-05
1.7261605e-06
-0.0087678176
-6.9043076e-06
-1.3806402e-07
-0.008776409
-6.9048958e-06
-2.2669093e-07
-0.0087720027
-6.9052763e-06
-9.6541485e-08
-0.0087729452
-6.9052784e-06
-9.5881419e-08
-0.0087723262
-6.905305e-06
-5.0561339e-08
-0.0087724599
-6.9053134e-06
-3.1574422e-08
-0.0087723652
-6.9053103e-06
-2.1249032e-08
-0.0087723706
-6.9053174e-06
-7.4788827e-09
-0.0087723615
-6.9053139e-06
-7.7971059e-13
-0.008772357
-6.9053164e-06
7.4775202e-09
-0.008772357
-6.9053163e-06
2.1247922e-08
-0.0087723615
-6.905314e-06
3.1574133e-08
-0.0087723706
-6.9053176e-06
5.0561607e-08
-0.0087723652
-6.9053104e-06
9.5881925e-08
-0.0087724599
-6.9053134e-06
9.6542138e-08
-0.0087723262
-6.9053049e-06
2.2669103e-07
-0.0087729452
-6.9052783e-06
1.3806349e-07
-0.0087720027
-6.9052764e-06
-1.7261613e-06
-0.008776409
-6.9048955e-06
-0.0087678176
-6.9043069e-06
1.2018863e-06
-0.0086960085
-3.8172933e-06
-4.1072265e-07
-0.0087018009
-3.817678e-06
-3.6533695e-07
-0.0086990434
-3.817774e-06
-2.194466e-07
-0.0087000939
-3.8177191e-06
-2.1298285e-07
-0.0086993306
-3.817774e-06
-1.1721648e-07
-0.0086995558
-3.8177638e-06
-9.6821637e-08
-0.0086993828
-3.817773e-06
-5.153192e-08
-0.0086994158
-3.817777e-06
-2.7614903e-08
-0.0086993836
-3.8177763e-06
-5.7453001e-13
-0.0086993842
-3.8177788e-06
2.761383e-08
-0.0086993842
-3.8177787e-06
5.1531178e-08
-0.0086993836
-3.8177763e-06
9.6821458e-08
-0.0086994158
-3.8177772e-06
1.1721666e-07
-0.0086993828
-3.8177733e-06
2.129832e-07
-0.0086995558
-3.817764e-06
2.194469e-07
-0.0086993306
-3.8177736e-06
3.6533674e-07
-0.0087000939
-3.8177192e-06
4.1072189e-07
-0.0086990434
-3.817774e-06
-1.2018872e-06
-0.0087018009
-3.817678e-06
-0.0086960085
-3.8172926e-06
9.9725208e-07
-0.0089040482
-1.6189179e-06
1.3928555e-07
-0.0089079587
-1.6189983e-06
2.9938109e-07
-0.0089062369
-1.6189287e-06
3.0689309e-08
-0.0089068321
-1.6189895e-06
1.1484547e-07
-0.0089064294
-1.6189389e-06
1.2353559e-08
-0.0089064634
-1.6189548e-06
5.4586697e-08
-0.0089064342
-1.6189429e-06
6.8326267e-09
-0.0089063836
-1.6189438e-06
1.7006696e-08
-0.0089064067
-1.6189422e-06
-6.732173e-13
-0.0089063839
-1.6189418e-06
-1.7007936e-08
-0.0089063839
-1.6189419e-06
-6.833331e-09
-0.0089064067
-1.6189423e-06
-5.4586638e-08
-0.0089063836
-1.618944e-06
-1.2353034e-08
-0.0089064342
-1.6189427e-06
-1.1484428e-07
-0.0089064634
-1.618955e-06
-3.0688168e-08
-0.0089064294
-1.6189389e-06
-2.993803e-07
-0.008906832
-1.6189895e-06
-1.3928545e-07
-0.0089062369
-1.6189285e-06
-9.9725247e-07
-0.0089079587
-1.6189981e-06
-0.0089040482
-1.6189177e-06
2.3235276e-07
-0.0086851527
4.729848e-07
-5.6120037e-07
-0.0086880683
4.7540081e-07
-3.8235631e-07
-0.0086873065
4.7535322e-07
-3.752609e-07
-0.008687752
4.755029e-07
-3.4266159e-07
-0.0086873733
4.7546434e-07
-2.243142e-07
-0.0086874942
4.7547717e-07
-1.9595456e-07
-0.0086873782
4.7546924e-07
-1.043563e-07
-0.0086873897
4.7546691e-07
-6.1722459e-08
-0.0086873659
4.7546696e-07
-9.6676538e-14
-0.008687362
4.7546543e-07
6.1722335e-08
-0.008687362
4.7546547e-07
1.0435636e-07
-0.0086873659
4.7546704e-07
1.9595486e-07
-0.0086873897
4.7546682e-07
2.2431467e-07
-0.0086873782
4.7546952e-07
3.4266186e-07
-0.0086874942
4.7547741e-07
3.7526055e-07
-0.0086873733
4.7546462e-07
3.823556e-07
-0.0086877519
4.7550298e-07
5.6119972e-07
-0.0086873065
4.7535335e-07
-2.3235334e-07
-0.0086880683
4.7540083e-07
-0.0086851527
4.7298483e-07
1.2574389e-06
-0.0088250776
-1.6134318e-06
4.7265547e-07
-0.0088259066
-1.6155507e-06
8.98259e-07
-0.0088263911
-1.6156193e-06
2.8464342e-07
-0.0088257471
-1.615693e-06
5.1404908e-07
-0.0088262354
-1.6156942e-06
1.7163864e-07
-0.0088257658
-1.6156895e-06
2.6118266e-07
-0.0088260926
-1.6156926e-06
8.3734773e-08
-0.0088258405
-1.6156866e-06
8.0333358e-08
-0.0088259937
-1.6156895e-06
3.9684993e-13
-0.008825917
-1.6156876e-06
-8.033261e-08
-0.008825917
-1.6156876e-06
-8.3733748e-08
-0.0088259937
-1.6156894e-06
-2.6118093e-07
-0.0088258405
-1.6156867e-06
-1.7163624e-07
-0.0088260926
-1.615693e-06
-5.1404675e-07
-0.0088257658
-1.6156892e-06
-2.8464097e-07
-0.0088262354
-1.6156936e-06
-8.9825721e-07
-0.0088257471
-1.6156935e-06
-4.7265469e-07
-0.0088263911
-1.6156197e-06
-1.2574384e-06
-0.0088259066
-1.6155511e-06
-0.0088250776
-1.6134319e-06
-1.019208e-06
-0.0091208672
1.9626726e-06
-8.0729849e-07
-0.0091229489
1.9594107e-06
-8.9324106e-07
-0.0091231195
1.9594593e-06
-6.1928283e-07
-0.0091228632
1.9592651e-06
-6.7687463e-07
-0.009123015
1.9592768e-06
-4.1470513e-07
-0.0091228693
1.9592524e-06
-4.0861072e-07
-0.0091229363
1.9592608e-06
-2.076106e-07
-0.0091228725
1.9592521e-06
-1.3502877e-07
-0.0091228947
1.9592565e-06
5.2434491e-13
-0.0091228774
1.9592539e-06
1.3502943e-07
-0.0091228774
1.9592538e-06
2.0761248e-07
-0.0091228947
1.9592562e-06
4.0861246e-07
-0.0091228725
1.9592525e-06
4.147064e-07
-0.0091229363
1.9592612e-06
6.7687631e-07
-0.0091228693
1.9592522e-06
6.1928374e-07
-0.009123015
1.9592772e-06
8.9324229e-07
-0.0091228632
1.9592654e-06
8.072995e-07
-0.0091231195
1.9594589e-06
1.0192081e-06
-0.0091229489
1.9594106e-06
-0.0091208672
1.962672e-06
4.9961591e-06
-0.007313206
-5.0603012e-06
8.1778917e-07
-0.0073060418
-5.0584711e-06
2.275961e-06
-0.0073119677
-5.0584081e-06
6.8873032e-07
-0.0073085635
-5.0583009e-06
1.1691021e-06
-0.0073108813
-5.0582548e-06
4.7284305e-07
-0.0073094991
-5.058282e-06
5.9034152e-07
-0.0073104427
-5.0582517e-06
2.3990978e-07
-0.0073098937
-5.0582735e-06
1.8327505e-07
-0.0073102404
-5.0582577e-06
2.3678856e-12
-0.0073100946
-5.058265e-06
-1.8327046e-07
-0.0073100946
-5.0582652e-06
-2.3990551e-07
-0.0073102404
-5.0582578e-06
-5.9033865e-07
-0.0073098937
-5.0582737e-06
-4.7284225e-07
-0.0073104427
-5.0582517e-06
-1.169102e-06
-0.0073094991
-5.0582814e-06
-6.8873174e-07
-0.0073108813
-5.0582553e-06
-2.2759624e-06
-0.0073085635
-5.058301e-06
-8.1779055e-07
-0.0073119677
-5.0584081e-06
-4.9961604e-06
-0.0073060418
-5.0584716e-06
-0.007313206
-5.0603018e-06
-4.8702569e-06
-0.0081153138
5.0912604e-06
-1.1382123e-06
-0.008116873
5.0922409e-06
-2.5662566e-06
-0.0081175088
5.0922944e-06
-9.984335e-07
-0.0081172291
5.0923027e-06
-1.4946652e-06
-0.0081173832
5.0922651e-06
-7.2367437e-07
-0.0081173334
5.092308e-06
-8.2626116e-07
-0.0081173427
5.0922697e-06
-3.8054148e-07
-0.0081173511
5.0923015e-06
-2.68268e-07
-0.0081173359
5.0922802e-06
-1.7052754e-12
-0.0081173435
5.0922916e-06
2.6826535e-07
-0.0081173435
5.0922912e-06
3.8053878e-07
-0.0081173359
5.0922801e-06
8.2625844e-07
-0.0081173512
5.0923016e-06
7.2367183e-07
-0.0081173427
5.09227e-06
1.4946626e-06
-0.0081173334
5.0923078e-06
9.984312e-07
-0.0081173832
5.0922652e-06
2.5662543e-06
-0.0081172291
5.0923027e-06
1.1382105e-06
-0.0081175088
5.092295e-06
4.870256e-06
-0.008116873
5.0922413e-06
-0.0081153138
5.0912601e-06
1.7420617e-06
-4.6565372e-06
2.0145663e-06
-4.6694036e-06
1.5610551e-06
-4.661919e-06
1.4659722e-06
-4.6635083e-06
1.1614666e-06
-4.6629408e-06
9.4671033e-07
-4.6631477e-06
6.9895528e-07
-4.6630197e-06
4.6066645e-07
-4.6631016e-06
2.3109765e-07
-4.6630483e-06
1.6929959e-13
-4.6630741e-06
-2.3109818e-07
-4.6630738e-06
-4.6066645e-07
-4.663049e-06
-6.9895481e-07
-4.6631016e-06
-9.4671023e-07
-4.6630189e-06
-1.1614662e-06
-4.6631485e-06
-1.4659724e-06
-4.6629403e-06
-1.5610546e-06
-4.663509e-06
-2.0145664e-06
-4.6619188e-06
-1.7420623e-06
-4.6694027e-06
-4.6565375e-06
-6.3310678e-06
-0.0086454762
-3.4496965e-07
-0.0086576336
-6.0799274e-07
-0.0086514625
-1.2874687e-07
-0.0086521931
-1.4003298e-07
-0.0086517061
-6.425347e-08
-0.0086517937
-4.8451747e-08
-0.0086517304
-2.7442295e-08
-0.0086517393
-1.2529143e-08
-0.0086517305
-6.7009575e-13
-0.0086517299
1.2527973e-08
-0.0086517299
2.7441388e-08
-0.0086517305
4.8451184e-08
-0.0086517393
6.4253695e-08
-0.0086517304
1.4003372e-07
-0.0086517937
1.2874718e-07
-0.0086517061
6.0799289e-07
-0.0086521931
3.4496916e-07
-0.0086514625
6.3310671e-06
-0.0086576336
-0.0086454762
1.725564e-06
-0.0087494962
-1.3809415e-07
-0.008758082
-2.2666151e-07
-0.0087536768
-9.6509103e-08
-0.0087546191
-9.5847881e-08
-0.0087540003
-5.0540966e-08
-0.0087541339
-3.1559896e-08
-0.0087540392
-2.1239875e-08
-0.0087540446
-7.4747881e-09
-0.0087540355
-7.7291031e-13
-0.008754031
7.4734306e-09
-0.008754031
2.1238737e-08
-0.0087540355
3.1559592e-08
-0.0087540446
5.0541245e-08
-0.0087540392
9.5848413e-08
-0.0087541339
9.6509747e-08
-0.0087540003
2.2666161e-07
-0.0087546191
1.3809373e-07
-0.0087536768
-1.7255647e-06
-0.008758082
-0.0087494962
1.2016049e-06
-0.0086853161
-4.1055776e-07
-0.0086911043
-3.651751e-07
-0.0086883477
-2.1935276e-07
-0.0086893978
-2.1289554e-07
-0.0086886348
-1.1716592e-07
-0.00868886
-9.6780333e-08
-0.008688687
-5.1509579e-08
-0.00868872
-2.7602612e-08
-0.0086886878
-5.71784e-13
-0.0086886884
2.7601551e-08
-0.0086886884
5.150883e-08
-0.0086886878
9.6780145e-08
-0.00868872
1.171661e-07
-0.008688687
2.1289594e-07
-0.00868886
2.1935303e-07
-0.0086886348
3.6517488e-07
-0.0086893978
4.10557e-07
-0.0086883477
-1.2016056e-06
-0.0086911043
-0.008685316
9.9687776e-07
-0.0088965896
1.3925909e-07
-0.008900497
2.9927173e-07
-0.0088987755
3.0672794e-08
-0.0088993705
1.1480987e-07
-0.008898968
1.234771e-08
-0.0088990019
5.4572594e-08
-0.0088989727
6.8304993e-09
-0.0088989222
1.7002885e-08
-0.0088989453
-6.7024858e-13
-0.0088989225
-1.7004115e-08
-0.0088989225
-6.831235e-09
-0.0088989453
-5.4572547e-08
-0.0088989222
-1.2347128e-08
-0.0088989727
-1.1480847e-07
-0.0088990019
-3.0671503e-08
-0.008898968
-2.9927117e-07
-0.0088993705
-1.3925908e-07
-0.0088987755
-9.9687796e-07
-0.008900497
-0.0088965896
2.3307736e-07
-0.0086767399
-5.6065859e-07
-0.0086796465
-3.8213322e-07
-0.0086788849
-3.7508002e-07
-0.0086793303
-3.4251111e-07
-0.0086789518
-2.2421413e-07
-0.0086790726
-1.9587092e-07
-0.0086789567
-1.0431021e-07
-0.0086789682
-6.1696121e-08
-0.0086789444
-1.106318e-13
-0.0086789405
6.1695988e-08
-0.0086789405
1.0431026e-07
-0.0086789444
1.9587121e-07
-0.0086789682
2.2421453e-07
-0.0086789567
3.4251133e-07
-0.0086790726
3.7507981e-07
-0.0086789517
3.8213266e-07
-0.0086793303
5.6065773e-07
-0.0086788849
-2.3307809e-07
-0.0086796465
-0.0086767399
1.2563534e-06
-0.0088198782
4.7219769e-07
-0.0088207042
8.9788784e-07
-0.0088211886
2.8448999e-07
-0.0088205447
5.1386039e-07
-0.0088210329
1.7155642e-07
-0.0088205634
2.6109217e-07
-0.0088208902
8.3697663e-08
-0.0088206381
8.0306988e-08
-0.0088207913
4.7105107e-13
-0.0088207146
-8.0305984e-08
-0.0088207146
-8.3696738e-08
-0.0088207913
-2.6109067e-07
-0.0088206381
-1.7155427e-07
-0.0088208902
-5.1385803e-07
-0.0088205634
-2.8448762e-07
-0.0088210329
-8.9788585e-07
-0.0088205447
-4.7219666e-07
-0.0088211886
-1.256353e-06
-0.0088207042
-0.0088198782
-1.0194939e-06
-0.0091117338
-8.0740997e-07
-0.0091138193
-8.9289104e-07
-0.0091139901
-6.1901948e-07
-0.0091137338
-6.7659511e-07
-0.0091138855
-4.145181e-07
-0.0091137399
-4.0844773e-07
-0.0091138069
-2.0751922e-07
-0.0091137431
-1.3497523e-07
-0.0091137653
5.5634247e-13
-0.0091137481
1.3497642e-07
-0.0091137481
2.0752077e-07
-0.0091137653
4.08449e-07
-0.0091137431
4.1451965e-07
-0.0091138069
6.7659678e-07
-0.0091137399
6.1902083e-07
-0.0091138855
8.9289218e-07
-0.0091137338
8.0741048e-07
-0.0091139901
1.0194939e-06
-0.0091138193
-0.0091117338
4.9949139e-06
-0.0073141527
8.1778014e-07
-0.0073069912
2.2751753e-06
-0.0073129151
6.8840804e-07
-0.0073095118
1.1686803e-06
-0.007311829
4.7262097e-07
-0.0073104472
5.9013124e-07
-0.0073113905
2.3980097e-07
-0.0073108417
1.8321141e-07
-0.0073111883
2.667947e-12
-0.0073110425
-1.8320671e-07
-0.0073110425
-2.3979726e-07
-0.0073111883
-5.901289e-07
-0.0073108417
-4.7262039e-07
-0.0073113905
-1.1686804e-06
-0.0073104472
-6.8840938e-07
-0.007311829
-2.2751766e-06
-0.0073095119
-8.1778097e-07
-0.0073129151
-4.9949145e-06
-0.0073069912
-0.0073141527
-4.8682637e-06
-0.0081060197
-1.1376926e-06
-0.0081075763
-2.565296e-06
-0.0081082119
-9.9795459e-07
-0.0081079323
-1.4941029e-06
-0.0081080864
-7.2334102e-07
-0.0081080365
-8.2595645e-07
-0.0081080459
-3.8037313e-07
-0.0081080543
-2.6817085e-07
-0.008108039
-1.6402502e-12
-0.0081080466
2.6816814e-07
-0.0081080466
3.8037041e-07
-0.008108039
8.2595381e-07
-0.0081080543
7.2333847e-07
-0.0081080459
1.4941003e-06
-0.0081080365
9.979523e-07
-0.0081080864
2.5652938e-06
-0.0081079323
1.1376908e-06
-0.0081082119
4.8682627e-06