/*--------------------------------*- C++ -*----------------------------------*\
  =========                 |
  \\      /  F ield         | OpenFOAM: The Open Source CFD Toolbox
   \\    /   O peration     | Website:  https://openfoam.org
    \\  /    A nd           | Version:  8
     \\/     M anipulation  |
\*---------------------------------------------------------------------------*/
FoamFile
{
    version     2.0;
    format      ascii;
    class       volVectorField;
    location    "0.5";
    object      U;
}
// * * * * * * * * * * * * * * * * * * * * * * * * * * * * * * * * * * * * * //

dimensions      [0 1 -1 0 0 0 0];

internalField   nonuniform List<vector> 
800
(
(-8.0059414e-05 0.89594967 -0.00015052205)
(4.8001049e-06 0.89601777 -0.00015053759)
(-8.5627794e-06 0.89603061 -0.00015054441)
(1.1229573e-06 0.89603004 -0.00015054356)
(-2.5170688e-06 0.89603042 -0.000150544)
(7.5810603e-07 0.89603134 -0.00015054404)
(-1.4478753e-06 0.8960307 -0.00015054402)
(8.2431486e-07 0.89603154 -0.00015054411)
(-1.1150562e-06 0.89603107 -0.00015054407)
(9.5090886e-07 0.89603138 -0.00015054411)
(-9.5091617e-07 0.89603138 -0.00015054411)
(1.1150496e-06 0.89603107 -0.00015054407)
(-8.2431834e-07 0.89603154 -0.00015054412)
(1.4478751e-06 0.8960307 -0.00015054402)
(-7.5810418e-07 0.89603134 -0.00015054405)
(2.517071e-06 0.89603042 -0.000150544)
(-1.1229546e-06 0.89603004 -0.00015054356)
(8.5627791e-06 0.89603061 -0.00015054441)
(-4.8001092e-06 0.89601777 -0.00015053759)
(8.0059412e-05 0.89594967 -0.00015052205)
(1.512793e-05 -1.0859288 1.8294117e-05)
(2.3003472e-06 -1.0860625 1.829625e-05)
(-3.5448494e-06 -1.08605 1.8297217e-05)
(1.0611947e-06 -1.0860526 1.8297243e-05)
(-1.9571589e-06 -1.0860508 1.8297295e-05)
(8.9478102e-07 -1.0860523 1.8297327e-05)
(-1.360304e-06 -1.0860513 1.8297312e-05)
(9.9771385e-07 -1.0860523 1.8297334e-05)
(-1.1895653e-06 -1.0860517 1.8297322e-05)
(1.1008831e-06 -1.0860521 1.829733e-05)
(-1.1008907e-06 -1.0860521 1.829733e-05)
(1.1895585e-06 -1.0860517 1.8297322e-05)
(-9.9771769e-07 -1.0860523 1.8297335e-05)
(1.3603042e-06 -1.0860513 1.8297312e-05)
(-8.9477885e-07 -1.0860523 1.8297327e-05)
(1.9571614e-06 -1.0860508 1.8297295e-05)
(-1.0611902e-06 -1.0860526 1.8297242e-05)
(3.5448459e-06 -1.08605 1.8297216e-05)
(-2.30035e-06 -1.0860625 1.829625e-05)
(-1.5127935e-05 -1.0859288 1.8294117e-05)
(9.9308362e-06 1.2274586 6.6402827e-06)
(5.0341542e-07 1.227569 6.6409742e-06)
(-3.9614885e-06 1.2275777 6.6413037e-06)
(6.0739759e-07 1.2275758 6.6411615e-06)
(-2.4350495e-06 1.227577 6.6412964e-06)
(4.7466645e-07 1.227578 6.6412772e-06)
(-1.4456925e-06 1.2275773 6.6412979e-06)
(5.4759245e-07 1.2275785 6.6413082e-06)
(-9.7192688e-07 1.2275779 6.6413044e-06)
(7.1397638e-07 1.2275783 6.6413116e-06)
(-7.1398132e-07 1.2275783 6.6413115e-06)
(9.7192274e-07 1.2275779 6.6413043e-06)
(-5.4759448e-07 1.2275785 6.6413082e-06)
(1.4456926e-06 1.2275773 6.6412961e-06)
(-4.7466518e-07 1.227578 6.6412777e-06)
(2.4350506e-06 1.227577 6.6412957e-06)
(-6.07396e-07 1.2275758 6.6411618e-06)
(3.9614854e-06 1.2275777 6.641304e-06)
(-5.0341942e-07 1.227569 6.6409742e-06)
(-9.9308397e-06 1.2274586 6.6402775e-06)
(7.6911586e-06 -1.4990679 5.0306026e-06)
(-3.2478835e-07 -1.4992353 5.0315412e-06)
(1.4866013e-06 -1.4992272 5.0313022e-06)
(6.54181e-07 -1.4992319 5.0314592e-06)
(-3.7194388e-07 -1.4992283 5.0313341e-06)
(1.1696561e-06 -1.4992309 5.0313705e-06)
(-1.0494767e-06 -1.499229 5.031341e-06)
(1.4206557e-06 -1.4992305 5.0313456e-06)
(-1.3543087e-06 -1.4992296 5.0313412e-06)
(1.4684142e-06 -1.4992301 5.0313406e-06)
(-1.4684189e-06 -1.4992301 5.0313407e-06)
(1.3543045e-06 -1.4992296 5.0313406e-06)
(-1.4206579e-06 -1.4992305 5.0313457e-06)
(1.0494793e-06 -1.499229 5.0313414e-06)
(-1.1696544e-06 -1.4992309 5.0313728e-06)
(3.7195242e-07 -1.4992283 5.0313339e-06)
(-6.5418055e-07 -1.4992319 5.0314594e-06)
(-1.486597e-06 -1.4992272 5.0313015e-06)
(3.2478514e-07 -1.4992353 5.031543e-06)
(-7.6911571e-06 -1.4990679 5.0306022e-06)
(2.6915349e-06 1.7164697 -2.7640475e-06)
(-1.2179644e-06 1.7166461 -2.7682927e-06)
(-2.3225248e-06 1.7166449 -2.7681631e-06)
(-2.4231929e-07 1.7166475 -2.7684216e-06)
(-2.1026411e-06 1.7166453 -2.7683504e-06)
(-1.7884055e-07 1.7166483 -2.7683644e-06)
(-1.2271715e-06 1.7166461 -2.7683577e-06)
(-7.0090208e-08 1.7166482 -2.7683493e-06)
(-5.8656463e-07 1.716647 -2.7683512e-06)
(1.7901032e-07 1.7166477 -2.768347e-06)
(-1.7901067e-07 1.7166477 -2.7683469e-06)
(5.8656434e-07 1.716647 -2.7683512e-06)
(7.0090433e-08 1.7166482 -2.7683491e-06)
(1.2271724e-06 1.7166461 -2.7683578e-06)
(1.7884173e-07 1.7166483 -2.7683617e-06)
(2.102641e-06 1.7166453 -2.768348e-06)
(2.4231898e-07 1.7166475 -2.7684214e-06)
(2.3225217e-06 1.7166449 -2.7681705e-06)
(1.2179621e-06 1.7166461 -2.7682929e-06)
(-2.6915373e-06 1.7164697 -2.7640483e-06)
(7.8484746e-06 -2.0770542 4.3633115e-06)
(-9.991056e-07 -2.0772804 4.3669638e-06)
(3.7455172e-06 -2.0772737 4.367043e-06)
(1.0872859e-06 -2.0772799 4.3671492e-06)
(6.063878e-07 -2.0772746 4.3671425e-06)
(2.1225744e-06 -2.077279 4.3671381e-06)
(-1.0869422e-06 -2.0772756 4.3671379e-06)
(2.4550687e-06 -2.0772782 4.3671314e-06)
(-1.9455944e-06 -2.0772765 4.3671331e-06)
(2.3627797e-06 -2.0772774 4.367131e-06)
(-2.3627772e-06 -2.0772774 4.3671319e-06)
(1.9455975e-06 -2.0772765 4.3671331e-06)
(-2.4550664e-06 -2.0772782 4.3671314e-06)
(1.0869481e-06 -2.0772756 4.3671383e-06)
(-2.1225689e-06 -2.077279 4.3671382e-06)
(-6.0638041e-07 -2.0772746 4.3671415e-06)
(-1.0872792e-06 -2.0772799 4.3671499e-06)
(-3.7455127e-06 -2.0772737 4.3670436e-06)
(9.9910701e-07 -2.0772804 4.3669633e-06)
(-7.8484736e-06 -2.0770542 4.3633117e-06)
(-3.8355723e-06 2.3985909 -4.4100793e-06)
(-9.7803775e-07 2.3988511 -4.4067324e-06)
(-2.8849639e-06 2.3988412 -4.4068065e-06)
(-1.3348837e-06 2.3988513 -4.4065559e-06)
(-1.639827e-06 2.398843 -4.4065806e-06)
(-1.5393174e-06 2.3988501 -4.4065428e-06)
(-4.7099616e-07 2.3988447 -4.4065569e-06)
(-1.432418e-06 2.3988488 -4.4065432e-06)
(4.189292e-07 2.3988462 -4.4065488e-06)
(-1.0448335e-06 2.3988476 -4.4065456e-06)
(1.0448363e-06 2.3988476 -4.4065454e-06)
(-4.1892646e-07 2.3988462 -4.4065487e-06)
(1.4324221e-06 2.3988488 -4.4065439e-06)
(4.709983e-07 2.3988447 -4.4065568e-06)
(1.539322e-06 2.3988501 -4.4065421e-06)
(1.6398298e-06 2.398843 -4.4065811e-06)
(1.3348882e-06 2.3988513 -4.4065562e-06)
(2.8849656e-06 2.3988412 -4.4068057e-06)
(9.7803957e-07 2.3988511 -4.4067325e-06)
(3.8355714e-06 2.3985909 -4.4100797e-06)
(2.1254565e-05 -2.8844105 7.2722663e-06)
(-1.3479522e-06 -2.8847296 7.2714246e-06)
(5.0720632e-06 -2.8847192 7.271517e-06)
(3.6907971e-06 -2.8847292 7.2713359e-06)
(-5.4555587e-07 -2.8847205 7.2713281e-06)
(4.9624157e-06 -2.8847278 7.2713401e-06)
(-2.8069719e-06 -2.884722 7.2713141e-06)
(5.0139842e-06 -2.8847263 7.2713372e-06)
(-3.9215883e-06 -2.8847235 7.2713256e-06)
(4.6033892e-06 -2.8847249 7.2713272e-06)
(-4.6033785e-06 -2.8847249 7.2713337e-06)
(3.921597e-06 -2.8847235 7.271318e-06)
(-5.0139777e-06 -2.8847263 7.2713369e-06)
(2.8069739e-06 -2.884722 7.2713124e-06)
(-4.9624148e-06 -2.8847278 7.2713435e-06)
(5.4555152e-07 -2.8847205 7.271329e-06)
(-3.6907926e-06 -2.8847292 7.2713382e-06)
(-5.0720699e-06 -2.8847192 7.2715212e-06)
(1.3479503e-06 -2.8847296 7.2714237e-06)
(-2.1254566e-05 -2.8844105 7.2722676e-06)
(-1.7403978e-05 3.3530003 -6.6993509e-06)
(7.8287524e-07 3.3533982 -6.7011431e-06)
(-5.1060184e-06 3.3533648 -6.7013402e-06)
(-3.4257955e-06 3.3533886 -6.7012855e-06)
(-3.6360469e-07 3.3533701 -6.701286e-06)
(-4.5559549e-06 3.3533836 -6.701315e-06)
(1.8208227e-06 3.3533735 -6.7012816e-06)
(-4.5266374e-06 3.3533805 -6.7013142e-06)
(3.0909726e-06 3.3533759 -6.7012913e-06)
(-3.9670186e-06 3.3533781 -6.701304e-06)
(3.9670132e-06 3.3533781 -6.7013037e-06)
(-3.0909768e-06 3.3533759 -6.7012912e-06)
(4.5266323e-06 3.3533805 -6.7013145e-06)
(-1.8208265e-06 3.3533735 -6.7012817e-06)
(4.5559491e-06 3.3533836 -6.7013147e-06)
(3.636011e-07 3.3533701 -6.7012861e-06)
(3.4257903e-06 3.3533886 -6.7012892e-06)
(5.1060154e-06 3.3533648 -6.7013401e-06)
(-7.8287839e-07 3.3533982 -6.7011429e-06)
(1.7403978e-05 3.3530003 -6.6993504e-06)
(-1.3169499e-05 -4.0005839 -0.00011377028)
(1.7622418e-05 -4.0010606 -0.00011378154)
(-1.0637748e-05 -4.0010264 -0.00011378627)
(1.4537941e-05 -4.0010522 -0.0001137856)
(-9.4594246e-06 -4.0010317 -0.00011378564)
(1.238704e-05 -4.0010472 -0.00011378575)
(-9.1042776e-06 -4.0010353 -0.00011378565)
(1.0868151e-05 -4.0010436 -0.00011378572)
(-9.2670104e-06 -4.0010381 -0.00011378567)
(9.8493154e-06 -4.0010408 -0.0001137857)
(-9.8493147e-06 -4.0010408 -0.0001137857)
(9.2670087e-06 -4.0010381 -0.00011378567)
(-1.0868149e-05 -4.0010436 -0.00011378573)
(9.1042761e-06 -4.0010353 -0.00011378565)
(-1.2387038e-05 -4.0010472 -0.00011378575)
(9.4594231e-06 -4.0010317 -0.00011378564)
(-1.4537941e-05 -4.0010522 -0.00011378559)
(1.0637746e-05 -4.0010264 -0.00011378627)
(-1.7622414e-05 -4.0010606 -0.00011378153)
(1.3169497e-05 -4.0005839 -0.00011377028)
(-8.0112668e-05 0.8962531 5.3749788e-05)
(4.8052227e-06 0.89632122 5.3765487e-05)
(-8.5672055e-06 0.89633407 5.3761847e-05)
(1.1233484e-06 0.8963335 5.3762465e-05)
(-2.5179993e-06 0.89633388 5.3762233e-05)
(7.5828382e-07 0.8963348 5.3762325e-05)
(-1.448355e-06 0.89633417 5.3762277e-05)
(8.2453008e-07 0.896335 5.3762317e-05)
(-1.1154029e-06 0.89633453 5.3762295e-05)
(9.5118274e-07 0.89633484 5.376231e-05)
(-9.5119009e-07 0.89633484 5.376231e-05)
(1.1153969e-06 0.89633453 5.3762295e-05)
(-8.2453349e-07 0.896335 5.376232e-05)
(1.4483545e-06 0.89633417 5.3762275e-05)
(-7.5828131e-07 0.8963348 5.3762327e-05)
(2.5179999e-06 0.89633388 5.3762232e-05)
(-1.1233455e-06 0.8963335 5.3762463e-05)
(8.5672054e-06 0.89633407 5.3761845e-05)
(-4.8052273e-06 0.89632122 5.3765487e-05)
(8.0112666e-05 0.8962531 5.3749785e-05)
(1.5133235e-05 -1.086426 1.6853e-05)
(2.3011791e-06 -1.0865599 1.6853916e-05)
(-3.5453952e-06 -1.0865473 1.6854864e-05)
(1.0614409e-06 -1.0865499 1.6854856e-05)
(-1.9577295e-06 -1.0865482 1.6854934e-05)
(8.9500076e-07 -1.0865497 1.6854948e-05)
(-1.3607266e-06 -1.0865486 1.6854947e-05)
(9.979801e-07 -1.0865497 1.6854959e-05)
(-1.1899222e-06 -1.0865491 1.6854954e-05)
(1.101195e-06 -1.0865494 1.6854959e-05)
(-1.1012027e-06 -1.0865494 1.6854958e-05)
(1.1899154e-06 -1.0865491 1.6854954e-05)
(-9.9798381e-07 -1.0865497 1.6854958e-05)
(1.3607263e-06 -1.0865486 1.6854947e-05)
(-8.9499834e-07 -1.0865497 1.6854948e-05)
(1.9577317e-06 -1.0865482 1.6854935e-05)
(-1.0614366e-06 -1.0865499 1.6854856e-05)
(3.545392e-06 -1.0865473 1.6854864e-05)
(-2.3011814e-06 -1.0865599 1.6853916e-05)
(-1.513324e-05 -1.086426 1.6853002e-05)
(9.9332503e-06 1.2279411 1.01004e-05)
(5.0344394e-07 1.2280516 1.0101348e-05)
(-3.9629376e-06 1.2280604 1.0101467e-05)
(6.0739986e-07 1.2280584 1.0101359e-05)
(-2.4358655e-06 1.2280597 1.0101468e-05)
(4.74706e-07 1.2280607 1.0101444e-05)
(-1.4461707e-06 1.22806 1.0101463e-05)
(5.4770237e-07 1.2280612 1.010147e-05)
(-9.7223142e-07 1.2280605 1.0101471e-05)
(7.1417076e-07 1.228061 1.0101475e-05)
(-7.1417565e-07 1.228061 1.0101475e-05)
(9.7222727e-07 1.2280605 1.010147e-05)
(-5.4770466e-07 1.2280612 1.010147e-05)
(1.4461706e-06 1.22806 1.0101466e-05)
(-4.7470449e-07 1.2280607 1.0101444e-05)
(2.4358667e-06 1.2280597 1.0101468e-05)
(-6.0739893e-07 1.2280584 1.0101359e-05)
(3.9629353e-06 1.2280604 1.0101468e-05)
(-5.0344867e-07 1.2280516 1.0101348e-05)
(-9.9332536e-06 1.2279411 1.0100405e-05)
(7.6943806e-06 -1.4997021 1.0041673e-06)
(-3.2517623e-07 -1.4998696 1.0035598e-06)
(1.4871875e-06 -1.4998615 1.0035197e-06)
(6.5441493e-07 -1.4998662 1.0035986e-06)
(-3.7204348e-07 -1.4998626 1.0035307e-06)
(1.1700203e-06 -1.4998652 1.0035551e-06)
(-1.0497911e-06 -1.4998633 1.0035393e-06)
(1.4210732e-06 -1.4998649 1.0035382e-06)
(-1.3547088e-06 -1.4998639 1.0035382e-06)
(1.4688413e-06 -1.4998644 1.0035365e-06)
(-1.4688459e-06 -1.4998644 1.0035367e-06)
(1.3547044e-06 -1.4998639 1.0035385e-06)
(-1.4210756e-06 -1.4998649 1.0035383e-06)
(1.0497946e-06 -1.4998633 1.0035395e-06)
(-1.1700191e-06 -1.4998652 1.0035527e-06)
(3.7205208e-07 -1.4998626 1.0035311e-06)
(-6.5441434e-07 -1.4998662 1.0035996e-06)
(-1.4871823e-06 -1.4998615 1.0035203e-06)
(3.2517123e-07 -1.4998696 1.0035585e-06)
(-7.6943784e-06 -1.4997021 1.0041686e-06)
(2.6892722e-06 1.7171733 1.2690403e-06)
(-1.2203729e-06 1.7173497 1.2654959e-06)
(-2.3236022e-06 1.7173486 1.2655269e-06)
(-2.42698e-07 1.7173512 1.2652987e-06)
(-2.1034256e-06 1.7173489 1.2653532e-06)
(-1.7903662e-07 1.7173519 1.2653256e-06)
(-1.22762e-06 1.7173497 1.2653428e-06)
(-7.0183875e-08 1.7173518 1.2653439e-06)
(-5.8676955e-07 1.7173506 1.2653449e-06)
(1.7904436e-07 1.7173513 1.2653469e-06)
(-1.7904558e-07 1.7173513 1.2653461e-06)
(5.8677016e-07 1.7173506 1.2653445e-06)
(7.0182792e-08 1.7173518 1.2653437e-06)
(1.2276227e-06 1.7173497 1.2653433e-06)
(1.7903686e-07 1.7173519 1.2653222e-06)
(2.1034254e-06 1.7173489 1.265351e-06)
(2.4269744e-07 1.7173512 1.2652987e-06)
(2.3236011e-06 1.7173486 1.2655338e-06)
(1.2203679e-06 1.7173497 1.2654958e-06)
(-2.6892752e-06 1.7171733 1.2690416e-06)
(7.853392e-06 -2.0779343 8.6286398e-08)
(-9.9801462e-07 -2.0781607 8.8500607e-08)
(3.7469943e-06 -2.078154 8.8605407e-08)
(1.0878618e-06 -2.0781602 8.8707097e-08)
(6.0667743e-07 -2.0781549 8.8714964e-08)
(2.1233236e-06 -2.0781592 8.8707605e-08)
(-1.0872241e-06 -2.0781559 8.87168e-08)
(2.4558441e-06 -2.0781584 8.8706258e-08)
(-1.9461584e-06 -2.0781568 8.8712614e-08)
(2.3634882e-06 -2.0781576 8.8709247e-08)
(-2.3634865e-06 -2.0781576 8.8709038e-08)
(1.9461621e-06 -2.0781568 8.8712647e-08)
(-2.4558424e-06 -2.0781584 8.8706334e-08)
(1.08723e-06 -2.0781559 8.8716835e-08)
(-2.1233169e-06 -2.0781592 8.8707792e-08)
(-6.066704e-07 -2.0781549 8.8715503e-08)
(-1.0878568e-06 -2.0781602 8.8707051e-08)
(-3.7469881e-06 -2.078154 8.860523e-08)
(9.980156e-07 -2.0781607 8.8501144e-08)
(-7.8533907e-06 -2.0779343 8.6286048e-08)
(-3.8358588e-06 2.3995946 -2.4556662e-07)
(-9.7639433e-07 2.3998551 -2.4116524e-07)
(-2.886076e-06 2.3998451 -2.412048e-07)
(-1.3354371e-06 2.3998552 -2.4099522e-07)
(-1.640525e-06 2.3998469 -2.4099786e-07)
(-1.5399467e-06 2.399854 -2.4097841e-07)
(-4.7125683e-07 2.3998486 -2.4098404e-07)
(-1.4329322e-06 2.3998527 -2.4097783e-07)
(4.1900525e-07 2.3998502 -2.4098201e-07)
(-1.0451618e-06 2.3998515 -2.4097907e-07)
(1.045164e-06 2.3998515 -2.409794e-07)
(-4.1900237e-07 2.3998502 -2.4098156e-07)
(1.4329366e-06 2.3998527 -2.4097749e-07)
(4.7125841e-07 2.3998486 -2.4098489e-07)
(1.5399523e-06 2.399854 -2.4097772e-07)
(1.6405271e-06 2.3998469 -2.409973e-07)
(1.3354404e-06 2.3998552 -2.4099507e-07)
(2.8860787e-06 2.3998451 -2.412045e-07)
(9.7639643e-07 2.3998551 -2.4116592e-07)
(3.8358578e-06 2.3995946 -2.4556674e-07)
(2.1261307e-05 -2.885649 3.0141841e-06)
(-1.3496416e-06 -2.8859683 3.0112723e-06)
(5.0738018e-06 -2.8859579 3.0110795e-06)
(3.6922066e-06 -2.8859678 3.0110293e-06)
(-5.4559577e-07 -2.8859592 3.010953e-06)
(4.9641386e-06 -2.8859665 3.0109894e-06)
(-2.8077523e-06 -2.8859607 3.0109576e-06)
(5.0155975e-06 -2.885965 3.0109772e-06)
(-3.9227418e-06 -2.8859621 3.0109583e-06)
(4.6047977e-06 -2.8859636 3.0109709e-06)
(-4.6047869e-06 -2.8859636 3.0109651e-06)
(3.9227509e-06 -2.8859621 3.0109654e-06)
(-5.0155924e-06 -2.885965 3.0109772e-06)
(2.8077536e-06 -2.8859607 3.0109588e-06)
(-4.9641383e-06 -2.8859665 3.0109874e-06)
(5.4559585e-07 -2.8859592 3.0109487e-06)
(-3.6922121e-06 -2.8859678 3.0110261e-06)
(-5.0738014e-06 -2.8859579 3.0110777e-06)
(1.3496404e-06 -2.8859683 3.0112718e-06)
(-2.1261306e-05 -2.885649 3.0141821e-06)
(-1.7410938e-05 3.3544477 -2.1624218e-06)
(7.8291234e-07 3.3548458 -2.1623167e-06)
(-5.1079263e-06 3.3548123 -2.162236e-06)
(-3.4271986e-06 3.3548362 -2.1622927e-06)
(-3.639212e-07 3.3548177 -2.1622354e-06)
(-4.5575715e-06 3.3548312 -2.162275e-06)
(1.8212451e-06 3.3548211 -2.1622457e-06)
(-4.5281052e-06 3.3548281 -2.1622661e-06)
(3.091839e-06 3.3548235 -2.162254e-06)
(-3.9682177e-06 3.3548257 -2.1622599e-06)
(3.9682115e-06 3.3548257 -2.1622604e-06)
(-3.0918423e-06 3.3548235 -2.162254e-06)
(4.5280999e-06 3.3548281 -2.162266e-06)
(-1.8212488e-06 3.3548211 -2.1622459e-06)
(4.5575655e-06 3.3548312 -2.162275e-06)
(3.6391778e-07 3.3548177 -2.1622355e-06)
(3.4271934e-06 3.3548362 -2.1622886e-06)
(5.1079234e-06 3.3548123 -2.1622355e-06)
(-7.8291524e-07 3.3548458 -2.1623167e-06)
(1.7410939e-05 3.3544477 -2.1624214e-06)
(-1.3211989e-05 -4.0023458 0.00011998477)
(1.7635745e-05 -4.0028228 0.0001200145)
(-1.064325e-05 -4.0027885 0.00012000845)
(1.4543419e-05 -4.0028144 0.00012001006)
(-9.4624063e-06 -4.0027939 0.00012000929)
(1.2391217e-05 -4.0028093 0.0001200097)
(-9.1069781e-06 -4.0027975 0.00012000941)
(1.0871627e-05 -4.0028058 0.0001200096)
(-9.2697684e-06 -4.0028003 0.00012000948)
(9.8523323e-06 -4.0028029 0.00012000954)
(-9.8523317e-06 -4.0028029 0.00012000954)
(9.2697665e-06 -4.0028003 0.00012000948)
(-1.0871625e-05 -4.0028058 0.00012000961)
(9.1069765e-06 -4.0027975 0.00012000941)
(-1.2391215e-05 -4.0028093 0.0001200097)
(9.4624036e-06 -4.0027939 0.00012000929)
(-1.4543419e-05 -4.0028144 0.00012001006)
(1.0643247e-05 -4.0027885 0.00012000845)
(-1.7635743e-05 -4.0028228 0.00012001449)
(1.321199e-05 -4.0023458 0.00011998476)
(-8.0112668e-05 0.8962531 -5.3749808e-05)
(4.8052229e-06 0.89632122 -5.3765509e-05)
(-8.567206e-06 0.89633407 -5.3761869e-05)
(1.1233482e-06 0.8963335 -5.3762486e-05)
(-2.517999e-06 0.89633388 -5.3762255e-05)
(7.5828468e-07 0.8963348 -5.3762346e-05)
(-1.4483547e-06 0.89633417 -5.3762299e-05)
(8.245302e-07 0.896335 -5.376234e-05)
(-1.1154029e-06 0.89633453 -5.3762318e-05)
(9.5118277e-07 0.89633484 -5.3762332e-05)
(-9.5119032e-07 0.89633484 -5.3762332e-05)
(1.1153955e-06 0.89633453 -5.3762318e-05)
(-8.2453322e-07 0.896335 -5.3762341e-05)
(1.4483547e-06 0.89633417 -5.3762297e-05)
(-7.5828165e-07 0.8963348 -5.3762346e-05)
(2.5180007e-06 0.89633388 -5.3762254e-05)
(-1.1233458e-06 0.8963335 -5.3762486e-05)
(8.5672056e-06 0.89633407 -5.3761868e-05)
(-4.8052286e-06 0.89632122 -5.376551e-05)
(8.0112664e-05 0.8962531 -5.3749809e-05)
(1.5133234e-05 -1.086426 -1.6853028e-05)
(2.3011796e-06 -1.0865599 -1.6853946e-05)
(-3.5453964e-06 -1.0865473 -1.6854894e-05)
(1.0614418e-06 -1.0865499 -1.6854886e-05)
(-1.9577305e-06 -1.0865482 -1.6854965e-05)
(8.950017e-07 -1.0865497 -1.6854977e-05)
(-1.3607267e-06 -1.0865486 -1.6854977e-05)
(9.9798027e-07 -1.0865497 -1.6854989e-05)
(-1.1899218e-06 -1.0865491 -1.6854984e-05)
(1.101195e-06 -1.0865494 -1.6854988e-05)
(-1.1012027e-06 -1.0865494 -1.6854988e-05)
(1.1899146e-06 -1.0865491 -1.6854984e-05)
(-9.9798376e-07 -1.0865497 -1.685499e-05)
(1.3607269e-06 -1.0865486 -1.6854977e-05)
(-8.9499918e-07 -1.0865497 -1.6854977e-05)
(1.957733e-06 -1.0865482 -1.6854965e-05)
(-1.0614377e-06 -1.0865499 -1.6854886e-05)
(3.5453934e-06 -1.0865473 -1.6854894e-05)
(-2.3011819e-06 -1.0865599 -1.6853945e-05)
(-1.5133239e-05 -1.086426 -1.6853025e-05)
(9.93325e-06 1.2279411 -1.0100418e-05)
(5.0344637e-07 1.2280516 -1.0101366e-05)
(-3.9629398e-06 1.2280604 -1.0101486e-05)
(6.0740181e-07 1.2280584 -1.0101377e-05)
(-2.4358662e-06 1.2280597 -1.0101488e-05)
(4.7470653e-07 1.2280607 -1.0101461e-05)
(-1.446171e-06 1.22806 -1.0101481e-05)
(5.4770238e-07 1.2280612 -1.0101489e-05)
(-9.7223056e-07 1.2280605 -1.0101489e-05)
(7.1417056e-07 1.228061 -1.0101493e-05)
(-7.141756e-07 1.228061 -1.0101493e-05)
(9.7222619e-07 1.2280605 -1.0101489e-05)
(-5.4770443e-07 1.2280612 -1.0101489e-05)
(1.4461713e-06 1.22806 -1.0101484e-05)
(-4.747051e-07 1.2280607 -1.0101462e-05)
(2.4358675e-06 1.2280597 -1.0101486e-05)
(-6.0740038e-07 1.2280584 -1.0101378e-05)
(3.9629367e-06 1.2280604 -1.0101487e-05)
(-5.034502e-07 1.2280516 -1.0101366e-05)
(-9.9332534e-06 1.2279411 -1.0100421e-05)
(7.6943795e-06 -1.4997021 -1.0041729e-06)
(-3.2517497e-07 -1.4998696 -1.003566e-06)
(1.4871866e-06 -1.4998615 -1.0035262e-06)
(6.5441674e-07 -1.4998662 -1.0036054e-06)
(-3.7204469e-07 -1.4998626 -1.0035377e-06)
(1.1700201e-06 -1.4998652 -1.0035602e-06)
(-1.0497912e-06 -1.4998633 -1.0035446e-06)
(1.4210732e-06 -1.4998649 -1.0035435e-06)
(-1.3547077e-06 -1.4998639 -1.0035431e-06)
(1.4688409e-06 -1.4998644 -1.0035418e-06)
(-1.4688458e-06 -1.4998644 -1.0035418e-06)
(1.3547035e-06 -1.4998639 -1.0035434e-06)
(-1.421075e-06 -1.4998649 -1.0035439e-06)
(1.0497936e-06 -1.4998633 -1.0035445e-06)
(-1.1700183e-06 -1.4998652 -1.0035587e-06)
(3.7205195e-07 -1.4998626 -1.0035373e-06)
(-6.5441482e-07 -1.4998662 -1.003605e-06)
(-1.4871822e-06 -1.4998615 -1.0035259e-06)
(3.2517125e-07 -1.4998696 -1.0035638e-06)
(-7.6943785e-06 -1.4997021 -1.0041731e-06)
(2.6892732e-06 1.7171733 -1.2690437e-06)
(-1.2203706e-06 1.7173497 -1.2655014e-06)
(-2.3236054e-06 1.7173486 -1.2655318e-06)
(-2.426971e-07 1.7173512 -1.2653022e-06)
(-2.1034249e-06 1.7173489 -1.2653573e-06)
(-1.7903565e-07 1.7173519 -1.2653316e-06)
(-1.2276209e-06 1.7173497 -1.2653489e-06)
(-7.0182581e-08 1.7173518 -1.2653494e-06)
(-5.867694e-07 1.7173506 -1.2653505e-06)
(1.7904482e-07 1.7173513 -1.2653513e-06)
(-1.790454e-07 1.7173513 -1.2653516e-06)
(5.8676931e-07 1.7173506 -1.2653502e-06)
(7.0183044e-08 1.7173518 -1.2653496e-06)
(1.2276223e-06 1.7173497 -1.2653482e-06)
(1.7903724e-07 1.7173519 -1.2653266e-06)
(2.1034247e-06 1.7173489 -1.2653555e-06)
(2.4269538e-07 1.7173512 -1.2653021e-06)
(2.3236024e-06 1.7173486 -1.2655361e-06)
(1.2203696e-06 1.7173497 -1.2655004e-06)
(-2.6892754e-06 1.7171733 -1.2690464e-06)
(7.8533913e-06 -2.0779343 -8.6286361e-08)
(-9.9801323e-07 -2.0781607 -8.8502298e-08)
(3.7469898e-06 -2.078154 -8.8605942e-08)
(1.0878654e-06 -2.0781602 -8.8706741e-08)
(6.0667562e-07 -2.0781549 -8.8716439e-08)
(2.1233249e-06 -2.0781592 -8.8707312e-08)
(-1.087224e-06 -2.0781559 -8.8716455e-08)
(2.4558455e-06 -2.0781584 -8.870599e-08)
(-1.9461589e-06 -2.0781568 -8.8712702e-08)
(2.363488e-06 -2.0781576 -8.8709126e-08)
(-2.3634856e-06 -2.0781576 -8.8709576e-08)
(1.9461605e-06 -2.0781568 -8.8713171e-08)
(-2.4558414e-06 -2.0781584 -8.8705954e-08)
(1.0872298e-06 -2.0781559 -8.871769e-08)
(-2.1233172e-06 -2.0781592 -8.8707046e-08)
(-6.0667012e-07 -2.0781549 -8.871542e-08)
(-1.0878572e-06 -2.0781602 -8.8707598e-08)
(-3.746988e-06 -2.078154 -8.8606679e-08)
(9.9801582e-07 -2.0781607 -8.8502319e-08)
(-7.8533908e-06 -2.0779343 -8.6286561e-08)
(-3.8358583e-06 2.3995946 2.4556563e-07)
(-9.7639526e-07 2.3998551 2.4116532e-07)
(-2.8860743e-06 2.3998451 2.4120442e-07)
(-1.3354382e-06 2.3998552 2.4099418e-07)
(-1.6405248e-06 2.3998469 2.4099682e-07)
(-1.5399474e-06 2.399854 2.4097727e-07)
(-4.7125779e-07 2.3998486 2.409841e-07)
(-1.4329293e-06 2.3998527 2.4097606e-07)
(4.1900412e-07 2.3998502 2.4098032e-07)
(-1.0451618e-06 2.3998515 2.4097811e-07)
(1.0451644e-06 2.3998515 2.4097761e-07)
(-4.1900351e-07 2.3998502 2.409806e-07)
(1.4329375e-06 2.3998527 2.4097716e-07)
(4.7125817e-07 2.3998486 2.4098382e-07)
(1.5399527e-06 2.399854 2.4097738e-07)
(1.6405272e-06 2.3998469 2.4099757e-07)
(1.3354406e-06 2.3998552 2.409945e-07)
(2.8860779e-06 2.3998451 2.412035e-07)
(9.7639664e-07 2.3998551 2.4116478e-07)
(3.8358578e-06 2.3995946 2.4556521e-07)
(2.1261306e-05 -2.885649 -3.0141846e-06)
(-1.3496441e-06 -2.8859683 -3.0112711e-06)
(5.0738045e-06 -2.8859579 -3.0110786e-06)
(3.6922066e-06 -2.8859678 -3.0110289e-06)
(-5.4559591e-07 -2.8859592 -3.0109514e-06)
(4.9641387e-06 -2.8859665 -3.0109892e-06)
(-2.8077524e-06 -2.8859607 -3.0109563e-06)
(5.0156007e-06 -2.885965 -3.0109773e-06)
(-3.9227428e-06 -2.8859621 -3.0109592e-06)
(4.6047962e-06 -2.8859636 -3.0109701e-06)
(-4.6047871e-06 -2.8859636 -3.0109631e-06)
(3.9227523e-06 -2.8859621 -3.0109653e-06)
(-5.0155924e-06 -2.885965 -3.0109777e-06)
(2.8077555e-06 -2.8859607 -3.0109589e-06)
(-4.9641383e-06 -2.8859665 -3.0109871e-06)
(5.4559548e-07 -2.8859592 -3.0109501e-06)
(-3.6922118e-06 -2.8859678 -3.0110271e-06)
(-5.0738056e-06 -2.8859579 -3.0110769e-06)
(1.3496396e-06 -2.8859683 -3.0112713e-06)
(-2.1261307e-05 -2.885649 -3.0141823e-06)
(-1.7410938e-05 3.3544477 2.1624215e-06)
(7.8291114e-07 3.3548458 2.1623167e-06)
(-5.1079257e-06 3.3548123 2.162236e-06)
(-3.4271985e-06 3.3548362 2.1622924e-06)
(-3.6392101e-07 3.3548177 2.1622348e-06)
(-4.5575712e-06 3.3548312 2.1622752e-06)
(1.8212452e-06 3.3548211 2.1622459e-06)
(-4.5281055e-06 3.3548281 2.1622663e-06)
(3.0918381e-06 3.3548235 2.1622539e-06)
(-3.9682169e-06 3.3548257 2.1622605e-06)
(3.9682114e-06 3.3548257 2.1622601e-06)
(-3.091842e-06 3.3548235 2.1622538e-06)
(4.5280999e-06 3.3548281 2.1622663e-06)
(-1.8212488e-06 3.3548211 2.1622461e-06)
(4.5575655e-06 3.3548312 2.162275e-06)
(3.6391754e-07 3.3548177 2.162235e-06)
(3.4271937e-06 3.3548362 2.1622885e-06)
(5.1079225e-06 3.3548123 2.1622365e-06)
(-7.8291437e-07 3.3548458 2.1623173e-06)
(1.7410938e-05 3.3544477 2.1624215e-06)
(-1.321199e-05 -4.0023458 -0.00011998477)
(1.7635742e-05 -4.0028228 -0.0001200145)
(-1.0643244e-05 -4.0027885 -0.00012000845)
(1.4543419e-05 -4.0028144 -0.00012001007)
(-9.462406e-06 -4.0027939 -0.00012000929)
(1.2391216e-05 -4.0028093 -0.0001200097)
(-9.1069778e-06 -4.0027975 -0.00012000941)
(1.0871627e-05 -4.0028058 -0.0001200096)
(-9.2697685e-06 -4.0028003 -0.00012000948)
(9.8523321e-06 -4.0028029 -0.00012000954)
(-9.8523315e-06 -4.0028029 -0.00012000954)
(9.2697662e-06 -4.0028003 -0.00012000948)
(-1.0871625e-05 -4.0028058 -0.00012000961)
(9.1069767e-06 -4.0027975 -0.00012000941)
(-1.2391215e-05 -4.0028093 -0.0001200097)
(9.4624053e-06 -4.0027939 -0.00012000929)
(-1.4543419e-05 -4.0028144 -0.00012001006)
(1.0643245e-05 -4.0027885 -0.00012000845)
(-1.7635743e-05 -4.0028228 -0.00012001449)
(1.321199e-05 -4.0023458 -0.00011998476)
(-8.0059415e-05 0.89594967 0.00015052205)
(4.8001044e-06 0.89601777 0.00015053758)
(-8.5627797e-06 0.89603061 0.0001505444)
(1.1229572e-06 0.89603004 0.00015054355)
(-2.5170693e-06 0.89603042 0.00015054399)
(7.5810728e-07 0.89603134 0.00015054404)
(-1.4478759e-06 0.8960307 0.00015054402)
(8.2431472e-07 0.89603154 0.00015054411)
(-1.1150561e-06 0.89603107 0.00015054406)
(9.5090894e-07 0.89603138 0.0001505441)
(-9.5091647e-07 0.89603138 0.0001505441)
(1.1150491e-06 0.89603107 0.00015054406)
(-8.2431778e-07 0.89603154 0.00015054411)
(1.4478718e-06 0.8960307 0.00015054402)
(-7.5810037e-07 0.89603134 0.00015054404)
(2.5170705e-06 0.89603042 0.00015054399)
(-1.1229546e-06 0.89603004 0.00015054355)
(8.5627789e-06 0.89603061 0.0001505444)
(-4.8001095e-06 0.89601777 0.00015053758)
(8.0059412e-05 0.89594967 0.00015052205)
(1.5127929e-05 -1.0859288 -1.829413e-05)
(2.3003464e-06 -1.0860625 -1.8296263e-05)
(-3.5448493e-06 -1.08605 -1.8297229e-05)
(1.0611945e-06 -1.0860526 -1.8297256e-05)
(-1.9571586e-06 -1.0860508 -1.8297308e-05)
(8.9478156e-07 -1.0860523 -1.829734e-05)
(-1.3603045e-06 -1.0860513 -1.8297324e-05)
(9.9771366e-07 -1.0860523 -1.8297347e-05)
(-1.1895653e-06 -1.0860517 -1.8297335e-05)
(1.1008831e-06 -1.0860521 -1.8297343e-05)
(-1.1008908e-06 -1.0860521 -1.8297343e-05)
(1.189558e-06 -1.0860517 -1.8297335e-05)
(-9.9771735e-07 -1.0860523 -1.8297347e-05)
(1.3603048e-06 -1.0860513 -1.8297324e-05)
(-8.9477896e-07 -1.0860523 -1.829734e-05)
(1.9571611e-06 -1.0860508 -1.8297308e-05)
(-1.0611905e-06 -1.0860526 -1.8297256e-05)
(3.5448466e-06 -1.08605 -1.829723e-05)
(-2.300348e-06 -1.0860625 -1.8296263e-05)
(-1.5127933e-05 -1.0859288 -1.8294128e-05)
(9.9308362e-06 1.2274586 -6.6402882e-06)
(5.0341501e-07 1.227569 -6.64098e-06)
(-3.9614888e-06 1.2275777 -6.6413098e-06)
(6.0739749e-07 1.2275758 -6.6411674e-06)
(-2.4350492e-06 1.227577 -6.641302e-06)
(4.7466686e-07 1.227578 -6.6412837e-06)
(-1.4456929e-06 1.2275773 -6.641304e-06)
(5.475925e-07 1.2275785 -6.6413146e-06)
(-9.7192691e-07 1.2275779 -6.6413101e-06)
(7.1397653e-07 1.2275783 -6.6413173e-06)
(-7.1398152e-07 1.2275783 -6.641317e-06)
(9.7192245e-07 1.2275779 -6.6413102e-06)
(-5.4759438e-07 1.2275785 -6.6413146e-06)
(1.4456929e-06 1.2275773 -6.6413017e-06)
(-4.7466528e-07 1.227578 -6.6412831e-06)
(2.4350504e-06 1.227577 -6.641302e-06)
(-6.0739612e-07 1.2275758 -6.6411675e-06)
(3.9614856e-06 1.2275777 -6.6413095e-06)
(-5.0341842e-07 1.227569 -6.6409801e-06)
(-9.930839e-06 1.2274586 -6.6402823e-06)
(7.6911582e-06 -1.4990679 -5.0306046e-06)
(-3.2478867e-07 -1.4992353 -5.0315437e-06)
(1.4866012e-06 -1.4992272 -5.031305e-06)
(6.541812e-07 -1.4992319 -5.0314616e-06)
(-3.7194368e-07 -1.4992283 -5.0313353e-06)
(1.1696561e-06 -1.4992309 -5.0313732e-06)
(-1.0494767e-06 -1.499229 -5.0313444e-06)
(1.420656e-06 -1.4992305 -5.0313486e-06)
(-1.3543087e-06 -1.4992296 -5.0313433e-06)
(1.4684143e-06 -1.4992301 -5.0313428e-06)
(-1.4684191e-06 -1.4992301 -5.0313431e-06)
(1.3543045e-06 -1.4992296 -5.0313436e-06)
(-1.4206582e-06 -1.4992305 -5.0313488e-06)
(1.0494795e-06 -1.499229 -5.0313441e-06)
(-1.1696541e-06 -1.4992309 -5.031375e-06)
(3.7195238e-07 -1.4992283 -5.0313354e-06)
(-6.5417952e-07 -1.4992319 -5.031462e-06)
(-1.4865982e-06 -1.4992272 -5.0313045e-06)
(3.2478567e-07 -1.4992353 -5.0315451e-06)
(-7.6911566e-06 -1.4990679 -5.0306038e-06)
(2.6915349e-06 1.7164697 2.7640442e-06)
(-1.2179643e-06 1.7166461 2.7682918e-06)
(-2.3225249e-06 1.7166449 2.7681617e-06)
(-2.4231942e-07 1.7166475 2.7684183e-06)
(-2.1026413e-06 1.7166453 2.7683479e-06)
(-1.7884069e-07 1.7166483 2.7683633e-06)
(-1.2271714e-06 1.7166461 2.7683558e-06)
(-7.0090046e-08 1.7166482 2.7683478e-06)
(-5.8656427e-07 1.716647 2.76835e-06)
(1.7901017e-07 1.7166477 2.7683453e-06)
(-1.7901089e-07 1.7166477 2.7683455e-06)
(5.865643e-07 1.716647 2.7683497e-06)
(7.0090475e-08 1.7166482 2.7683479e-06)
(1.2271726e-06 1.7166461 2.7683561e-06)
(1.7884191e-07 1.7166483 2.7683592e-06)
(2.102641e-06 1.7166453 2.7683468e-06)
(2.4231873e-07 1.7166475 2.7684181e-06)
(2.3225217e-06 1.7166449 2.7681662e-06)
(1.2179623e-06 1.7166461 2.7682912e-06)
(-2.6915373e-06 1.7164697 2.764047e-06)
(7.8484745e-06 -2.0770542 -4.3633116e-06)
(-9.9910595e-07 -2.0772804 -4.3669624e-06)
(3.7455173e-06 -2.0772737 -4.3670434e-06)
(1.0872858e-06 -2.0772799 -4.3671499e-06)
(6.0638795e-07 -2.0772746 -4.3671419e-06)
(2.1225746e-06 -2.077279 -4.3671386e-06)
(-1.0869421e-06 -2.0772756 -4.3671383e-06)
(2.4550685e-06 -2.0772782 -4.3671317e-06)
(-1.9455944e-06 -2.0772765 -4.3671333e-06)
(2.3627799e-06 -2.0772774 -4.3671313e-06)