/*--------------------------------*- C++ -*----------------------------------*\
  =========                 |
  \\      /  F ield         | OpenFOAM: The Open Source CFD Toolbox
   \\    /   O peration     | Website:  https://openfoam.org
    \\  /    A nd           | Version:  8
     \\/     M anipulation  |
\*---------------------------------------------------------------------------*/
FoamFile
{
    version     2.0;
    format      ascii;
    class       volScalarField;
    location    "2.999969291";
    object      nut;
}
// * * * * * * * * * * * * * * * * * * * * * * * * * * * * * * * * * * * * * //

dimensions      [0 2 -1 0 0 0 0];

internalField   nonuniform List<scalar> 
6800
(
0.0759658
0.10802
0.111896
0.110896
0.110949
0.0948847
0.0760802
0.0568551
0.0464644
0.0474579
0.061392
0.0987418
0.107692
0.106802
0.100045
0.0774611
0.057053
0.04939
0.0455681
0.0383916
0.0610552
0.0965986
0.105818
0.100423
0.0820479
0.0607123
0.051186
0.0450315
0.0351232
0.0318136
0.0625378
0.0943111
0.100752
0.0924307
0.0698591
0.0566532
0.0465125
0.0377558
0.0325749
0.0305281
0.0624575
0.0934348
0.0984097
0.0838147
0.0614558
0.0485517
0.0397066
0.0354179
0.0311011
0.0265494
0.0629335
0.095582
0.0953178
0.0726954
0.0549148
0.0467109
0.0393926
0.032828
0.0274536
0.0251627
0.0627426
0.0976012
0.0919999
0.0674375
0.0541661
0.0420641
0.0343474
0.0292437
0.0263262
0.0245412
0.0629356
0.101054
0.0862232
0.0585293
0.0462055
0.0404496
0.0330482
0.0291268
0.0249799
0.0230741
0.0628367
0.103548
0.0776929
0.0613026
0.0496299
0.0372866
0.0304515
0.0265871
0.0237712
0.0226693
0.0630994
0.105878
0.073802
0.0534125
0.0404186
0.0360978
0.0295491
0.0261626
0.0233513
0.0217422
0.070982
0.384206
0.718306
0.937114
0.990839
1.01489
1.03642
1.05932
1.07417
1.07994
0.0712849
0.372209
0.701501
0.898436
0.943913
0.95891
0.970551
0.977602
0.973175
0.967244
0.0654674
0.328133
0.661393
0.826433
0.863466
0.870768
0.867849
0.864151
0.862318
0.848553
0.0611709
0.289307
0.600193
0.732045
0.75958
0.748556
0.737372
0.720277
0.68528
0.611283
0.313944
0.391407
0.570457
0.636015
0.626875
0.609541
0.582351
0.516426
0.466048
0.352138
0.360576
0.436037
0.522623
0.522559
0.507698
0.460295
0.393185
0.295476
0.238065
0.170454
0.378979
0.421087
0.431817
0.41545
0.355966
0.268907
0.197892
0.152024
0.138592
0.10729
0.404526
0.337758
0.296252
0.276321
0.197501
0.157094
0.133085
0.11077
0.105847
0.0856768
0.330264
0.274127
0.23696
0.161973
0.134203
0.121491
0.107844
0.096284
0.0923362
0.066911
0.241659
0.164086
0.141004
0.123307
0.117489
0.109981
0.0951683
0.0835003
0.0601449
0.0483483
1.08299
1.07061
1.05175
1.03146
1.01233
0.995195
0.980061
0.967263
0.956353
0.946826
0.938371
0.930787
0.923947
0.917764
0.91217
0.907102
0.902499
0.898307
0.894478
0.890974
0.887759
0.884806
0.882081
0.879569
0.877236
0.875038
0.872951
0.870967
0.869064
0.867218
0.865426
0.863689
0.862011
0.860393
0.858838
0.857344
0.855914
0.854544
0.853234
0.85198
0.85078
0.849633
0.848541
0.847501
0.846514
0.845577
0.844688
0.843848
0.84306
0.842324
0.841641
0.841009
0.840429
0.839899
0.839417
0.838983
0.838595
0.838249
0.837943
0.837674
0.837439
0.837235
0.837056
0.836899
0.836761
0.836637
0.836524
0.836419
0.836319
0.836222
0.836126
0.83603
0.835935
0.835839
0.835742
0.835645
0.835548
0.835453
0.835357
0.835265
0.835172
0.835088
0.835
0.834928
0.834844
0.834789
0.834707
0.834679
0.834591
0.834606
0.834499
0.834578
0.834434
0.834607
0.834389
0.834668
0.834482
0.834562
0.835565
0.834111
0.969852
0.965933
0.954789
0.942151
0.929906
0.918572
0.908297
0.899647
0.892063
0.885325
0.879313
0.873948
0.869168
0.864921
0.86115
0.857789
0.854776
0.852065
0.849621
0.847419
0.845434
0.843647
0.842032
0.840589
0.839232
0.837909
0.83665
0.835469
0.834311
0.833154
0.832042
0.830989
0.829998
0.829067
0.828192
0.827368
0.826593
0.82586
0.825172
0.824513
0.823895
0.823323
0.822798
0.822314
0.821867
0.821454
0.82107
0.820724
0.820426
0.820167
0.819943
0.819754
0.819597
0.819474
0.819384
0.819325
0.819297
0.819298
0.819327
0.819379
0.819455
0.819549
0.819655
0.819772
0.819893
0.82002
0.820146
0.820269
0.820388
0.820502
0.820611
0.820715
0.820815
0.820911
0.821003
0.821092
0.821178
0.821264
0.821347
0.821433
0.821516
0.821605
0.821687
0.821785
0.821865
0.821976
0.822052
0.822185
0.822247
0.822418
0.822454
0.822687
0.822677
0.823004
0.822912
0.823354
0.823271
0.823522
0.824649
0.823383
0.853887
0.85439
0.845924
0.836799
0.828306
0.820624
0.813821
0.806904
0.800494
0.794861
0.789999
0.785861
0.782386
0.779521
0.777152
0.775193
0.773567
0.772231
0.771155
0.770315
0.769692
0.769262
0.76901
0.768896
0.768949
0.769167
0.769519
0.769917
0.770489
0.771216
0.77202
0.772856
0.773701
0.774536
0.775352
0.776142
0.7769
0.777623
0.778319
0.778961
0.779627
0.780318
0.781001
0.781666
0.782305
0.782917
0.783508
0.784072
0.784606
0.785121
0.785627
0.78613
0.786634
0.787143
0.787659
0.788183
0.788716
0.789256
0.789803
0.790353
0.790912
0.79146
0.791992
0.792514
0.793024
0.793528
0.794003
0.79446
0.794901
0.795332
0.795753
0.796166
0.79657
0.796968
0.797356
0.79774
0.798117
0.798493
0.798864
0.799235
0.799598
0.799966
0.800319
0.800686
0.801026
0.801397
0.80172
0.802105
0.802402
0.802817
0.803072
0.803546
0.803746
0.804316
0.804416
0.805101
0.805206
0.80571
0.80701
0.805977
0.607909
0.61064
0.611547
0.612546
0.614373
0.616683
0.61937
0.622628
0.62606
0.629691
0.633382
0.637137
0.641051
0.645065
0.649014
0.652831
0.656466
0.659965
0.663364
0.666696
0.669981
0.673227
0.67644
0.679608
0.682728
0.685795
0.688801
0.691756
0.694591
0.697313
0.699958
0.702523
0.705013
0.707416
0.709729
0.711954
0.714083
0.716137
0.718085
0.720001
0.721748
0.72335
0.724841
0.726261
0.727619
0.728943
0.730232
0.731506
0.732764
0.734014
0.73526
0.736505
0.737749
0.738993
0.740237
0.74148
0.742721
0.74396
0.745193
0.746421
0.747634
0.748845
0.750053
0.751249
0.752432
0.753592
0.754759
0.75592
0.757066
0.758193
0.759296
0.760377
0.761429
0.762461
0.76346
0.764448
0.765421
0.766381
0.767317
0.768238
0.76913
0.770012
0.770857
0.771704
0.772502
0.773323
0.77407
0.774878
0.775569
0.776386
0.777008
0.777862
0.778393
0.77932
0.779723
0.780757
0.781125
0.781995
0.783567
0.782894
0.341013
0.336917
0.336818
0.340032
0.346069
0.354024
0.363197
0.373199
0.383356
0.394127
0.404855
0.415577
0.426921
0.437796
0.447764
0.457105
0.465936
0.474571
0.48304
0.491357
0.499536
0.507567
0.515448
0.523154
0.530686
0.538015
0.54515
0.552064
0.558785
0.565263
0.571555
0.577592
0.583398
0.588929
0.594191
0.599218
0.604031
0.608649
0.613095
0.617368
0.621525
0.62558
0.629508
0.633344
0.637054
0.640696
0.644216
0.647691
0.651076
0.65439
0.657635
0.660802
0.663899
0.666926
0.669883
0.672774
0.675597
0.678356
0.681051
0.683684
0.686251
0.688754
0.691192
0.69357
0.695885
0.698142
0.700331
0.702463
0.704537
0.706563
0.708536
0.710465
0.712344
0.714179
0.715972
0.71771
0.719383
0.721011
0.722586
0.724128
0.725618
0.72709
0.728502
0.729914
0.731253
0.732619
0.733885
0.735224
0.736412
0.737747
0.738846
0.74021
0.741204
0.742637
0.743483
0.745013
0.745807
0.747198
0.749107
0.74916
0.167781
0.166479
0.16605
0.166665
0.168312
0.170872
0.174237
0.178338
0.182863
0.188708
0.194434
0.200668
0.208145
0.21516
0.22423
0.233251
0.243092
0.253698
0.264458
0.275429
0.286617
0.297965
0.309393
0.32081
0.332178
0.343394
0.354487
0.365343
0.376019
0.386395
0.396575
0.406097
0.415203
0.423538
0.431632
0.439557
0.447292
0.454858
0.462249
0.469497
0.476577
0.483543
0.49034
0.49705
0.503567
0.51005
0.516255
0.522582
0.528595
0.534545
0.540332
0.545911
0.551348
0.556638
0.561788
0.566804
0.571679
0.576441
0.581098
0.585621
0.590027
0.594322
0.598505
0.602588
0.606565
0.610453
0.614237
0.617939
0.621539
0.625066
0.628488
0.631847
0.635094
0.638289
0.641367
0.6444
0.647344
0.650232
0.653039
0.65579
0.658445
0.661062
0.663577
0.666077
0.668457
0.67086
0.67311
0.675441
0.677561
0.679849
0.681831
0.684111
0.685942
0.688262
0.689897
0.692286
0.693799
0.696114
0.698456
0.699824
0.106084
0.104672
0.10339
0.102478
0.101792
0.101389
0.101136
0.101189
0.101441
0.101921
0.102766
0.103635
0.105059
0.106457
0.107895
0.10985
0.112076
0.114384
0.117141
0.120186
0.12409
0.128482
0.133241
0.138396
0.144081
0.150243
0.156833
0.163807
0.171214
0.178989
0.187141
0.195951
0.205591
0.21569
0.225985
0.23647
0.247039
0.257689
0.268308
0.278914
0.289397
0.299795
0.310011
0.320089
0.329958
0.339648
0.349138
0.358396
0.367534
0.376218
0.38457
0.392496
0.400246
0.407794
0.41521
0.422462
0.429629
0.436726
0.443772
0.450391
0.456997
0.46349
0.469851
0.476102
0.482211
0.488214
0.494064
0.499814
0.505398
0.510883
0.516176
0.521388
0.526378
0.531338
0.536028
0.540773
0.545275
0.549754
0.554081
0.558288
0.562347
0.566374
0.570247
0.57411
0.577796
0.581528
0.58504
0.588667
0.592002
0.595554
0.598702
0.602215
0.605156
0.608677
0.611364
0.614932
0.617349
0.620944
0.623824
0.627247
0.0845373
0.0830723
0.0816988
0.0804336
0.0791743
0.0779976
0.0767692
0.075627
0.0742273
0.072961
0.0713281
0.0699956
0.0682965
0.0669175
0.065779
0.0647746
0.0640033
0.0632777
0.0628012
0.0623873
0.0622974
0.062223
0.0625966
0.0628748
0.0636868
0.0645693
0.065309
0.0665028
0.0680947
0.0698595
0.0718625
0.0741371
0.0767166
0.0796865
0.0829827
0.0867408
0.0908234
0.0953878
0.100274
0.105663
0.111366
0.117566
0.124054
0.131029
0.138251
0.145946
0.153829
0.162169
0.170612
0.179634
0.188999
0.198833
0.208787
0.218841
0.228918
0.238985
0.248983
0.258916
0.268735
0.278412
0.287886
0.297193
0.306264
0.31516
0.323798
0.332274
0.340478
0.348547
0.356244
0.363727
0.370868
0.377857
0.384602
0.391278
0.397727
0.404131
0.410332
0.416514
0.422483
0.428477
0.434199
0.440024
0.445518
0.451045
0.456359
0.461791
0.466874
0.472159
0.476996
0.482159
0.486723
0.49179
0.496049
0.501075
0.504971
0.509996
0.513521
0.518675
0.521884
0.528127
0.0650031
0.0630875
0.0612899
0.0594016
0.0576303
0.0558571
0.0543055
0.0527568
0.0514869
0.0502042
0.0492099
0.0480809
0.0470446
0.0459549
0.0450083
0.0441604
0.0434228
0.042754
0.0421743
0.0416429
0.0411898
0.0407728
0.0404302
0.0401158
0.0398704
0.039654
0.0395101
0.0393676
0.0393204
0.0392643
0.0393282
0.039358
0.0395452
0.0396698
0.0399862
0.0403551
0.0407246
0.0411583
0.0416555
0.042499
0.0432658
0.0442546
0.0453091
0.0466163
0.0480115
0.0496968
0.0515083
0.0536412
0.0559465
0.0586158
0.0615017
0.0648138
0.0683786
0.0723999
0.0766825
0.0814435
0.0864699
0.0919714
0.0977341
0.103959
0.110416
0.117301
0.124372
0.131826
0.139412
0.147325
0.155314
0.163565
0.171937
0.180646
0.189375
0.198354
0.207163
0.216105
0.224803
0.233598
0.24208
0.250649
0.25884
0.267133
0.274984
0.282972
0.290461
0.298142
0.305241
0.312646
0.319364
0.326532
0.332871
0.339753
0.345597
0.352271
0.357619
0.364196
0.369152
0.375793
0.380091
0.387171
0.390586
0.400235
0.0474823
0.0459557
0.0443938
0.0430914
0.041979
0.0409904
0.0401022
0.0392806
0.0385333
0.0378229
0.0371591
0.0365392
0.0359659
0.0354341
0.0349373
0.0344773
0.0340478
0.0336514
0.0332818
0.0329424
0.0326264
0.0323376
0.0320688
0.0318246
0.0315976
0.0313923
0.031201
0.0310297
0.0308691
0.0307287
0.0305935
0.0304822
0.0303699
0.0302841
0.0301947
0.0301414
0.0300653
0.0300426
0.0299977
0.0299975
0.0299673
0.0299975
0.0299757
0.0300474
0.0300367
0.030157
0.0301865
0.0303502
0.0305711
0.0307779
0.0308713
0.0312825
0.0312864
0.0318105
0.0320443
0.0328169
0.0332449
0.0341393
0.034827
0.0358973
0.036866
0.0381983
0.039454
0.0411309
0.0427245
0.0448066
0.0467895
0.0493313
0.0517524
0.0548095
0.0577252
0.0613537
0.0648047
0.0690346
0.0730259
0.077862
0.0823775
0.0878061
0.0928095
0.0987998
0.104236
0.110743
0.116538
0.12351
0.129576
0.136952
0.143189
0.150913
0.157215
0.165352
0.171739
0.180248
0.186555
0.195365
0.201377
0.210451
0.215911
0.225529
0.228203
0.243807
0.0384062
0.0375368
0.0366902
0.0358819
0.0351272
0.0344258
0.0337691
0.033165
0.0325946
0.0320782
0.0316084
0.0311835
0.0307897
0.0304309
0.030094
0.0297873
0.0294964
0.0292323
0.0289808
0.0287538
0.028534
0.0283351
0.0281398
0.0279623
0.0277861
0.0276255
0.0274649
0.0273184
0.027171
0.0270369
0.026901
0.0267781
0.0266518
0.0265391
0.0264205
0.0263169
0.0262044
0.0261163
0.0260155
0.0259415
0.0258507
0.0257898
0.0257075
0.0256588
0.0255843
0.0255461
0.0254809
0.0254518
0.0253971
0.02538
0.0253343
0.025328
0.0252919
0.0252954
0.0252708
0.025286
0.0252792
0.0253073
0.0253207
0.0253653
0.0254029
0.0254699
0.0255403
0.0256349
0.0257551
0.0258761
0.0259824
0.026218
0.0263605
0.0266518
0.0268407
0.0272347
0.0274873
0.0280101
0.0283454
0.0290367
0.029462
0.0303724
0.0309189
0.0320925
0.0327844
0.0342812
0.0351467
0.0370055
0.0380865
0.0403774
0.0416887
0.0444566
0.0460406
0.0493199
0.0512018
0.0550437
0.0572261
0.0616818
0.0641401
0.0691918
0.0717715
0.0772025
0.0809898
0.0878618
0.0318243
0.0314083
0.0309976
0.0305928
0.0301857
0.029779
0.0293898
0.0290141
0.0286636
0.0283313
0.0280238
0.0277328
0.0274635
0.0272083
0.0269717
0.0267471
0.0265389
0.0263412
0.026155
0.0259762
0.0258071
0.025645
0.0254908
0.0253432
0.0252018
0.025067
0.0249368
0.0248138
0.0246938
0.0245817
0.0244714
0.0243696
0.0242682
0.0241761
0.0240828
0.0239997
0.0239137
0.0238391
0.0237594
0.0236928
0.0236187
0.0235598
0.0234909
0.0234392
0.0233747
0.0233297
0.0232688
0.0232299
0.023172
0.0231387
0.0230834
0.0230552
0.0230023
0.0229782
0.0229277
0.0229069
0.0228594
0.0228415
0.0227975
0.0227831
0.0227426
0.0227289
0.02269
0.0226769
0.0226368
0.0226308
0.0225969
0.022599
0.0225704
0.02258
0.0225575
0.022573
0.0225598
0.0225793
0.0225789
0.0225982
0.0226192
0.0226354
0.0226859
0.022703
0.0227804
0.0228094
0.022913
0.0230033
0.0230929
0.0232104
0.0233095
0.023492
0.0236009
0.0238577
0.0240407
0.0244215
0.0245866
0.0251866
0.0253834
0.0260574
0.0263709
0.0274784
0.0288251
0.0290297
0.027478
0.0272379
0.026991
0.0267307
0.0264697
0.0262047
0.0259474
0.0256912
0.025447
0.0252061
0.0249792
0.0247564
0.0245483
0.0243443
0.024155
0.0239693
0.0237976
0.023629
0.0234736
0.0233209
0.0231807
0.0230428
0.0229166
0.0227924
0.0226792
0.0225676
0.0224661
0.0223659
0.0222748
0.0221848
0.0221028
0.0220219
0.021948
0.0218751
0.0218083
0.0217427
0.0216823
0.0216232
0.0215684
0.0215153
0.0214654
0.0214178
0.0213723
0.0213296
0.0212878
0.0212496
0.021211
0.0211769
0.0211411
0.0211107
0.0210773
0.0210503
0.021019
0.0209951
0.0209657
0.0209446
0.0209169
0.0208984
0.0208721
0.020856
0.0208311
0.0208172
0.0207934
0.0207816
0.0207587
0.0207489
0.0207267
0.0207188
0.0206972
0.0206912
0.0206701
0.0206658
0.0206452
0.0206426
0.0206224
0.0206216
0.0206018
0.0206029
0.0205831
0.0205867
0.0205665
0.0205734
0.0205525
0.0205642
0.0205431
0.0205598
0.0205386
0.0205599
0.0205398
0.0205661
0.020549
0.0205817
0.0205691
0.0206088
0.020607
0.0206527
0.0206547
0.0207177
0.0207648
0.020837
0.0244821
0.0243383
0.0241858
0.0240175
0.0238457
0.023666
0.0234906
0.0233128
0.0231439
0.0229751
0.0228178
0.0226614
0.0225177
0.0223749
0.022245
0.0221155
0.0219989
0.0218816
0.0217772
0.021671
0.0215775
0.0214812
0.0213974
0.0213099
0.0212347
0.021155
0.0210874
0.0210146
0.0209538
0.0208869
0.020832
0.0207705
0.0207208
0.0206639
0.0206187
0.020566
0.020525
0.020476
0.0204387
0.0203932
0.0203593
0.0203169
0.0202861
0.0202463
0.0202182
0.0201808
0.020155
0.0201197
0.0200961
0.0200627
0.0200411
0.0200093
0.0199895
0.0199593
0.0199413
0.0199126
0.0198963
0.0198689
0.0198541
0.0198281
0.0198147
0.0197898
0.0197777
0.0197539
0.0197429
0.0197201
0.0197101
0.0196882
0.0196791
0.0196579
0.0196498
0.0196292
0.0196219
0.019602
0.0195953
0.0195761
0.0195701
0.0195515
0.0195462
0.0195281
0.0195233
0.0195057
0.0195015
0.0194843
0.0194805
0.0194637
0.0194603
0.0194438
0.0194407
0.0194244
0.0194213
0.0194052
0.0194017
0.0193854
0.0193819
0.0193659
0.0193605
0.0193442
0.019282
0.0193685
0.0222992
0.0222152
0.0221237
0.0220173
0.0219067
0.0217875
0.0216705
0.0215489
0.0214329
0.0213145
0.0212036
0.0210912
0.0209874
0.0208825
0.0207867
0.0206896
0.0206019
0.0205125
0.0204327
0.0203507
0.0202783
0.020203
0.0201375
0.0200685
0.0200093
0.0199459
0.0198924
0.0198341
0.0197857
0.0197321
0.0196883
0.0196387
0.0195992
0.0195533
0.0195175
0.0194748
0.0194424
0.0194027
0.0193734
0.0193362
0.0193096
0.0192748
0.0192507
0.019218
0.0191961
0.0191653
0.0191455
0.0191164
0.0190985
0.019071
0.0190548
0.0190287
0.0190141
0.0189892
0.0189761
0.0189523
0.0189405
0.0189178
0.0189071
0.0188853
0.0188757
0.0188548
0.018846
0.0188259
0.018818
0.0187985
0.0187914
0.0187726
0.0187661
0.0187479
0.0187421
0.0187244
0.0187191
0.018702
0.0186971
0.0186805
0.018676
0.0186599
0.0186557
0.0186402
0.0186361
0.0186211
0.0186173
0.0186027
0.018599
0.018585
0.0185812
0.0185678
0.018564
0.0185512
0.0185473
0.018535
0.0185309
0.0185193
0.0185148
0.0185039
0.0184987
0.0184885
0.0184844
0.0184697
0.0207842
0.0207395
0.0206895
0.0206244
0.0205561
0.0204777
0.0204011
0.0203177
0.0202392
0.0201558
0.0200791
0.0199987
0.0199261
0.0198502
0.0197827
0.0197117
0.0196496
0.0195838
0.019527
0.0194661
0.0194143
0.019358
0.0193108
0.0192588
0.0192158
0.0191676
0.0191285
0.0190838
0.0190482
0.0190065
0.0189741
0.0189352
0.0189057
0.0188693
0.0188424
0.0188082
0.0187836
0.0187513
0.0187289
0.0186984
0.0186778
0.0186488
0.0186299
0.0186023
0.018585
0.0185587
0.0185428
0.0185176
0.018503
0.0184789
0.0184654
0.0184423
0.01843
0.0184076
0.0183964
0.0183748
0.0183645
0.0183436
0.0183341
0.0183139
0.0183052
0.0182856
0.0182775
0.0182585
0.018251
0.0182325
0.0182256
0.0182076
0.0182012
0.0181837
0.0181777
0.0181606
0.018155
0.0181384
0.0181331
0.0181169
0.0181119
0.0180961
0.0180914
0.018076
0.0180714
0.0180565
0.0180519
0.0180375
0.018033
0.018019
0.0180145
0.0180011
0.0179965
0.0179836
0.0179789
0.0179665
0.0179617
0.0179499
0.0179448
0.0179337
0.0179284
0.0179185
0.0179119
0.0178994
0.0197394
0.0197175
0.0196915
0.019651
0.0196081
0.0195547
0.0195032
0.019444
0.0193892
0.0193282
0.0192732
0.0192128
0.0191595
0.0191012
0.0190507
0.0189953
0.0189481
0.0188958
0.0188521
0.018803
0.0187627
0.0187168
0.0186797
0.0186367
0.0186027
0.0185624
0.0185312
0.0184934
0.0184648
0.0184292
0.018403
0.0183694
0.0183454
0.0183137
0.0182916
0.0182615
0.0182412
0.0182127
0.0181941
0.0181669
0.0181498
0.0181239
0.0181081
0.0180834
0.0180689
0.0180451
0.0180318
0.018009
0.0179967
0.0179747
0.0179635
0.0179423
0.0179319
0.0179114
0.0179018
0.017882
0.0178732
0.017854
0.0178459
0.0178272
0.0178197
0.0178016
0.0177946
0.017777
0.0177705
0.0177533
0.0177473
0.0177305
0.017725
0.0177086
0.0177033
0.0176874
0.0176824
0.0176668
0.0176621
0.0176469
0.0176424
0.0176276
0.0176233
0.0176089
0.0176046
0.0175906
0.0175864
0.0175729
0.0175687
0.0175556
0.0175513
0.0175387
0.0175342
0.0175221
0.0175175
0.0175059
0.017501
0.0174902
0.0174855
0.0174742
0.0174629
0.0174533
0.0175016
0.0173963
0.0189944
0.0189841
0.0189715
0.0189455
0.0189179
0.01888
0.018844
0.0188
0.0187601
0.0187133
0.0186723
0.0186249
0.0185845
0.0185381
0.0184994
0.0184546
0.0184181
0.0183754
0.0183413
0.0183008
0.0182692
0.0182309
0.0182018
0.0181655
0.0181388
0.0181045
0.0180799
0.0180474
0.0180249
0.0179941
0.0179734
0.0179441
0.0179251
0.0178972
0.0178797
0.0178531
0.0178371
0.0178115
0.0177968
0.0177723
0.0177587
0.0177351
0.0177226
0.0176998
0.0176884
0.0176663
0.0176558
0.0176344
0.0176247
0.0176039
0.017595
0.0175748
0.0175665
0.0175469
0.0175393
0.0175201
0.0175131
0.0174944
0.0174879
0.0174696
0.0174637
0.0174458
0.0174404
0.0174229
0.0174178
0.0174007
0.0173959
0.0173792
0.0173748
0.0173584
0.0173542
0.0173382
0.0173342
0.0173185
0.0173148
0.0172994
0.0172958
0.0172808
0.0172772
0.0172627
0.0172591
0.017245
0.0172414
0.0172277
0.017224
0.0172107
0.0172069
0.0171942
0.0171901
0.0171779
0.0171735
0.017162
0.0171573
0.0171462
0.0171405
0.0171312
0.0171313
0.0171214
0.0170635
0.0171406
0.018455
0.0184507
0.0184454
0.0184283
0.0184099
0.018382
0.0183558
0.018322
0.0182918
0.0182548
0.018223
0.0181849
0.018153
0.0181151
0.0180842
0.0180472
0.0180178
0.0179821
0.0179545
0.0179203
0.0178946
0.0178619
0.0178381
0.0178068
0.0177849
0.017755
0.0177348
0.0177062
0.0176876
0.0176602
0.0176432
0.0176168
0.0176012
0.0175758
0.0175615
0.017537
0.0175239
0.0175002
0.0174882
0.0174651
0.0174543
0.0174318
0.0174219
0.0174
0.017391
0.0173696
0.0173614
0.0173405
0.0173331
0.0173126
0.017306
0.0172858
0.0172799
0.01726
0.0172548
0.0172352
0.0172307
0.0172113
0.0172073
0.0171882
0.0171848
0.0171658
0.0171629
0.0171442
0.0171418
0.0171231
0.0171212
0.0171027
0.0171012
0.0170828
0.0170817
0.0170635
0.0170627
0.0170446
0.0170442
0.0170262
0.0170261
0.0170082
0.0170083
0.0169905
0.016991
0.0169733
0.0169739
0.0169564
0.0169572
0.0169398
0.0169407
0.0169235
0.0169245
0.0169075
0.0169086
0.0168918
0.0168927
0.016876
0.0168783
0.0168626
0.016862
0.0168513
0.0168457
0.0168323
0.0180487
0.0180467
0.0180458
0.0180348
0.0180223
0.0180014
0.0179816
0.0179549
0.017931
0.0179011
0.0178753
0.0178441
0.0178179
0.0177864
0.0177607
0.0177296
0.0177049
0.0176748
0.0176514
0.0176223
0.0176004
0.0175724
0.017552
0.0175251
0.0175061
0.0174803
0.0174628
0.0174379
0.0174217
0.0173977
0.0173828
0.0173596
0.0173459
0.0173234
0.0173108
0.017289
0.0172774
0.0172561
0.0172454
0.0172247
0.0172149
0.0171946
0.0171856
0.0171657
0.0171576
0.017138
0.0171306
0.0171113
0.0171046
0.0170856
0.0170795
0.0170608
0.0170554
0.0170369
0.017032
0.0170137
0.0170095
0.0169913
0.0169876
0.0169696
0.0169664
0.0169485
0.0169458
0.016928
0.0169257
0.0169081
0.0169062
0.0168886
0.0168871
0.0168697
0.0168685
0.0168511
0.0168503
0.016833
0.0168325
0.0168152
0.0168151
0.0167978
0.0167979
0.0167808
0.0167811
0.016764
0.0167646
0.0167476
0.0167483
0.0167314
0.0167323
0.0167155
0.0167165
0.0166999
0.016701
0.0166845
0.0166855
0.0166689
0.0166709
0.0166563
0.0166613
0.0166504
0.0165968
0.0166671
0.017739
0.0177415
0.0177437
0.0177363
0.0177276
0.0177112
0.0176958
0.017674
0.0176546
0.0176297
0.0176083
0.0175819
0.0175599
0.017533
0.0175112
0.0174846
0.0174634
0.0174374
0.0174172
0.017392
0.017373
0.0173486
0.0173307
0.0173072
0.0172905
0.0172678
0.0172523
0.0172304
0.0172159
0.0171947
0.0171812
0.0171607
0.0171482
0.0171282
0.0171166
0.0170972
0.0170863
0.0170674
0.0170573
0.0170388
0.0170295
0.0170113
0.0170026
0.0169849
0.0169768
0.0169593
0.0169518
0.0169346
0.0169277
0.0169108
0.0169044
0.0168877
0.0168817
0.0168653
0.0168598
0.0168435
0.0168385
0.0168224
0.0168177
0.0168019
0.0167975
0.0167818
0.0167778
0.0167623
0.0167586
0.0167433
0.0167398
0.0167247
0.0167214
0.0167065
0.0167034
0.0166887
0.0166857
0.0166712
0.0166684
0.0166541
0.0166513
0.0166373
0.0166346
0.0166209
0.0166181
0.0166047
0.0166019
0.0165888
0.0165859
0.0165731
0.0165701
0.0165578
0.0165545
0.0165426
0.016539
0.0165276
0.0165241
0.0165137
0.0165074
0.0164964
0.0164941
0.0164754
0.0165162
0.016421
0.0175004
0.0175054
0.0175092
0.017504
0.0174979
0.0174846
0.0174723
0.0174541
0.017438
0.0174168
0.0173987
0.017376
0.0173572
0.0173339
0.0173151
0.0172918
0.0172735
0.0172507
0.0172331
0.0172109
0.0171942
0.0171727
0.0171569
0.0171361
0.0171212
0.0171011
0.0170871
0.0170677
0.0170546
0.0170356
0.0170233
0.017005
0.0169934
0.0169755
0.0169647
0.0169472
0.016937
0.0169199
0.0169104
0.0168936
0.0168846
0.0168681
0.0168597
0.0168435
0.0168356
0.0168197
0.0168123
0.0167966
0.0167896
0.0167742
0.0167676
0.0167524
0.0167462
0.0167311
0.0167254
0.0167105
0.0167051
0.0166904
0.0166853
0.0166707
0.016666
0.0166516
0.0166471
0.0166328
0.0166286
0.0166145
0.0166105
0.0165965
0.0165927
0.0165789
0.0165753
0.0165617
0.0165581
0.0165447
0.0165413
0.0165281
0.0165247
0.0165117
0.0165084
0.0164956
0.0164923
0.0164798
0.0164765
0.0164642
0.0164609
0.0164489
0.0164454
0.0164338
0.0164302
0.016419
0.0164151
0.0164042
0.0164005
0.0163905
0.0163842
0.0163734
0.0163713
0.0163527
0.0163932
0.0162996
0.0173195
0.0173253
0.0173303
0.0173265
0.0173225
0.0173113
0.0173015
0.0172856
0.0172723
0.0172536
0.0172383
0.0172182
0.017202
0.0171812
0.0171649
0.0171441
0.017128
0.0171075
0.017092
0.017072
0.0170571
0.0170377
0.0170234
0.0170046
0.0169911
0.0169729
0.0169601
0.0169424
0.0169302
0.016913
0.0169015
0.0168848
0.0168738
0.0168575
0.0168471
0.0168312
0.0168213
0.0168058
0.0167963
0.0167811
0.016772
0.0167572
0.0167485
0.016734
0.0167257
0.0167114
0.0167034
0.0166895
0.0166818
0.0166681
0.0166607
0.0166473
0.0166401
0.0166269
0.0166201
0.0166071
0.0166004
0.0165877
0.0165812
0.0165688
0.0165625
0.0165503
0.016544
0.0165321
0.016526
0.0165144
0.0165083
0.0164969
0.0164909
0.0164798
0.0164737
0.016463
0.0164569
0.0164466
0.0164403
0.0164304
0.016424
0.0164144
0.0164079
0.0163988
0.016392
0.0163833
0.0163763
0.0163682
0.0163608
0.0163532
0.0163454
0.0163385
0.0163303
0.016324
0.0163152
0.0163097
0.0163006
0.0162959
0.0162847
0.0162804
0.0162716
0.016264
0.0162574
0.0162493
0.0171845
0.0171899
0.0171955
0.0171921
0.0171894
0.0171791
0.0171712
0.0171565
0.0171452
0.0171278
0.0171145
0.0170957
0.0170815
0.017062
0.0170476
0.017028
0.0170138
0.0169944
0.0169806
0.0169616
0.0169483
0.0169298
0.0169171
0.0168991
0.016887
0.0168695
0.016858
0.016841
0.01683
0.0168135
0.016803
0.0167869
0.016777
0.0167612
0.0167517
0.0167364
0.0167272
0.0167122
0.0167035
0.0166888
0.0166804
0.016666
0.0166579
0.0166439
0.0166361
0.0166222
0.0166147
0.0166012
0.0165939
0.0165806
0.0165736
0.0165605
0.0165537
0.0165409
0.0165343
0.0165217
0.0165152
0.016503
0.0164966
0.0164846
0.0164783
0.0164666
0.0164604
0.0164489
0.0164427
0.0164316
0.0164254
0.0164145
0.0164084
0.0163978
0.0163916
0.0163814
0.0163751
0.0163652
0.0163588
0.0163493
0.0163427
0.0163337
0.0163268
0.0163183
0.0163112
0.0163031
0.0162957
0.0162882
0.0162804
0.0162735
0.0162653
0.0162589
0.0162503
0.0162446
0.0162354
0.0162305
0.0162209
0.016217
0.0162058
0.0162011
0.0161863
0.0161797
0.0162212
0.0161285
0.0170745
0.0170793
0.0170851
0.0170818
0.01708
0.0170703
0.0170636
0.0170497
0.0170399
0.0170233
0.0170117
0.0169937
0.0169812
0.0169625
0.0169498
0.016931
0.0169185
0.0168998
0.0168876
0.0168693
0.0168576
0.0168397
0.0168286
0.0168111
0.0168005
0.0167835
0.0167734
0.0167568
0.0167472
0.016731
0.0167218
0.0167059
0.0166972
0.0166817
0.0166733
0.0166581
0.01665
0.0166351
0.0166274
0.0166128
0.0166053
0.0165909
0.0165838
0.0165696
0.0165627
0.0165488
0.0165421
0.0165285
0.0165219
0.0165085
0.0165022
0.016489
0.0164828
0.0164699
0.0164639
0.0164512
0.0164452
0.0164328
0.016427
0.0164148
0.016409
0.0163971
0.0163914
0.0163797
0.016374
0.0163627
0.0163569
0.0163459
0.0163401
0.0163294
0.0163235
0.0163131
0.0163071
0.0162971
0.016291
0.0162814
0.0162751
0.0162659
0.0162593
0.0162506
0.0162438
0.0162356
0.0162284
0.0162207
0.0162132
0.0162061
0.0161982
0.0161917
0.0161833
0.0161775
0.0161686
0.0161636
0.0161539
0.0161493
0.0161404
0.0161365
0.01612
0.0161219
0.0161208
0.0161072
0.0169865
0.016991
0.0169969
0.0169937
0.0169927
0.0169835
0.0169778
0.0169647
0.0169561
0.0169404
0.0169302
0.016913
0.016902
0.0168841
0.016873
0.0168548
0.0168438
0.0168257
0.0168151
0.0167972
0.016787
0.0167693
0.0167596
0.0167422
0.016733
0.016716
0.0167072
0.0166904
0.0166821
0.0166655
0.0166576
0.0166413
0.0166338
0.0166177
0.0166105
0.0165947
0.0165878
0.0165721
0.0165656
0.0165501
0.0165438
0.0165285
0.0165225
0.0165074
0.0165017
0.0164867
0.0164812
0.0164664
0.0164611
0.0164466
0.0164414
0.0164271
0.0164221
0.016408
0.0164032
0.0163892
0.0163846
0.0163708
0.0163663
0.0163528
0.0163483
0.0163351
0.0163306
0.0163177
0.0163132
0.0163006
0.0162961
0.0162837
0.0162792
0.0162672
0.0162626
0.0162509
0.0162462
0.0162349
0.01623
0.0162192
0.0162141
0.0162037
0.0161983
0.0161884
0.0161827
0.0161734
0.0161673
0.0161586
0.0161521
0.016144
0.016137
0.0161297
0.0161221
0.0161155
0.0161073
0.0161017
0.0160925
0.0160873
0.0160782
0.0160749
0.0160638
0.0160652
0.0160148
0.0160854
0.0169223
0.0169265
0.0169319
0.0169288
0.0169279
0.0169192
0.0169139
0.0169014
0.0168933
0.0168784
0.0168686
0.0168521
0.0168415
0.0168242
0.0168134
0.0167956
0.0167849
0.016767
0.0167565
0.0167387
0.0167286
0.0167108
0.0167011
0.0166834
0.0166742
0.0166566
0.0166479
0.0166304
0.0166222
0.0166049
0.0165971
0.0165799
0.0165727
0.0165556
0.0165489
0.0165319
0.0165256
0.0165087
0.0165029
0.0164862
0.0164808
0.0164641
0.0164593
0.0164426
0.0164381
0.0164214
0.0164174
0.0164007
0.0163971
0.0163805
0.0163772
0.0163607
0.0163578
0.0163413
0.0163389
0.0163224
0.0163203
0.0163038
0.0163021
0.0162857
0.0162843
0.0162679
0.0162669
0.0162504
0.0162498
0.0162333
0.016233
0.0162165
0.0162165
0.0162
0.0162003
0.0161838
0.0161843
0.0161679
0.0161686
0.0161522
0.0161531
0.0161368
0.0161379
0.0161216
0.0161229
0.0161066
0.016108
0.0160918
0.0160934
0.0160773
0.016079
0.0160629
0.0160647
0.0160488
0.0160506
0.0160349
0.0160365
0.0160209
0.0160237
0.016009
0.0160089
0.0159987
0.0159944
0.0159815
0.0168722
0.0168761
0.016881
0.0168778
0.0168765
0.0168678
0.016862
0.0168494
0.0168405
0.0168251
0.0168142
0.016797
0.016785
0.0167669
0.0167545
0.016736
0.0167235
0.0167049
0.0166927
0.0166737
0.0166616
0.0166427
0.0166311
0.0166125
0.0166015
0.0165834
0.0165732
0.0165555
0.0165461
0.0165289
0.0165202
0.0165034
0.0164955
0.016479
0.0164717
0.0164556
0.0164489
0.0164331
0.016427
0.0164114
0.0164058
0.0163903
0.0163852
0.01637
0.0163653
0.0163503
0.0163461
0.0163311
0.0163274
0.0163125
0.0163091
0.0162944
0.0162913
0.0162766
0.0162739
0.0162592
0.0162568
0.0162421
0.01624
0.0162254
0.0162236
0.0162089
0.0162074
0.0161927
0.0161915
0.0161768
0.0161758
0.0161611
0.0161603
0.0161457
0.0161451
0.0161305
0.0161301
0.0161154
0.0161153
0.0161006
0.0161006
0.016086
0.0160862
0.0160716
0.0160719
0.0160573
0.0160578
0.0160432
0.0160438
0.0160293
0.0160301
0.0160156
0.0160164
0.016002
0.016003
0.0159887
0.0159896
0.0159751
0.0159769
0.0159644
0.0159691
0.0159599
0.0159099
0.0159772
0.0168358
0.0168375
0.0168397
0.0168325
0.0168269
0.0168131
0.0168024
0.0167844
0.0167707
0.0167505
0.0167357
0.0167148
0.0167
0.0166793
0.0166652
0.0166452
0.0166322
0.0166131
0.0166014
0.0165838
0.0165737
0.0165572
0.0165484
0.0165327
0.0165248
0.0165098
0.0165027
0.0164881
0.0164815
0.0164672
0.0164612
0.0164471
0.0164414
0.0164275
0.0164222
0.0164083
0.0164034
0.0163896
0.0163849
0.0163711
0.0163668
0.016353
0.0163489
0.0163351
0.0163313
0.0163175
0.0163139
0.0163002
0.0162968
0.0162831
0.0162799
0.0162662
0.0162632
0.0162496
0.0162468