/*--------------------------------*- C++ -*----------------------------------*\
  =========                 |
  \\      /  F ield         | OpenFOAM: The Open Source CFD Toolbox
   \\    /   O peration     | Website:  https://openfoam.org
    \\  /    A nd           | Version:  8
     \\/     M anipulation  |
\*---------------------------------------------------------------------------*/
FoamFile
{
    version     2.0;
    format      ascii;
    class       volScalarField;
    location    "2.999969291";
    object      p;
}
// * * * * * * * * * * * * * * * * * * * * * * * * * * * * * * * * * * * * * //

dimensions      [1 -1 -2 0 0 0 0];

internalField   nonuniform List<scalar> 
6800
(
99487.7
99817.8
99851.1
99873.5
99918.6
99969.2
100025
100084
100143
100190
99046.2
99614
99608.8
99656.5
99732.7
99805.7
99880
99956.4
100032
100102
98346.7
99245.4
99240.1
99359.3
99486.7
99597.7
99703.9
99807.2
99906.5
100000
97463.3
98735.1
98763.2
98995
99189.8
99353.2
99501.6
99639.2
99767.1
99885.1
96473.5
98123.9
98214.1
98587.7
98859.6
99086.3
99284.1
99460.8
99620
99763.5
95457.2
97463.7
97638.8
98167.6
98519.3
98815.5
99065.7
99283.3
99474.7
99644.2
94490.7
96808.2
97084.9
97766.6
98194.3
98560.9
98862.1
99120
99342.7
99537.1
93640.2
96208.4
96594.6
97414.4
97910.2
98342.6
98689.7
98984.4
99234.7
99451.8
92958
95707.6
96203.6
97137.2
97689.6
98178.2
98563.7
98889.2
99161.7
99398
92481.1
95340.7
95938.1
96954
97550.8
98082.6
98496.8
98845
99133.1
99384.1
100353
100211
100166
100173
100212
100276
100363
100468
100583
100700
100296
100181
100136
100139
100175
100237
100325
100436
100561
100687
100202
100117
100084
100086
100121
100186
100279
100398
100536
100681
100094
100046
100031
100039
100076
100150
100255
100380
100521
100677
99997.6
99992.1
99999.3
100022
100068
100149
100255
100375
100506
100654
99925.6
99966.5
100003
100039
100095
100174
100267
100371
100482
100609
99872.4
99971.2
100030
100077
100130
100195
100271
100358
100449
100551
99808.2
99966.1
100047
100095
100141
100195
100258
100329
100403
100484
99737.5
99924.1
100031
100076
100114
100160
100215
100276
100342
100413
99677.3
99878.7
99973.8
100008
100043
100087
100137
100195
100257
100328
100833
100966
101072
101159
101230
101286
101333
101371
101404
101430
101453
101471
101486
101499
101509
101516
101522
101527
101529
101531
101532
101531
101530
101528
101526
101523
101520
101516
101512
101508
101503
101499
101494
101489
101485
101480
101475
101470
101465
101461
101456
101451
101447
101442
101438
101434
101430
101426
101422
101418
101414
101411
101407
101404
101401
101398
101395
101392
101389
101386
101384
101381
101379
101376
101374
101372
101370
101368
101366
101364
101362
101361
101359
101357
101356
101354
101353
101351
101350
101349
101347
101346
101345
101344
101343
101342
101340
101339
101338
101337
101336
101335
101334
101333
101333
101332
101331
101330
101330
101330
100817
100955
101063
101150
101221
101279
101326
101366
101399
101426
101449
101468
101483
101496
101506
101514
101520
101525
101528
101530
101530
101530
101529
101527
101525
101522
101519
101515
101511
101507
101503
101498
101494
101489
101484
101479
101475
101470
101465
101460
101456
101451
101447
101442
101438
101434
101430
101426
101422
101418
101414
101411
101407
101404
101401
101398
101395
101392
101389
101386
101384
101381
101379
101376
101374
101372
101370
101368
101366
101364
101362
101361
101359
101357
101356
101354
101353
101351
101350
101349
101347
101346
101345
101344
101343
101342
101340
101339
101338
101337
101336
101335
101334
101333
101333
101332
101331
101330
101329
101329
100798
100935
101045
101133
101205
101265
101315
101356
101390
101418
101442
101462
101478
101492
101502
101511
101517
101522
101525
101527
101528
101528
101528
101526
101524
101521
101518
101514
101510
101506
101502
101498
101493
101488
101484
101479
101474
101469
101465
101460
101455
101451
101446
101442
101438
101433
101429
101425
101421
101418
101414
101410
101407
101404
101400
101397
101394
101391
101389
101386
101383
101381
101378
101376
101374
101372
101370
101368
101366
101364
101362
101360
101359
101357
101356
101354
101353
101351
101350
101349
101347
101346
101345
101344
101343
101341
101340
101339
101338
101337
101336
101335
101334
101333
101332
101332
101331
101330
101329
101329
100763
100897
101014
101106
101182
101244
101297
101340
101377
101407
101432
101453
101470
101485
101496
101505
101512
101518
101521
101524
101525
101525
101525
101523
101522
101519
101516
101513
101509
101505
101501
101496
101492
101487
101483
101478
101473
101468
101464
101459
101455
101450
101446
101441
101437
101433
101429
101425
101421
101417
101414
101410
101407
101403
101400
101397
101394
101391
101388
101386
101383
101381
101378
101376
101374
101372
101369
101367
101366
101364
101362
101360
101359
101357
101355
101354
101353
101351
101350
101349
101347
101346
101345
101344
101343
101341
101340
101339
101338
101337
101336
101335
101334
101333
101332
101331
101331
101330
101329
101328
100700
100834
100966
101068
101149
101216
101272
101320
101359
101392
101419
101442
101461
101476
101488
101498
101506
101512
101516
101519
101521
101522
101521
101520
101519
101516
101513
101510
101507
101503
101499
101495
101490
101486
101481
101477
101472
101467
101463
101458
101454
101449
101445
101440
101436
101432
101428
101424
101420
101417
101413
101409
101406
101403
101400
101397
101394
101391
101388
101385
101383
101380
101378
101376
101373
101371
101369
101367
101365
101363
101362
101360
101358
101357
101355
101354
101352
101351
101350
101348
101347
101346
101345
101344
101342
101341
101340
101339
101338
101337
101336
101335
101334
101333
101332
101331
101330
101329
101328
101328
100620
100754
100902
101016
101103
101175
101237
101289
101333
101369
101400
101425
101446
101463
101477
101488
101497
101504
101510
101513
101516
101517
101517
101516
101515
101513
101511
101508
101504
101501
101497
101493
101488
101484
101479
101475
101470
101466
101461
101457
101452
101448
101444
101439
101435
101431
101427
101423
101420
101416
101412
101409
101405
101402
101399
101396
101393
101390
101388
101385
101382
101380
101377
101375
101373
101371
101369
101367
101365
101363
101361
101360
101358
101357
101355
101354
101352
101351
101349
101348
101347
101346
101345
101343
101342
101341
101340
101339
101338
101337
101336
101335
101334
101333
101332
101331
101330
101329
101328
101327
100542
100672
100828
100952
101047
101125
101192
101249
101297
101338
101372
101400
101424
101443
101459
101473
101483
101492
101498
101503
101507
101509
101510
101510
101509
101508
101506
101504
101501
101497
101494
101490
101486
101482
101478
101473
101469
101464
101460
101455
101451
101447
101442
101438
101434
101430
101426
101422
101419
101415
101411
101408
101405
101401
101398
101395
101392
101390
101387
101384
101382
101379
101377
101375
101373
101370
101368
101366
101365
101363
101361
101359
101358
101356
101355
101353
101352
101351
101349
101348
101347
101346
101344
101343
101342
101341
101340
101339
101338
101337
101336
101335
101334
101333
101332
101331
101330
101329
101327
101326
100475
100597
100753
100885
100987
101072
101144
101205
101258
101302
101339
101371
101397
101419
101437
101452
101465
101475
101483
101489
101493
101497
101499
101500
101500
101499
101498
101496
101494
101491
101488
101485
101481
101477
101473
101469
101465
101461
101457
101453
101449
101445
101441
101437
101433
101429
101425
101421
101418
101414
101411
101407
101404
101401
101398
101395
101392
101389
101386
101384
101381
101379
101376
101374
101372
101370
101368
101366
101364
101362
101361
101359
101357
101356
101354
101353
101352
101350
101349
101348
101346
101345
101344
101343
101342
101341
101340
101339
101338
101337
101336
101335
101334
101333
101332
101331
101330
101328
101327
101325
100416
100529
100678
100813
100924
101016
101094
101161
101219
101267
101308
101343
101372
101396
101417
101434
101448
101459
101468
101476
101481
101485
101488
101490
101491
101491
101490
101488
101487
101484
101482
101479
101475
101472
101468
101464
101461
101457
101453
101449
101445
101441
101437
101433
101429
101426
101422
101419
101415
101412
101408
101405
101402
101399
101396
101393
101390
101388
101385
101383
101380
101378
101376
101374
101371
101369
101367
101366
101364
101362
101360
101359
101357
101356
101354
101353
101351
101350
101349
101347
101346
101345
101344
101343
101342
101341
101340
101339
101338
101337
101336
101335
101334
101333
101332
101331
101329
101328
101327
101325
100364
100468
100600
100730
100844
100942
101027
101100
101163
101217
101263
101302
101336
101364
101387
101407
101424
101438
101449
101458
101465
101471
101475
101478
101479
101480
101480
101480
101478
101477
101475
101472
101469
101466
101463
101460
101456
101452
101449
101445
101441
101438
101434
101430
101427
101423
101419
101416
101413
101409
101406
101403
101400
101397
101394
101391
101389
101386
101384
101381
101379
101376
101374
101372
101370
101368
101366
101365
101363
101361
101359
101358
101356
101355
101354
101352
101351
101350
101348
101347
101346
101345
101344
101343
101342
101341
101340
101339
101338
101337
101336
101335
101334
101333
101332
101331
101329
101328
101327
101325
100339
100457
100581
100704
100816
100914
100999
101073
101138
101193
101240
101281
101316
101345
101370
101391
101409
101423
101435
101445
101453
101459
101464
101467
101470
101471
101472
101471
101470
101469
101467
101465
101463
101460
101457
101454
101451
101447
101444
101440
101437
101433
101430
101426
101423
101419
101416
101413
101409
101406
101403
101400
101397
101394
101392
101389
101386
101384
101381
101379
101377
101375
101372
101370
101368
101367
101365
101363
101361
101360
101358
101357
101355
101354
101352
101351
101350
101348
101347
101346
101345
101344
101343
101342
101341
101340
101339
101338
101337
101336
101335
101334
101333
101332
101331
101330
101329
101328
101327
101325
100367
100490
100612
100728
100832
100924
101005
101075
101136
101189
101234
101273
101307
101336
101360
101381
101398
101413
101425
101434
101442
101449
101454
101457
101460
101461
101462
101462
101461
101460
101459
101457
101455
101452
101450
101447
101444
101440
101437
101434
101431
101427
101424
101421
101418
101414
101411
101408
101405
101402
101399
101396
101394
101391
101388
101386
101383
101381
101379
101376
101374
101372
101370
101368
101366
101365
101363
101361
101360
101358
101356
101355
101354
101352
101351
101350
101349
101347
101346
101345
101344
101343
101342
101341
101340
101339
101338
101337
101336
101336
101335
101334
101333
101332
101331
101330
101329
101328
101327
101325
100399
100515
100630
100738
100835
100922
100998
101066
101125
101176
101221
101260
101293
101322
101346
101367
101385
101400
101412
101422
101431
101437
101443
101447
101450
101452
101453
101453
101453
101452
101451
101449
101447
101445
101443
101440
101437
101434
101431
101428
101425
101422
101419
101416
101413
101410
101407
101404
101401
101398
101396
101393
101390
101388
101385
101383
101381
101378
101376
101374
101372
101370
101368
101366
101364
101363
101361
101360
101358
101357
101355
101354
101352
101351
101350
101349
101347
101346
101345
101344
101343
101342
101341
101340
101339
101338
101338
101337
101336
101335
101334
101333
101332
101332
101331
101330
101329
101328
101327
101326
100437
100545
100655
100757
100849
100930
101002
101067
101123
101173
101216
101253
101286
101314
101338
101358
101376
101390
101403
101413
101421
101428
101433
101437
101440
101443
101444
101444
101444
101444
101443
101441
101440
101438
101436
101433
101431
101428
101425
101422
101420
101417
101414
101411
101408
101405
101402
101400
101397
101394
101392
101389
101387
101384
101382
101380
101378
101375
101373
101371
101369
101368
101366
101364
101362
101361
101359
101358
101356
101355
101353
101352
101351
101350
101349
101347
101346
101345
101344
101343
101342
101341
101340
101339
101339
101338
101337
101336
101335
101334
101334
101333
101332
101331
101330
101329
101328
101328
101327
101326
100481
100580
100684
100779
100864
100939
101007
101068
101122
101169
101210
101246
101278
101305
101328
101349
101366
101380
101392
101403
101411
101418
101424
101428
101431
101433
101435
101436
101436
101436
101435
101434
101432
101431
101429
101426
101424
101422
101419
101417
101414
101411
101409
101406
101403
101401
101398
101395
101393
101390
101388
101386
101383
101381
101379
101377
101375
101373
101371
101369
101367
101365
101364
101362
101360
101359
101357
101356
101355
101353
101352
101351
101350
101348
101347
101346
101345
101344
101343
101342
101341
101340
101340
101339
101338
101337
101336
101335
101335
101334
101333
101332
101332
101331
101330
101329
101328
101327
101326
101326
100529
100619
100715
100804
100882
100953
101016
101073
101124
101169
101208
101243
101273
101299
101322
101341
101358
101372
101384
101394
101402
101409
101415
101419
101422
101425
101426
101427
101428
101428
101427
101426
101425
101423
101422
101420
101418
101415
101413
101411
101408
101406
101403
101401
101398
101396
101393
101391
101389
101386
101384
101382
101380
101378
101376
101374
101372
101370
101368
101366
101364
101363
101361
101360
101358
101357
101355
101354
101353
101351
101350
101349
101348
101347
101346
101345
101344
101343
101342
101341
101340
101339
101339
101338
101337
101336
101336
101335
101334
101333
101333
101332
101331
101330
101330
101329
101328
101327
101326
101326
100581
100661
100750
100832
100904
100969
101027
101081
101128
101170
101207
101240
101269
101294
101316
101334
101351
101364
101376
101386
101394
101401
101406
101410
101414
101416
101418
101419
101420
101420
101419
101419
101418
101416
101415
101413
101411
101409
101407
101405
101403
101400
101398
101396
101393
101391
101389
101387
101384
101382
101380
101378
101376
101374
101372
101370
101369
101367
101365
101363
101362
101360
101359
101357
101356
101355
101353
101352
101351
101350
101349
101348
101347
101346
101345
101344
101343
101342
101341
101340
101339
101339
101338
101337
101336
101336
101335
101334
101333
101333
101332
101331
101331
101330
101329
101329
101328
101327
101326
101326
100635
100707
100787
100862
100928
100987
101041
101090
101135
101174
101209
101240
101267
101291
101311
101329
101344
101358
101369
101378
101386
101393
101398
101402
101406
101408
101410
101411
101412
101412
101412
101411
101410
101409
101408
101406
101405
101403
101401
101399
101397
101395
101393
101391
101388
101386
101384
101382
101380
101378
101376
101374
101372
101371
101369
101367
101365
101364
101362
101361
101359
101358
101356
101355
101354
101353
101351
101350
101349
101348
101347
101346
101345
101344
101343
101342
101341
101341
101340
101339
101338
101338
101337
101336
101335
101335
101334
101333
101333
101332
101332
101331
101330
101330
101329
101328
101328
101327
101326
101326
100691
100754
100826
100894
100954
101008
101057
101103
101143
101180
101212
101241
101266
101288
101308
101325
101339
101352
101362
101371
101379
101385
101390
101395
101398
101400
101402
101403
101404
101404
101404
101404
101403
101402
101401
101400
101398
101396
101395
101393
101391
101389
101387
101385
101383
101382
101380
101378
101376
101374
101372
101371
101369
101367
101365
101364
101362
101361
101359
101358
101357
101355
101354
101353
101352
101350
101349
101348
101347
101346
101345
101344
101343
101343
101342
101341
101340
101339
101339
101338
101337
101337
101336
101335
101335
101334
101333
101333
101332
101332
101331
101330
101330
101329
101329
101328
101327
101327
101326
101326
100748
100803
100867
100928
100982
101031
101075
101116
101154
101187
101217
101243
101267
101287
101306
101321
101335
101347
101357
101365
101372
101378
101383
101387
101390
101393
101395
101396
101397
101397
101397
101397
101396
101395
101394
101393
101392
101390
101389
101387
101385
101384
101382
101380
101378
101377
101375
101373
101372
101370
101368
101367
101365
101364
101362
101361
101359
101358
101357
101355
101354
101353
101352
101350
101349
101348
101347
101346
101345
101344
101344
101343
101342
101341
101340
101340
101339
101338
101338
101337
101336
101336
101335
101334
101334
101333
101333
101332
101332
101331
101330
101330
101329
101329
101328
101328
101327
101327
101326
101325
100806
100853
100910
100963
101011
101055
101095
101132
101166
101196
101223
101247
101269
101288
101304
101319
101331
101342
101352
101360
101366
101372
101376
101380
101383
101386
101387
101389
101389
101390
101390
101390
101389
101388
101387
101386
101385
101384
101383
101381
101380
101378
101377
101375
101373
101372
101370
101369
101367
101366
101364
101363
101361
101360
101359
101357
101356
101355
101354
101352
101351
101350
101349
101348
101347
101346
101345
101344
101344
101343
101342
101341
101340
101340
101339
101338
101338
101337
101336
101336
101335
101335
101334
101334
101333
101332
101332
101331
101331
101330
101330
101329
101329
101328
101328
101327
101327
101326
101326
101325
100863
100904
100953
101000
101042
101080
101116
101149
101179
101206
101231
101252
101272
101289
101304
101317
101329
101339
101347
101354
101361
101366
101370
101374
101376
101379
101380
101381
101382
101383
101383
101382
101382
101381
101381
101380
101379
101378
101376
101375
101374
101373
101371
101370
101368
101367
101366
101364
101363
101361
101360
101359
101358
101356
101355
101354
101353
101352
101351
101350
101349
101348
101347
101346
101345
101344
101343
101342
101342
101341
101340
101339
101339
101338
101338
101337
101336
101336
101335
101335
101334
101334
101333
101333
101332
101332
101331
101331
101330
101330
101329
101329
101329
101328
101328
101327
101327
101326
101326
101325
100920
100954
100996
101037
101074
101107
101138
101167
101194
101218
101239
101259
101276
101291
101304
101316
101327
101336
101343
101350
101355
101360
101364
101367
101370
101372
101373
101374
101375
101375
101376
101375
101375
101375
101374
101373
101372
101371
101370
101369
101368
101367
101366
101364
101363
101362
101361
101360
101358
101357
101356
101355
101354
101353
101352
101351
101350
101349
101348
101347
101346
101345
101344
101343
101343
101342
101341
101340
101340
101339
101338
101338
101337
101337
101336
101336
101335
101335
101334
101334
101333
101333
101332
101332
101331
101331
101331
101330
101330
101329
101329
101329
101328
101328
101327
101327
101327
101326
101326
101325
100977
101005
101040
101075
101106
101135
101162
101186
101209
101230
101249
101266
101281
101294
101306
101316
101325
101333
101340
101346
101350
101355
101358
101361
101363
101365
101366
101367
101368
101369
101369
101369
101368
101368
101367
101367
101366
101365
101364
101363
101362
101361
101360
101359
101358
101357
101356
101355
101354
101353
101352
101351
101350
101349
101348
101347
101346
101346
101345
101344
101343
101342
101342
101341
101340
101340
101339
101338
101338
101337
101337
101336
101336
101335
101335
101334
101334
101333
101333
101332
101332
101332
101331
101331
101331
101330
101330
101329
101329
101329
101328
101328
101328
101327
101327
101327
101326
101326
101326
101325
101033
101056
101085
101113
101139
101163
101186
101207
101226
101243
101259
101273
101286
101298
101308
101316
101324
101331
101337
101342
101346
101350
101353
101355
101357
101359
101360
101361
101361
101362
101362
101362
101362
101361
101361
101360
101360
101359
101358
101357
101357
101356
101355
101354
101353
101352
101351
101350
101350
101349
101348
101347
101346
101345
101345
101344
101343
101342
101342
101341
101340
101340
101339
101338
101338
101337
101337
101336
101336
101335
101335
101334
101334
101334
101333
101333
101332
101332
101332
101331
101331
101331
101330
101330
101330
101329
101329
101329
101328
101328
101328
101328
101327
101327
101327
101326
101326
101326
101326
101325
101088
101106
101129
101152
101173
101192
101210
101227
101243
101257
101270
101282
101292
101302
101310
101317
101324
101329
101334
101338
101342
101345
101347
101349
101351
101352
101353
101354
101355
101355
101355
101355
101355
101355
101354
101354
101353
101353
101352
101352
101351
101350
101349
101349
101348
101347
101347
101346
101345
101344
101344
101343
101342
101342
101341
101340
101340
101339
101339
101338
101338
101337
101337
101336
101336
101335
101335
101334
101334
101333
101333
101333
101332
101332
101332
101331
101331
101331
101330
101330
101330
101330
101329
101329
101329
101329
101328
101328
101328
101328
101327
101327
101327
101327
101326
101326
101326
101326
101325
101325
101142
101155
101173
101190
101206
101221
101235
101249
101261
101272
101282
101291
101299
101306
101313
101319
101324
101328
101332
101335
101338
101340
101342
101344
101345
101346
101347
101348
101348
101348
101348
101348
101348
101348
101348
101347
101347
101347
101346
101346
101345
101345
101344
101343
101343
101342
101342
101341
101341
101340
101340
101339
101339
101338
101338
101337
101337
101336
101336
101335
101335
101334
101334
101334
101333
101333
101333
101332
101332
101332
101331
101331
101331
101330
101330
101330
101330
101329
101329
101329
101329
101329
101328
101328
101328
101328
101328
101327
101327
101327
101327
101327
101326
101326
101326
101326
101326
101326
101325
101325
101195
101205
101217
101229
101240
101251
101261
101270
101279
101287
101294
101300
101306
101311
101316
101320
101324
101327
101330
101332
101334
101336
101337
101338
101339
101340
101341
101341
101341
101342
101342
101342
101342
101341
101341
101341
101341
101340
101340
101340
101339
101339
101339
101338
101338
101337
101337
101337
101336
101336
101335
101335
101335
101334
101334
101334
101333
101333
101333
101332
101332
101332
101331
101331
101331
101331
101330
101330
101330
101330
101329
101329
101329
101329
101329
101329
101328
101328
101328
101328
101328
101328
101327
101327
101327
101327
101327
101327
101327
101326
101326
101326
101326
101326
101326
101326
101326
101325
101325
101325
101248
101253
101260
101268
101274
101281
101286
101292
101297
101302
101306
101310
101314
101317
101320
101322
101324
101326
101328
101329
101330
101331
101332
101333
101334
101334
101334
101335
101335
101335
101335
101335
101335
101335
101335
101335
101334
101334
101334
101334
101334
101333
101333
101333
101333
101332
101332
101332
101332
101331
101331
101331
101331
101331
101330
101330
101330
101330
101330
101329
101329
101329
101329
101329
101329
101328
101328
101328
101328
101328
101328
101328
101327
101327
101327
101327
101327
101327
101327
101327
101327
101327
101326
101326
101326
101326
101326
101326
101326
101326
101326
101326
101326
101326
101325
101325
101325
101325
101325
101325
101299
101301
101304
101306
101308
101310
101312
101314
101316
101317
101319
101320
101321
101322
101323
101324
101325
101325
101326
101326
101327
101327
101327
101328
101328
101328
101328
101328
101328
101328
101328
101328
101328
101328
101328
101328
101328
101328
101328
101328
101328
101328
101328
101328
101328
101327
101327
101327
101327
101327
101327
101327
101327
101327
101327
101327
101327
101327
101327
101326
101326
101326
101326
101326
101326
101326
101326
101326
101326
101326
101326
101326
101326
101326
101326
101326
101326
101326
101326
101326
101326
101326
101325
101325
101325
101325
101325
101325
101325
101325
101325
101325
101325
101325
101325
101325
101325
101325
101325
101325
99598.4
99604.6
99644.8
99712.1
99798.8
99897
99998.8
100096
100179
100225
99778.3
99776.1
99801.1
99848
99911.8
99986.4
100066
100146
100218
100263
99940.7
99931.5
99944.3
99975.4
100021
100076
100138
100201
100262
100307
100083
100070
100075
100096
100129
100170
100218
100267
100318
100359
100211
100196
100196
100208
100231
100262
100299
100338
100379
100415
100326
100310
100306
100313
100329
100351
100379
100410
100443
100474
100430
100414
100407
100410
100421
100437
100458
100483
100509
100535
100526
100509
100501
100501
100508
100520
100536
100554
100576
100597
100613
100597
100589
100587
100590
100599
100610
100625
100642
100660
100694
100679
100671
100667
100669
100674
100683
100695
100708
100723
100769
100756
100747
100743
100743
100747
100753
100762
100773
100785
100840
100827
100819
100815
100814
100816
100821
100828
100837
100847
100906
100895
100888
100884
100882
100883
100887
100892
100899
100907
100969
100959
100953
100949
100947
100948
100950
100954
100960
100967
101029
101021
101015
101012
101010
101010
101011
101014
101019
101025
101086
101080
101075
101072
101070
101070
101071
101073
101077
101081
101141
101137
101133
101131
101129
101129
101130
101131
101134
101137
101195
101192
101189
101187
101186
101186
101187
101188
101189
101192
101248
101246
101244
101243
101243
101242
101243
101243
101244
101246
101299
101299
101298
101298
101298
101298
101298
101298
101298
101299
101720
101677
101602
101500
101362
101169
100898
100481
100005
98715.4
101371
101278
101155
101006
100810
100545
100189
99652
99083.7
97514.1
101007
100875
100714
100521
100270
99936.2
99501.3
98847.1
98198.3
96355.9
100659
100493
100297
100062
99758.8
99361.3
98856
98090.2
97375.3
95276.4
100342
100145
99917.2
99642.3
99293.1
98838.9
98274.1
97405.8
96642
94312.4
100063
99839.3
99584.8
99275.7
98887.7
98385.6
97775.5
96818.2
96024.6
93500
99826.9
99583.6
99308
98971.8
98554.9
98016.2
97377
96350.4
95547.6
92869.6
99639.2
99382.8
99093
98738.3
98304.1
97742
97091.6
96023.2
95232.4
92436.9
99502.6
99240.3
98943.4
98579.7
98140.2
97570.8
96925.1
95842.8
95093.4
92218.2
99417.4
99157.2
98860.9
98499.7
98067.2
97508.2
96880.6
95814.9
95130.9
92231.5
103961
104182
104396
104622
104873
105151
105452
105768
106083
106379
103930
104151
104364
104588
104836
105111
105409
105719
106022
106327
103839
104051
104255
104467
104701
104959
105236
105521
105789
106075
103700
103895
104083
104275
104486
104715
104955
105196
105403
105615
103514
103686
103852
104019
104197
104387
104578
104759
104888
104980
103284
103429
103568
103702
103840
103981
104113
104221
104260
104194
103016
103129
103236
103331
103423
103507
103570
103591
103533
103271
102716
102793
102864
102916
102955
102976
102962
102885
102722
102234
102392
102430
102462
102466
102448
102400
102302
102118
101848
101108
102045
102047
102037
101990
101912
101793
101608
101310
100935
99924.7
101328
101328
101328
101328
101328
101328
101328
101328
101328
101328
101328
101329
101329
101329
101329
101330
101330
101330
101330
101331
101331
101332
101332
101333
101333
101334
101334
101335
101336
101337
101337
101338
101339
101340
101342
101343
101344
101346
101347
101349
101351
101353
101355
101357
101359
101362
101365
101368
101371
101375
101378
101382
101387
101391
101396
101402
101408
101414
101420
101428
101435
101444
101453
101462
101473
101484
101496
101508
101522
101537
101553
101570
101588
101608
101630
101652
101677
101704
101732
101763
101797
101833
101872
101914
101960
102010
102065
102124
102190
102261
102341
102428
102526
102636
102759
102898
103058
103241
103452
103697
101328
101328
101328
101328
101328
101328
101328
101328
101328
101328
101328
101329
101329
101329
101329
101330
101330
101330
101330
101331
101331
101332
101332
101333
101333
101334
101334
101335
101336
101337
101337
101338
101339
101340
101342
101343
101344
101346
101347
101349
101351
101353
101355
101357
101359
101362
101365
101368
101371
101375
101378
101382
101387
101391
101396
101402
101407
101414
101420
101428
101435
101444
101453
101462
101472
101484
101496
101508
101522
101537
101553
101570
101588
101608
101630
101652
101677
101704
101732
101763
101797
101833
101872
101914
101960
102010
102064
102124
102189
102260
102339
102426
102523
102631
102753
102890
103047
103226
103433
103670
101328
101328
101328
101328
101328
101328
101328
101328
101328
101328
101328
101329
101329
101329
101329
101330
101330
101330
101330
101331
101331
101332
101332
101333
101333
101334
101334
101335
101336
101337
101337
101338
101339
101340
101342
101343
101344
101346
101347
101349
101351
101353
101355
101357
101359
101362
101365
101368
101371
101374
101378
101382
101387
101391
101396
101402
101407
101414
101420
101427
101435
101444
101452
101462
101472
101483
101495
101508
101522
101537
101553
101570
101588
101608
101629
101652
101677
101704
101732
101763
101797
101833
101872
101914
101959
102009
102063
102122
102186
102257
102335
102420
102515
102621
102739
102872
103022
103192
103385
103602
101328
101328
101328
101328
101328
101328
101328
101328
101328
101328
101328
101329
101329
101329
101329
101329
101330
101330
101330
101331
101331
101332
101332
101333
101333
101334
101334
101335
101336
101337
101337
101338
101339
101340
101341
101343
101344
101346
101347
101349
101351
101352
101355
101357
101359
101362
101365
101368
101371
101374
101378
101382
101386
101391
101396
101401
101407
101413
101420
101427
101435
101443
101452
101462
101472
101483
101495
101508
101522
101537
101553
101570
101588
101608
101629
101652
101677
101704
101732
101763
101796
101832
101871
101913
101958
102008
102061
102119
102183
102252
102328
102412
102504
102606
102719
102844
102984
103139
103312
103498
101328
101328
101328
101328
101328
101328
101328
101328
101328
101328
101328
101329
101329
101329
101329
101329
101330
101330
101330
101331
101331
101332
101332
101332
101333
101334
101334
101335
101336
101336
101337
101338
101339
101340
101341
101343
101344
101345
101347
101349
101350
101352
101354
101357
101359
101362
101364
101367
101371
101374
101378
101382
101386
101391
101396
101401
101407
101413
101420
101427
101435
101443
101452
101462
101472
101483
101495
101508
101522
101537
101552
101570
101588
101608
101629
101652
101677
101703
101732
101763
101796
101832
101870
101912
101957
102005
102058
102116
102178
102246
102319
102400
102488
102585
102690
102806
102932
103068
103213
103357
101328
101328
101328
101328
101328
101328
101328
101328
101328
101328
101328
101328
101329
101329
101329
101329
101330
101330
101330
101331
101331
101331
101332
101332
101333
101334
101334
101335
101336
101336
101337
101338
101339
101340
101341
101342
101344
101345
101347
101348
101350
101352
101354
101356
101359
101361
101364
101367
101370
101374
101378
101382
101386
101391
101396
101401
101407
101413
101420
101427
101435
101443
101452