/*--------------------------------*- C++ -*----------------------------------*\
  =========                 |
  \\      /  F ield         | OpenFOAM: The Open Source CFD Toolbox
   \\    /   O peration     | Website:  https://openfoam.org
    \\  /    A nd           | Version:  8
     \\/     M anipulation  |
\*---------------------------------------------------------------------------*/
FoamFile
{
    version     2.0;
    format      ascii;
    class       surfaceScalarField;
    location    "0.2";
    object      phi;
}
// * * * * * * * * * * * * * * * * * * * * * * * * * * * * * * * * * * * * * //

dimensions      [1 0 -1 0 0 0 0];

internalField   nonuniform List<scalar> 
4780
(
-5.9511732e-09
-0.00032336376
1.0959241e-12
-1.2828918e-09
-0.00032337846
-2.6957932e-12
-1.5751533e-10
-0.00032337255
-3.5420861e-12
-2.9219268e-10
-0.00032337277
-7.4949396e-13
-2.3301511e-11
-0.00032337218
9.6956339e-13
2.4915142e-10
-0.00032337213
-6.3247574e-13
1.4852928e-10
-0.00032337263
-1.3068232e-12
1.3076037e-09
-0.00032337245
-1.5176905e-12
5.9757563e-09
-0.00032337847
-6.3232939e-13
-0.00032336382
7.2231612e-13
-6.2267804e-09
-0.00035408347
9.1722914e-13
-1.866205e-09
-0.00035411295
-2.7275058e-12
-3.2703932e-10
-0.00035410182
-3.5240758e-12
-4.0078108e-10
-0.00035410188
-7.6668066e-13
-2.4070486e-11
-0.00035410075
8.4952413e-13
3.5879708e-10
-0.00035410066
-6.3985004e-13
3.1710538e-10
-0.00035410159
-1.2770108e-12
1.8889826e-09
-0.00035410163
-1.3946882e-12
6.2508684e-09
-0.00035411298
-5.4151386e-13
-0.00035408359
7.2766343e-13
-2.8136773e-09
-0.00035594778
9.460811e-13
-1.9908056e-09
-0.00035598502
-2.7806577e-12
-3.6495897e-10
-0.00035597233
-3.5795882e-12
-4.2883403e-10
-0.00035597213
-7.7390811e-13
-2.4240753e-11
-0.00035597049
8.6378518e-13
3.8667711e-10
-0.00035597035
-6.430758e-13
3.5508517e-10
-0.00035597169
-1.2819311e-12
2.0138768e-09
-0.00035597203
-1.4220276e-12
2.8382027e-09
-0.00035598506
-5.461535e-13
-0.00035594795
7.3874346e-13
-2.6755307e-09
-0.00035635467
9.5839783e-13
-2.003956e-09
-0.0003563993
-2.8389881e-12
-3.7474432e-10
-0.00035638524
-3.6289594e-12
-4.3771028e-10
-0.00035638475
-7.7730108e-13
-2.4462645e-11
-0.00035638263
8.919114e-13
3.9515626e-10
-0.00035638243
-6.3367203e-13
3.6474464e-10
-0.00035638416
-1.3117903e-12
2.0272404e-09
-0.00035638484
-1.4429937e-12
2.7003638e-09
-0.00035639935
-5.4812014e-13
-0.0003563549
7.4966441e-13
-2.1316577e-09
-0.0003567167
9.6597231e-13
-2.0032249e-09
-0.00035676751
-2.9033337e-12
-3.7794998e-10
-0.00035675268
-3.6758076e-12
-4.4328475e-10
-0.00035675185
-7.7703823e-13
-2.4669402e-11
-0.00035674928
9.2870146e-13
4.0030346e-10
-0.00035674904
-6.1345599e-13
3.6774985e-10
-0.00035675112
-1.3555345e-12
2.0266454e-09
-0.00035675219
-1.4619467e-12
2.156776e-09
-0.00035676756
-5.4868479e-13
-0.00035671699
7.6055348e-13
-2.4370489e-09
-0.00035708244
9.7121473e-13
-1.9976243e-09
-0.00035713985
-2.9742939e-12
-3.814466e-10
-0.00035712404
-3.7217807e-12
-4.4824855e-10
-0.0003571228
-7.7382839e-13
-2.4845533e-11
-0.00035711982
9.7237803e-13
4.0486489e-10
-0.00035711953
-5.851691e-13
3.710113e-10
-0.00035712193
-1.408011e-12
2.0211204e-09
-0.00035712345
-1.4800728e-12
2.4623827e-09
-0.00035713991
-5.4706049e-13
-0.00035708279
7.7146112e-13
-2.1294837e-09
-0.00035745406
9.7461494e-13
-1.9922615e-09
-0.00035751723
-3.0520843e-12
-3.8340846e-10
-0.00035750086
-3.7666513e-12
-4.5291206e-10
-0.00035749912
-7.675413e-13
-2.4986134e-11
-0.00035749579
1.022917e-12
4.0916499e-10
-0.00035749545
-5.4874361e-13
3.7271256e-10
-0.00035749811
-1.4687938e-12
2.0157758e-09
-0.00035750017
-1.4979873e-12
2.1550366e-09
-0.0003575173
-5.4360647e-13
-0.00035745446
7.825594e-13
-2.3328506e-09
-0.00035783116
9.7660367e-13
-1.9862211e-09
-0.00035790021
-3.1358032e-12
-3.8618827e-10
-0.0003578832
-3.810965e-12
-4.573149e-10
-0.00035788087
-7.5861962e-13
-2.5089082e-11
-0.00035787725
1.0797019e-12
4.1324781e-10
-0.00035787687
-5.0445284e-13
3.7520545e-10
-0.00035787972
-1.5379548e-12
2.0096941e-09
-0.00035788242
-1.5152044e-12
2.3585699e-09
-0.00035790028
-5.3731365e-13
-0.0003578316
7.9412638e-13
-2.1214867e-09
-0.00035821438
9.7691603e-13
-1.9791376e-09
-0.00035828856
-3.2256466e-12
-3.8762758e-10
-0.0003582713
-3.8543376e-12
-4.6142725e-10
-0.00035826824
-7.4674742e-13
-2.5152918e-11
-0.00035826441
1.1432115e-12
4.1708617e-10
-0.00035826398
-4.5286851e-13
3.7633226e-10
-0.00035826697
-1.6157641e-12
2.0025084e-09
-0.00035827042
-1.5322025e-12
2.1473627e-09
-0.00035828864
-5.2960561e-13
-0.00035821487
8.0551058e-13
-2.2471089e-09
-0.00035860352
9.762427e-13
-1.9722525e-09
-0.0003586827
-3.3199559e-12
-3.8969361e-10
-0.00035866523
-3.8968714e-12
-4.6524978e-10
-0.00035866133
-7.3339542e-13
-2.517681e-11
-0.00035865737
1.2111481e-12
4.2068268e-10
-0.00035865689
-3.9470044e-13
3.7805836e-10
-0.00035865993
-1.7031836e-12
1.995459e-09
-0.00035866426
-1.5483099e-12
2.2730936e-09
-0.00035868278
-5.1833499e-13
-0.00035860404
8.1747357e-13
-2.100152e-09
-0.00035899905
9.7393701e-13
-1.9635903e-09
-0.00035908254
-3.4180883e-12
-3.9057403e-10
-0.00035906521
-3.9382367e-12
-4.6875419e-10
-0.00035906032
-7.1779718e-13
-2.5159565e-11
-0.00035905632
1.2842232e-12
4.2401139e-10
-0.00035905579
-3.3082498e-13
3.785717e-10
-0.0003590588
-1.8006463e-12
1.9865692e-09
-0.00035906416
-1.5638029e-12
2.1262241e-09
-0.00035908261
-5.0534855e-13
-0.00035899961
8.2942277e-13
-2.1735071e-09
-0.00035940093
9.7139177e-13
-1.9553171e-09
-0.0003594884
-3.5179997e-12
-3.918713e-10
-0.00035947137
-3.9787131e-12
-4.7194129e-10
-0.00035946533
-7.0105501e-13
-2.5101116e-11
-0.00035946138
1.3609631e-12
4.2707452e-10
-0.00035946081
-2.6234243e-13
3.7947358e-10
-0.00035946371
-1.9091862e-12
1.978005e-09
-0.00035947023
-1.5789847e-12
2.1996227e-09
-0.00035948846
-4.8949636e-13
-0.00035940152
8.4231555e-13
-2.0699835e-09
-0.00035980952
9.677936e-13
-1.944951e-09
-0.00035990028
-3.6189088e-12
-3.9213801e-10
-0.00035988389
-4.0176374e-12
-4.7478831e-10
-0.00035987655
-6.8267861e-13
-2.500083e-11
-0.00035987276
1.4404617e-12
4.2985107e-10
-0.00035987214
-1.9079078e-13
3.7931703e-10
-0.00035987482
-2.0305652e-12
1.9672848e-09
-0.00035988267
-1.5930152e-12
2.096111e-09
-0.00035990033
-4.7246779e-13
-0.00035981013
8.5425153e-13
-2.1087492e-09
-0.00036022485
9.639008e-13
-1.9347933e-09
-0.00036031849
-3.7178953e-12
-3.9262447e-10
-0.00036030294
-4.0555251e-12
-4.7729851e-10
-0.00036029414
-6.6504996e-13
-2.4858921e-11
-0.0003602906
1.5203524e-12
4.3234543e-10
-0.00036028994
-1.1919508e-13
3.7935118e-10
-0.00036029232
-2.1654106e-12
1.9567104e-09
-0.00036030164
-1.6060654e-12
2.1348455e-09
-0.00036031852
-4.5232883e-13
-0.00036022548
8.6694798e-13
-2.0340149e-09
-0.00036064724
9.596627e-13
-1.9224348e-09
-0.00036074307
-3.8131021e-12
-3.9221915e-10
-0.00036072869
-4.0900391e-12
-4.7945671e-10
-0.00036071828
-6.4750727e-13
-2.467532e-11
-0.0003607151
1.5989093e-12
4.3454414e-10
-0.00036071439
-5.0968397e-14
3.7846564e-10
-0.00036071637
-2.3087861e-12
1.9438743e-09
-0.00036072732
-1.6179669e-12
2.0601485e-09
-0.00036074309
-4.2983153e-13
-0.00036064788
8.7938603e-13
-2.0483981e-09
-0.00036107676
9.5624491e-13
-1.9099267e-09
-0.0003611743
-3.9017499e-12
-3.9186232e-10
-0.00036116132
-4.1234112e-12
-4.8127228e-10
-0.00036114915
-6.3012102e-13
-2.4450767e-11
-0.00036114643
1.6758625e-12
4.3645555e-10
-0.00036114569
2.6939831e-14
3.775992e-10
-0.00036114717
-2.450567e-12
1.9308308e-09
-0.00036115988
-1.6280756e-12
2.0745575e-09
-0.00036117429
-4.0490649e-13
-0.00036107741
8.9263778e-13
-1.989951e-09
-0.00036151367
9.5314046e-13
-1.8952088e-09
-0.00036161229
-3.9838917e-12
-3.9072968e-10
-0.00036160101
-4.158524e-12
-4.8274015e-10
-0.00036158695
-6.1559198e-13
-2.4185536e-11
-0.00036158478
1.7471733e-12
4.3807574e-10
-0.000361584
1.2754656e-13
3.7592796e-10
-0.00036158491
-2.583647e-12
1.9155212e-09
-0.00036159951
-1.6366847e-12
2.0160965e-09
-0.00036161225
-3.7811857e-13
-0.00036151432
9.0570997e-13
-1.9864695e-09
-0.00036195808
9.5080027e-13
-1.8799595e-09
-0.00036205727
-4.0513697e-12
-3.895031e-10
-0.00036204794
-4.1867864e-12
-4.8387693e-10
-0.00036203188
-6.0188432e-13
-2.3880668e-11
-0.00036203035
1.812229e-12
4.3942162e-10
-0.00036202953
2.2233872e-13
3.7413395e-10
-0.00036202978
-2.7049883e-12
1.8996271e-09
-0.00036204638
-1.6433006e-12
2.0125537e-09
-0.00036205721
-3.4849981e-13
-0.00036195873
9.1893057e-13
-1.9370729e-09
-0.00036241019
9.4706578e-13
-1.862607e-09
-0.0003625094
-4.1046931e-12
-3.875917e-10
-0.00036250227
-4.2136436e-12
-4.8469235e-10
-0.00036248412
-5.9347476e-13
-2.3537007e-11
-0.00036248331
1.8657832e-12
4.4050186e-10
-0.00036248245
2.9498327e-13
3.7162673e-10
-0.00036248197
-2.8155203e-12
1.8815781e-09
-0.00036250066
-1.6467775e-12
1.9630574e-09
-0.0003625093
-3.1540302e-13
-0.00036241083
9.321837e-13
-1.9205785e-09
-0.00036287012
9.445924e-13
-1.8447291e-09
-0.00036296888
-4.1398866e-12
-3.8547142e-10
-0.00036296417
-4.2366819e-12
-4.8521309e-10
-0.00036294388
-5.8506753e-13
-2.3155372e-11
-0.00036294384
1.91109e-12
4.41343e-10
-0.00036294295
3.5098081e-13
3.6888359e-10
-0.00036294169
-2.9116235e-12
1.8629101e-09
-0.00036296252
-1.6477584e-12
1.946417e-09
-0.00036296875
-2.8217672e-13
-0.00036287074
9.4566217e-13
-1.875108e-09
-0.00036333802
9.4180996e-13
-1.8255855e-09
-0.00036343588
-4.1526893e-12
-3.8272036e-10
-0.00036343381
-4.2574099e-12
-4.8545981e-10
-0.00036341132
-5.8360339e-13
-2.2736722e-11
-0.00036341212
1.9397771e-12
4.4196404e-10
-0.00036341119
3.8365957e-13
3.6548267e-10
-0.0003634091
-2.9957118e-12
1.8429113e-09
-0.00036343211
-1.6451635e-12
1.9007616e-09
-0.0003634357
-2.4618915e-13
-0.00036333862
9.5925417e-13
-1.8484063e-09
-0.00036381399
9.3827306e-13
-1.8063778e-09
-0.00036391059
-4.142427e-12
-3.7966386e-10
-0.00036391132
-4.2739736e-12
-4.8547617e-10
-0.00036388664
-5.8532362e-13
-2.2281999e-11
-0.00036388831
1.9543932e-12
4.4240711e-10
-0.00036388735
3.9237081e-13
3.6175161e-10
-0.0003638844
-3.063153e-12
1.8228069e-09
-0.00036390958
-1.6369822e-12
1.8738323e-09
-0.00036391037
-2.0328359e-13
-0.00036381456
9.7173691e-13
-1.803123e-09
-0.00036429812
9.3289092e-13
-1.7863359e-09
-0.00036439315
-4.103868e-12
-3.7599124e-10
-0.00036439683
-4.286291e-12
-4.85287e-10
-0.00036436999
-5.9275848e-13
-2.1792158e-11
-0.00036437255
1.9498469e-12
4.4269537e-10
-0.00036437156
3.7068429e-13
3.5738506e-10
-0.00036436773
-3.1144284e-12
1.8018387e-09
-0.00036439506
-1.6248872e-12
1.8282823e-09
-0.00036439289
-1.6325049e-13
-0.00036429866
9.8562535e-13
-1.7675349e-09
-0.00036479048
9.2526864e-13
-1.7662513e-09
-0.00036488373
-4.0398204e-12
-3.7191278e-10
-0.00036489047
-4.2937437e-12
-4.8494307e-10
-0.00036486152
-6.0463747e-13
-2.1267355e-11
-0.00036486497
1.9275083e-12
4.4287733e-10
-0.00036486395
3.1448639e-13
3.5259627e-10
-0.00036485926
-3.147967e-12
1.7808034e-09
-0.00036488866
-1.6067991e-12
1.7923875e-09
-0.00036488342
-1.3284983e-13
-0.00036479099
9.9795661e-13
-1.7196437e-09
-0.00036529112
9.1423698e-13
-1.7456043e-09
-0.00036538245
-3.9486174e-12
-3.6721092e-10
-0.00036539231
-4.2964465e-12
-4.8447937e-10
-0.00036536136
-6.2205801e-13
-2.0708766e-11
-0.00036536567
1.8844023e-12
4.4298591e-10
-0.00036536463
2.1480556e-13
3.4717614e-10
-0.00036535909
-3.1621191e-12
1.7591822e-09
-0.00036539047
-1.5826338e-12
1.7441524e-09
-0.0003653821
-1.0081183e-13
-0.00036529159
1.0118773e-12
-1.675661e-09
-0.00036580005
8.9860777e-13
-1.7249499e-09
-0.00036588945
-3.8336563e-12
-3.6199977e-10
-0.00036590244
-4.2940303e-12
-4.8393737e-10
-0.0003658696
-6.4584423e-13
-2.0116135e-11
-0.00036587475
1.8209666e-12
4.4306027e-10
-0.00036587369
7.3085198e-14
3.4124619e-10
-0.00036586734
-3.1573428e-12
1.7375301e-09
-0.00036590056
-1.55066e-12
1.6997875e-09
-0.00036588905
-6.7625365e-14
-0.00036580049
1.0247259e-12
-1.6229451e-09
-0.00036631729
8.7610382e-13
-1.7040889e-09
-0.00036640481
-3.6989282e-12
-3.5614317e-10
-0.00036642089
-4.285361e-12
-4.8334912e-10
-0.00036638633
-6.7385548e-13
-1.9489538e-11
-0.00036639225
1.7378763e-12
4.4313051e-10
-0.00036639117
-6.2703021e-14
3.3467933e-10
-0.00036638407
-3.1313436e-12
1.7156467e-09
-0.00036641898
-1.5110012e-12
1.6466534e-09
-0.00036640436
-3.3196608e-14
-0.00036631769
1.0378633e-12
-1.5705447e-09
-0.00036684282
8.4666154e-13
-1.6834919e-09
-0.00036692861
-3.5472673e-12
-3.4971089e-10
-0.00036694769
-4.2705397e-12
-4.8274285e-10
-0.00036691159
-7.0798768e-13
-1.8828748e-11
-0.00036691823
1.6343995e-12
4.4322309e-10
-0.00036691713
-1.8817472e-13
3.2755499e-10
-0.00036690934
-3.085761e-12
1.6940025e-09
-0.00036694576
-1.4615738e-12
1.5937984e-09
-0.00036692811
3.0209566e-15
-0.00036684316
1.0516119e-12
-1.5113688e-09
-0.00036737659
8.0678785e-13
-1.6631731e-09
-0.00036746091
-3.3857071e-12
-3.4263357e-10
-0.00036748286
-4.2495442e-12
-4.8213593e-10
-0.00036744542
-7.4668198e-13
-1.8133397e-11
-0.00036745268
1.5143385e-12
4.433545e-10
-0.00036745157
-3.4667391e-13
3.1981221e-10
-0.00036744318
-3.0196554e-12
1.6726094e-09
-0.00036748089
-1.4035878e-12
1.5341337e-09
-0.00036746035
4.0828466e-14
-0.00036737689
1.064926e-12
-1.4503378e-09
-0.00036791857
7.5554404e-13
-1.6435365e-09
-0.00036800174
-3.2184178e-12
-3.34971e-10
-0.00036802638
-4.2208267e-12
-4.8153689e-10
-0.00036798782
-7.899803e-13
-1.7403175e-11
-0.00036799561
1.3778591e-12
4.4353316e-10
-0.00036799449
-5.3501682e-13
3.1151871e-10
-0.0003679856
-2.9341778e-12
1.6518699e-09
-0.00036802438
-1.3338551e-12
1.4725812e-09
-0.00036800113
7.1008158e-14
-0.00036791881
1.0806137e-12
-1.3835993e-09
-0.00036846872
6.9087447e-13
-1.6246615e-09
-0.00036855114
-3.0503925e-12
-3.2670817e-10
-0.00036857824
-4.1861328e-12
-4.8094363e-10
-0.00036853878
-8.4005538e-13
-1.6637789e-11
-0.00036854699
1.2269054e-12
4.4375666e-10
-0.00036854588
-7.4962682e-13
3.0266728e-10
-0.00036853657
-2.8315389e-12
1.6318664e-09
-0.00036857621
-1.2521324e-12
1.4052923e-09
-0.00036855046
1.0021763e-13
-0.0003684689
1.0962735e-12
-1.3137698e-09
-0.00036902701
6.1051651e-13
-1.6067777e-09
-0.00036910911
-2.8855631e-12
-3.1790742e-10
-0.00036913842
-4.1419981e-12
-4.8034252e-10
-0.00036909829
-8.9572094e-13
-1.5837085e-11
-0.00036910682
1.0652372e-12
4.4401338e-10
-0.0003691057
-9.8640246e-13
2.9332802e-10
-0.00036909609
-2.7120252e-12
1.6128327e-09
-0.00036913635
-1.1594693e-12
1.3348869e-09
-0.00036910837
1.3162907e-13
-0.00036902712
1.1133504e-12
-1.238842e-09
-0.00036959341
5.1207809e-13
-1.5898534e-09
-0.00036967567
-2.7287814e-12
-3.0859132e-10
-0.00036970691
-4.0911378e-12
-4.7970962e-10
-0.00036966631
-9.6548689e-13
-1.5001435e-11
-0.00036967506
8.9496165e-13
4.4428115e-10
-0.00036967395
-1.2441153e-12
2.8353021e-10
-0.00036966413
-2.5795888e-12
1.5947463e-09
-0.0003697048
-1.0536871e-12
1.2593655e-09
-0.00036967486
1.6731264e-13
-0.00036959345
1.1316279e-12
-1.160208e-09
-0.00037016796
3.9442916e-13
-1.5738994e-09
-0.00037025085
-2.5835136e-12
-2.9882591e-10
-0.00037028372
-4.0335441e-12
-4.7901006e-10
-0.00037024284
-1.0585407e-12
-1.4132209e-11
-0.00037025171
7.2056425e-13
4.4452777e-10
-0.00037025062
-1.518918e-12
2.7334705e-10
-0.00037024068
-2.4333948e-12
1.5776271e-09
-0.00037028157
-9.3200548e-13
1.180125e-09
-0.00037024995
2.0761048e-13
-0.00037016791
1.1535459e-12
-1.0769577e-09
-0.00037075069
2.4446515e-13
-1.5587463e-09
-0.00037083466
-2.4518899e-12
-2.8865323e-10
-0.00037086888
-3.9656323e-12
-4.7819863e-10
-0.00037082789
-1.1322027e-12
-1.3230379e-11
-0.0003708368
5.4237725e-13
4.4471288e-10
-0.00037083573
-1.8159625e-12
2.6282777e-10
-0.00037082574
-2.280508e-12
1.561317e-09
-0.00037086669
-7.9799695e-13
1.0962541e-09
-0.00037083369
2.51229e-13
-0.00037075055
1.1772581e-12
-9.8998254e-10
-0.00037134173
1.2533334e-13
-1.5441948e-09
-0.00037142719
-2.3359481e-12
-2.7813719e-10
-0.00037146248
-3.8892309e-12
-4.77222e-10
-0.0003714215
-1.1854901e-12
-1.2298832e-11
-0.00037143038
3.62496e-13
4.447867e-10
-0.00037142935
-2.1332081e-12
2.520426e-10
-0.00037141937
-2.1174736e-12
1.5456279e-09
-0.00037146025
-6.4440444e-13
1.0086406e-09
-0.00037142612
3.0173411e-13
-0.00037134149
1.203787e-12
-8.9908759e-10
-0.00037194125
-7.0961378e-15
-1.5300011e-09
-0.00037202853
-2.2368558e-12
-2.673226e-10
-0.00037206466
-3.8069536e-12
-4.7601835e-10
-0.00037202376
-1.2326226e-12
-1.134104e-11
-0.00037203257
1.6547997e-13
4.4469285e-10
-0.00037203157
-2.4730837e-12
2.4104438e-10
-0.00037202164
-1.9542956e-12
1.5303107e-09
-0.00037206238
-4.7536836e-13
9.1708108e-10
-0.00037202735
3.5554945e-13
-0.00037194089
1.2303429e-12
-8.0497909e-10
-0.00037254949
-1.2709356e-13
-1.516012e-09
-0.00037263882
-2.1548794e-12
-2.5626049e-10
-0.0003726756
-3.7120452e-12
-4.7452009e-10
-0.00037263481
-1.2671266e-12
-1.0360259e-11
-0.00037264354
3.45869e-14
4.4436937e-10
-0.00037264258
-2.8219884e-12
2.2988959e-10
-0.00037263271
-1.7887834e-12
1.5152178e-09
-0.00037267328
-2.7941019e-13
8.2226792e-10
-0.00037263753
4.1661955e-13
-0.00037254899
1.2548771e-12
-7.0806947e-10
-0.00037316677
-2.4562873e-13
-1.5020015e-09
-0.00037325828
-2.0891895e-12
-2.4498186e-10
-0.00037329558
-3.6082528e-12
-4.7265749e-10
-0.00037325487
-1.295756e-12
-9.3620469e-12
-0.00037326354
-9.9982301e-14
4.437513e-10
-0.00037326263
-3.1610322e-12
2.186169e-10
-0.0003732528
-1.6242179e-12
1.5001372e-09
-0.00037329322
-7.2396742e-14
7.2457738e-10
-0.00037325687
4.8273351e-13
-0.00037316612
1.2773073e-12
-6.0937665e-10
-0.00037379347
-3.8943132e-13
-1.4877371e-09
-0.00037388718
-2.0397957e-12
-2.3351403e-10
-0.00037392494
-3.4941348e-12
-4.7035909e-10
-0.00037388424
-1.3202015e-12
-8.3513868e-12
-0.00037389287
-2.5168052e-13
4.4277282e-10
-0.00037389201
-3.4657217e-12
2.0725937e-10
-0.00037388218
-1.4617651e-12
1.4848505e-09
-0.00037392254
8.4033667e-14
6.249695e-10
-0.00037388563
5.5513995e-13
-0.00037379266
1.2977188e-12
-5.1003238e-10
-0.00037443009
-5.5458647e-13
-1.4729382e-09
-0.00037452587
-2.0046099e-12
-2.2186272e-10
-0.00037456412
-3.3662175e-12
-4.6755654e-10
-0.00037452329
-1.3358841e-12
-7.3345355e-12
-0.00037453196
-3.8749049e-13
4.4137072e-10
-0.00037453115
-3.7239339e-12
1.9582978e-10
-0.00037452126
-1.2973951e-12
1.4690943e-09
-0.00037456168
2.2430206e-13
5.2466311e-10
-0.00037452418
6.3452347e-13
-0.00037442911
1.3149531e-12
-4.0987512e-10
-0.00037507714
-7.4316898e-13
-1.4573404e-09
-0.00037517472
-1.983658e-12
-2.1003311e-10
-0.00037521357
-3.2336382e-12
-4.641867e-10
-0.00037517244
-1.3551306e-12
-6.3180477e-12
-0.00037518124
-5.1213409e-13
4.3948448e-10
-0.00037518049
-3.9344913e-12
1.8433835e-10
-0.00037517044
-1.1361106e-12
1.452624e-09
-0.0003752111
3.8221736e-13
4.2354724e-10
-0.00037517289
7.231383e-13
-0.00037507597
1.3316095e-12
-3.1032751e-10
-0.00037573529
-9.5457088e-13
-1.4406456e-09
-0.00037583431
-1.9802484e-12
-1.9799828e-10
-0.00037587392
-3.0867006e-12
-4.602007e-10
-0.00037583229
-1.3632977e-12
-5.3077752e-12
-0.00037584134
-6.2071798e-13
4.3707045e-10
-0.00037584065
-4.0868101e-12
1.7276476e-10
-0.00037583033
-9.6540189e-13
1.4351592e-09
-0.00037587143
5.5545266e-13
3.2304106e-10
-0.00037583233
8.2109951e-13
-0.00037573392
1.3445645e-12
-2.0939032e-10
-0.00037640504
-1.2027124e-12
-1.4226423e-09
-0.00037650501
-2.0062715e-12
-1.8577113e-10
-0.00037654565
-2.9343343e-12
-4.5554757e-10
-0.00037650328
-1.376709e-12
-4.3114768e-12
-0.00037651271
-7.1965765e-13
4.340763e-10
-0.00037651208
-4.1817118e-12
1.6112527e-10
-0.00037650136
-7.8992883e-13
1.4165123e-09
-0.00037654313
7.3588865e-13
2.2112499e-10
-0.00037650288
9.3559925e-13
-0.00037640347
1.3565062e-12
-1.1281252e-10
-0.00037708737
-1.5132381e-12
-1.4030231e-09
-0.00037718771
-2.068977e-12
-1.7326035e-10
-0.00037722969
-2.7775145e-12
-4.5022746e-10
-0.00037718635
-1.3900669e-12
-3.3355876e-12
-0.00037719629
-8.0426652e-13
4.3050725e-10
-0.00037719573
-4.2116461e-12
1.4933484e-10
-0.00037718447
-5.9759646e-13
1.3963891e-09
-0.00037722716
9.2694532e-13
1.2346144e-10
-0.00037718544
1.0672491e-12
-0.0003770856
1.3650331e-12
-1.6173202e-11
-0.00037778244
-1.7995462e-12
-1.381778e-09
-0.00037788251
-2.0926092e-12
-1.6059685e-10
-0.00037792618
-2.6083958e-12
-4.4418242e-10
-0.00037788163
-1.4025534e-12
-2.3905723e-12
-0.00037789223
-8.8002515e-13
4.2629382e-10
-0.00037789173
-4.1767828e-12
1.3752583e-10
-0.00037787979
-3.8803827e-13
1.3748094e-09
-0.00037792364
1.1246517e-12
2.4600743e-11
-0.0003778801
1.197808e-12
-0.00037778047
1.3702578e-12
9.7685075e-11
-0.00037849189
-2.0663454e-12
-1.3584955e-09
-0.00037859097
-2.076875e-12
-1.4745435e-10
-0.00037863674
-2.4407982e-12
-4.3753434e-10
-0.00037859075
-1.4204612e-12
-1.4859737e-12
-0.00037860216
-9.4246673e-13
4.2157583e-10
-0.00037860171
-4.0730714e-12
1.253762e-10
-0.00037858897
-1.3437566e-13
1.3513536e-09
-0.00037863421
1.3323487e-12
-8.5427815e-11
-0.00037858844
1.3254848e-12
-0.00037848973
1.3737064e-12
2.4100545e-10
-0.00037921478
-2.3197785e-12
-1.3335848e-09
-0.00037931206
-2.0285194e-12
-1.3443367e-10
-0.00037936039
-2.2615771e-12
-4.3008985e-10
-0.00037931276
-1.4422474e-12
-6.5594763e-13
-0.00037932511
-9.9665575e-13
4.1611531e-10
-0.00037932471
-3.8987745e-12
1.134856e-10
-0.00037931103
6.9605364e-14
1.3264921e-09
-0.00037935787
1.5462829e-12
-2.2952258e-10
-0.00037930942
1.4470734e-12
-0.00037921243
1.3723507e-12
3.3350518e-10
-0.00037995441
-2.5645938e-12
-1.3064232e-09
-0.00038004924
-1.950583e-12
-1.2045494e-10
-0.0003801005
-2.0906803e-12
-4.2236799e-10
-0.00038005105
-1.4674939e-12
1.9521815e-13
-0.00038006447
-1.0412389e-12
4.1050285e-10
-0.00038006412
-3.6611869e-12
1.0076971e-10
-0.00038004939
2.3660323e-13
1.2995179e-09
-0.000380098
1.7625564e-12
-3.2225141e-10
-0.00038004651
1.5673016e-12
-0.0003799519
1.3683945e-12
5.2570648e-10
-0.0003807069
-2.7897495e-12
-1.2778511e-09
-0.00038079842
-1.8551185e-12
-1.0755693e-10
-0.0003808531
-1.8933447e-12
-4.1350314e-10
-0.00038080169
-1.4944983e-12
1.3625038e-12
-0.00038081628
-1.0754534e-12
4.0372185e-10
-0.00038081597
-3.3478862e-12
8.9269001e-11
-0.00038080009
4.0955953e-13
1.2714485e-09
-0.00038085064
1.9743665e-12
-5.1448693e-10
-0.00038079562
1.6805019e-12
-0.00038070425
1.3591797e-12
5.4957364e-10
-0.00038147975
-3.0066624e-12
-1.2473692e-09
-0.00038156753
-1.7181748e-12
-9.2221695e-11
-0.0003816259
-1.7346439e-12
-4.0539307e-10
-0.00038157242
-1.5301832e-12
2.6547323e-12
-0.00038158827
-1.1029683e-12
3.9793155e-10
-0.000381588
-2.9940821e-12
7.5457545e-11
-0.00038157088
6.0724606e-13
1.2414692e-09
-0.00038162348
2.1712553e-12
-5.3829351e-10
-0.00038156469
1.7925818e-12
-0.000381477
1.3462827e-12
8.8628514e-10
-0.00038226254
-3.1899556e-12
-1.214962e-09
-0.00038234556
-1.5910011e-12
-8.0763627e-11
-0.00038240817
-1.5031545e-12
-3.9474403e-10
-0.00038235254
-1.5588699e-12
3.7553446e-12
-0.00038236972
-1.1174612e-12
3.8934232e-10
-0.00038236948
-2.5502638e-12
6.563205e-11
-0.00038235108
7.7631053e-13
1.2101158e-09
-0.00038240581
2.3545737e-12
-8.7470627e-10
-0.00038234271
1.8939256e-12
-0.00038225971
1.3316576e-12
7.0078087e-10
-0.00038307157
-3.3706833e-12
-1.1835674e-09
-0.00038315
-1.3807672e-12
-6.2649048e-11
-0.0003832168
-1.3864015e-12
-3.8780156e-10
-0.00038315898
-1.604358e-12
4.9052171e-12
-0.00038317753
-1.1290928e-12
3.8505235e-10
-0.00038317733
-2.1187395e-12
4.9302381e-11
-0.00038315759
9.9868827e-13
1.1793563e-09
-0.00038321451
2.5060945e-12
-6.8899585e-10
-0.00038314717
1.9894896e-12
-0.00038306871
1.3061603e-12
1.4135066e-09
-0.00038388423
-3.4903345e-12
-1.1442967e-09
-0.00038395646
-1.2459075e-12
-5.5595108e-11
-0.00038402826
-1.0795351e-12
-3.738648e-10
-0.00038396824
-1.6229404e-12
5.7722943e-12
-0.00038398819
-1.1261972e-12
3.7284937e-10
-0.00038398802
-1.5485634e-12
4.4018282e-11
-0.00038396693
1.1261112e-12
1.1418628e-09
-0.00038402605
2.6446042e-12
-1.4011082e-09
-0.00038395368
2.0664642e-12
-0.00038388136
1.2834929e-12
6.8453007e-10
-0.0003847319
-3.6287976e-12
-1.1202126e-09
-0.00038479941
-9.1692641e-13
-3.1536476e-11
-0.00038487552
-1.0618579e-12
-3.7139265e-10
-0.00038481328
-1.6817298e-12
6.9080003e-12
-0.00038483466
-1.1255265e-12
3.7373203e-10
-0.0003848345
-1.0956433e-12
2.2121293e-11
-0.00038481206
1.3915884e-12
1.1181611e-09
-0.0003848734
2.7381305e-12
-6.7190713e-10
-0.00038479671
2.1442453e-12
-0.00038472908
1.2493446e-12
2.2603907e-09
-0.0003855735
-3.6631155e-12
-1.0606486e-09
-0.00038563312
-8.2519469e-13
-3.4428694e-11
-0.00038571507
-5.9308851e-13
-3.5003543e-10
-0.00038565069
-1.6769592e-12
7.4632852e-12
-0.00038567345
-1.110998e-12
3.5311854e-10
-0.00038567332
-3.9881586e-13
2.6571946e-11
-0.00038564955
1.4183012e-12
1.0613583e-09
-0.00038571307
2.8227988e-12
-2.2468193e-09
-0.00038563053
2.1831587e-12
-0.00038557076
1.2171649e-12
3.3603076e-10
-0.0003864612
-3.7614106e-12
-1.0669415e-09
-0.00038651697
-3.2279739e-13
2.5799697e-12
-0.00038660283
-7.7270939e-13
-3.5808247e-10
-0.00038653626
-1.7571537e-12
8.6913946e-12
-0.00038656043
-1.1003153e-12
3.6600826e-10
-0.00038656032
-1.2545953e-13
-1.0021942e-11
-0.00038653521
1.7714134e-12
1.0672489e-09
-0.00038660095
2.8462886e-12
-3.2231636e-10
-0.00038651453
2.2415575e-12
-0.0003864586
1.1741781e-12
3.632018e-09
-0.00038733097
-3.6813081e-12
-9.5038594e-10
-0.00038737649
-3.7199862e-13
-2.0124894e-11
-0.0003874693
-8.3625616e-14
-3.2086115e-10
-0.00038740073
-1.7058959e-12
8.7697103e-12
-0.00038742618
-1.0787223e-12
3.2740591e-10
-0.0003874261
3.659208e-13
1.5411198e-11
-0.00038739978
1.6177323e-12
9.5472809e-10
-0.00038746755
2.8712962e-12
-3.617047e-09
-0.00038737422
2.2285093e-12
-0.00038732854
1.1402798e-12
-5.3993443e-10
-0.0003882591
-3.7497055e-12
-1.0396657e-09
-0.000388303
1.7908105e-13
3.7681421e-11
-0.00038839864
-5.4990626e-13
-3.5477726e-10
-0.00038832793
-1.8307105e-12
1.0185574e-11
-0.00038835473
-1.0589254e-12
3.672798e-10
-0.00038835467
4.3879017e-13
-3.9641882e-11
-0.00038832708
2.1268773e-12
1.0427643e-09
-0.00038839703
2.8170962e-12
5.5451466e-10
-0.00038830093
2.2718888e-12
-0.00038825689
1.092894e-12
5.7567339e-09
-0.00038915627
-3.5323396e-12
-7.8973795e-10
-0.00038918633
-5.5490732e-14
-1.5102932e-11
-0.00038929052
2.5780303e-13
-2.8195317e-10
-0.00038921806
-1.695255e-12
9.5337673e-12
-0.00038924598
-1.0451376e-12
2.9103914e-10
-0.00038924595
9.6108421e-13
1.2315476e-11
-0.00038921732
1.6829843e-12
7.9790777e-10
-0.00038928907
2.7815396e-12
-5.7403223e-09
-0.00038918449
2.1902164e-12
-0.00038915431
1.0610998e-12
-2.1753005e-09
-0.00039012527
-3.5882711e-12
-1.0701e-09
-0.00039015759
5.6654367e-13
7.5128291e-11
-0.00039026279
-4.2613688e-13
-3.6670792e-10
-0.00039018815
-1.8920881e-12
1.1266645e-11
-0.00039021736
-1.0018722e-12
3.8396964e-10
-0.00039021737
8.4796207e-13
-7.2562574e-11
-0.00039018753
2.4482436e-12
1.0760626e-09
-0.0003902615
2.6487362e-12
2.1906486e-09
-0.00039015599
2.234988e-12
-0.00039012358
1.0187692e-12
8.8708036e-09
-0.00039104807
-3.2313818e-12
-5.4333942e-10
-0.00039106118
1.9832998e-13
-1.8662262e-11
-0.00039117727
5.3634003e-13
-2.2692397e-10
-0.00039110124
-1.6236325e-12
9.7829405e-12
-0.00039113135
-1.0226275e-12
2.3746029e-10
-0.00039113139
1.522469e-12
1.8931998e-11
-0.00039110074
1.5796985e-12
5.5536469e-10
-0.00039117615
2.5633509e-12
-8.8531309e-09
-0.00039105983
2.0709379e-12
-0.00039104668
9.935105e-13
-4.7910736e-09
-0.00039205981
-3.303582e-12
-1.1899358e-09
-0.00039208101
1.0055158e-12
1.1580672e-10
-0.00039219541
-4.3005776e-13
-3.9679255e-10
-0.0003921171
-1.9284938e-12
1.2354288e-11
-0.00039214845
-9.2918029e-13
4.1888498e-10
-0.00039214853
1.1846692e-12
-1.0896314e-10
-0.00039211672
2.7269455e-12
1.197802e-09
-0.00039219446
2.3597939e-12
4.8067887e-09
-0.00039207993
2.140316e-12
-0.00039205876
9.6241901e-13
1.3226336e-08
-0.00039300426
-2.825226e-12
-1.4712418e-10
-0.00039299845
3.1029192e-13
-3.8028363e-11
-0.00039312703
7.5554646e-13
-1.4692075e-10
-0.00039304788
-1.4488064e-12
9.7535732e-12
-0.00039307984
-1.0177478e-12
1.5771934e-10
-0.00039307996
1.9923326e-12
3.9412989e-11
-0.00039304763
1.2809989e-12
1.646211e-10
-0.00039312626
2.2542532e-12
-1.3207802e-08
-0.00039299763
1.8924374e-12
-0.00039300353
9.4971506e-13
-8.6413033e-09
-0.00039406353
-2.9439891e-12
-1.4310661e-09
-0.00039407386
1.4336621e-12
1.621263e-10
-0.00039419709
-5.7196972e-13
-4.4886181e-10
-0.0003941154
-1.9141599e-12
1.323252e-11
-0.00039414862
-8.2212784e-13
4.7571734e-10
-0.00039414879
1.0925051e-12
-1.5128585e-10
-0.00039411529
2.9587752e-12
1.4397535e-09
-0.0003941965
1.9881138e-12
8.6567399e-09
-0.00039407333
2.0121394e-12
-0.00039406314
9.3017223e-13
1.9111067e-08
-0.00039502217
-2.3792525e-12
3.2950309e-10
-0.00039499448
3.0661158e-13
-7.9138382e-11
-0.00039513664
8.6830154e-13
-2.1231657e-11
-0.00039505481
-1.0997658e-12
9.2339128e-12
-0.00039508825
-1.0197321e-12
3.2975653e-11
-0.00039508847
1.9456406e-12
8.0572884e-11
-0.00039505483
7.6538785e-13
-3.156112e-10
-0.00039513622
1.9045684e-12
-1.9092265e-08
-0.00039499421
1.6807151e-12
-0.00039502211
9.3399268e-13
-1.4025212e-08
-0.00039613805
-2.5720892e-12
-1.8297896e-09
-0.00039613723
1.7675225e-12
2.1958157e-10
-0.00039626927
-8.3630632e-13
-5.2769058e-10
-0.00039618444
-1.8079095e-12
1.3717001e-11
-0.00039621921
-6.1824519e-13
5.5910024e-10
-0.00039621949
2.3259379e-13
-2.0512177e-10
-0.00039618459
3.1430173e-12
1.8380839e-09
-0.000396269
1.5701282e-12
1.4039526e-08
-0.00039613723
1.8972537e-12
-0.00039613833
9.2997961e-13
2.6880625e-08
-0.00039709913
-1.968795e-12
9.5486788e-10
-0.00039704528
1.0686913e-13
-1.5451284e-10
-0.0003972027
8.3385714e-13
1.038661e-10
-0.00039711862
-4.6173745e-13
8.1564727e-12
-0.00039715324
-1.0027382e-12
-9.9106834e-11
-0.00039715357
1.4933432e-12
1.5557879e-10
-0.0003971189
7.1068866e-14
-9.3887617e-10
-0.00039720259
1.5934261e-12
-2.6862246e-08
-0.00039704551
1.47127e-12
-0.00039709969
9.507302e-13
-2.1320694e-08
-0.00039828657
-2.2521492e-12
-2.4269172e-09
-0.00039827367
1.9126393e-12
2.9866482e-10
-0.00039841477
-1.2246395e-12
-6.3917437e-10
-0.00039832697
-1.5819038e-12
1.3629559e-11
-0.00039836312
-1.8843198e-13
6.7476906e-10
-0.00039836351
-7.7624109e-13
-2.8101538e-10
-0.00039832737
3.3804271e-12
2.4334854e-09
-0.00039841479
1.2792598e-12
2.1332926e-08
-0.00039827414
1.826492e-12
-0.00039828742
9.5105452e-13
3.6993991e-08
-0.00039923373
-1.6352738e-12
1.8149318e-09