/*--------------------------------*- C++ -*----------------------------------*\
  =========                 |
  \\      /  F ield         | OpenFOAM: The Open Source CFD Toolbox
   \\    /   O peration     | Website:  https://openfoam.org
    \\  /    A nd           | Version:  8
     \\/     M anipulation  |
\*---------------------------------------------------------------------------*/
FoamFile
{
    version     2.0;
    format      ascii;
    class       volVectorField;
    location    "0.2";
    object      U;
}
// * * * * * * * * * * * * * * * * * * * * * * * * * * * * * * * * * * * * * //

dimensions      [0 1 -1 0 0 0 0];

internalField   nonuniform List<vector> 
2000
(
(-7.0632891e-06 -0.0041547201 -1.2961916e-05)
(-1.3673101e-06 -0.0041548226 -1.2967681e-05)
(-3.3087336e-07 -0.0041547981 -1.2968069e-05)
(5.7527989e-08 -0.0041548041 -1.296697e-05)
(-4.088627e-07 -0.0041547986 -1.2966335e-05)
(3.7525413e-07 -0.0041547981 -1.2966924e-05)
(-7.9603648e-08 -0.004154803 -1.2967187e-05)
(3.3839777e-07 -0.0041547973 -1.2967042e-05)
(1.3926217e-06 -0.0041548227 -1.2966571e-05)
(7.075779e-06 -0.0041547206 -1.2961839e-05)
(-6.7457698e-06 -0.0061473761 -1.1413909e-05)
(-2.038831e-06 -0.0061477633 -1.1420186e-05)
(-5.1514467e-07 -0.0061476006 -1.1420419e-05)
(-6.8363005e-09 -0.0061476035 -1.1419309e-05)
(-5.03912e-07 -0.0061475895 -1.1418716e-05)
(4.6957495e-07 -0.0061475883 -1.1419271e-05)
(-1.5343279e-08 -0.0061476 -1.1419502e-05)
(5.2196859e-07 -0.0061475983 -1.1419403e-05)
(2.062928e-06 -0.0061477636 -1.1419068e-05)
(6.7581909e-06 -0.0061473775 -1.1413795e-05)
(-1.7822698e-06 -0.0055803281 -1.3427063e-06)
(-2.1444258e-06 -0.0055808934 -1.3457545e-06)
(-5.4757966e-07 -0.0055806922 -1.3459425e-06)
(-2.3266097e-08 -0.0055806908 -1.3448252e-06)
(-5.1827683e-07 -0.005580668 -1.3442334e-06)
(4.8412997e-07 -0.005580666 -1.3447863e-06)
(1.3221507e-09 -0.0055806848 -1.345014e-06)
(5.5447947e-07 -0.0055806881 -1.3449264e-06)
(2.1684391e-06 -0.0055808939 -1.3446309e-06)
(1.7947973e-06 -0.0055803305 -1.3425964e-06)
(-1.5622824e-06 -0.0060905285 -9.5567469e-07)
(-2.1206632e-06 -0.0060912074 -9.5801002e-07)
(-5.513079e-07 -0.0060909864 -9.5823456e-07)
(-2.599645e-08 -0.0060909813 -9.5711563e-07)
(-5.1958899e-07 -0.00609095 -9.5652207e-07)
(4.8558625e-07 -0.0060909472 -9.5707092e-07)
(4.1504686e-09 -0.0060909729 -9.5731032e-07)
(5.581448e-07 -0.0060909807 -9.5721957e-07)
(2.1445991e-06 -0.0060912081 -9.5688022e-07)
(1.5748013e-06 -0.0060905319 -9.5556501e-07)
(-8.1004054e-07 -0.0056884164 4.838268e-07)
(-2.0853806e-06 -0.0056892009 4.8192576e-07)
(-5.4818412e-07 -0.0056889593 4.8175246e-07)
(-2.5885953e-08 -0.0056889485 4.8287432e-07)
(-5.192822e-07 -0.0056889096 4.8347032e-07)
(4.8544076e-07 -0.005688906 4.8292753e-07)
(4.0942466e-09 -0.0056889377 4.8266821e-07)
(5.5489972e-07 -0.0056889519 4.8276587e-07)
(2.1091958e-06 -0.0056892018 4.8306314e-07)
(8.2252339e-07 -0.0056884207 4.839374e-07)
(-1.2192577e-06 -0.0060254535 -4.1362515e-07)
(-2.043443e-06 -0.0060263547 -4.1569353e-07)
(-5.458894e-07 -0.0060261037 -4.159001e-07)
(-2.525242e-08 -0.0060260871 -4.1477588e-07)
(-5.1871982e-07 -0.006026041 -4.1417673e-07)
(4.8507566e-07 -0.0060260366 -4.1471175e-07)
(3.5142271e-09 -0.0060260739 -4.1499661e-07)
(5.5244639e-07 -0.0060260947 -4.1488853e-07)
(2.0671002e-06 -0.0060263557 -4.1454706e-07)
(1.2316933e-06 -0.0060254587 -4.1351327e-07)
(-8.0727793e-07 -0.005762955 3.4074158e-07)
(-2.0048216e-06 -0.0057639441 3.3886338e-07)
(-5.4159079e-07 -0.0057636738 3.3870647e-07)
(-2.4384021e-08 -0.0057636496 3.3983394e-07)
(-5.1804702e-07 -0.0057635973 3.404365e-07)
(4.8464114e-07 -0.0057635921 3.399108e-07)
(2.7086917e-09 -0.0057636341 3.3959562e-07)
(5.4795556e-07 -0.0057636632 3.397154e-07)
(2.0282863e-06 -0.0057639452 3.4002018e-07)
(8.1965632e-07 -0.0057629611 3.4085502e-07)
(-1.071241e-06 -0.0059869327 -2.6110322e-07)
(-1.964962e-06 -0.005988034 -2.631227e-07)
(-5.3851534e-07 -0.0059877603 -2.6330415e-07)
(-2.3336451e-08 -0.0059877274 -2.6217345e-07)
(-5.1727884e-07 -0.0059876697 -2.6156701e-07)
(4.8415348e-07 -0.0059876637 -2.6208177e-07)
(1.7349957e-09 -0.0059877096 -2.624317e-07)
(5.4465445e-07 -0.0059877481 -2.6229795e-07)
(1.9882003e-06 -0.0059880352 -2.6195435e-07)
(1.0835524e-06 -0.0059869396 -2.6098796e-07)
(-7.9605266e-07 -0.0058166223 2.2063788e-07)
(-1.9265037e-06 -0.0058177984 2.1875574e-07)
(-5.3374895e-07 -0.0058175103 2.1861869e-07)
(-2.207628e-08 -0.0058174665 2.1975316e-07)
(-5.1642871e-07 -0.0058174046 2.2036407e-07)
(4.8362653e-07 -0.0058173979 2.198613e-07)
(5.5993004e-10 -0.0058174465 2.194727e-07)
(5.3962998e-07 -0.0058174966 2.1962158e-07)
(1.9494819e-06 -0.0058177997 2.199365e-07)
(8.0828665e-07 -0.0058166299 2.2075506e-07)
(-9.5327765e-07 -0.0059660131 -1.6365359e-07)
(-1.8883214e-06 -0.0059672888 -1.6563337e-07)
(-5.2995412e-07 -0.0059670033 -1.6578561e-07)
(-2.060846e-08 -0.0059669467 -1.6464794e-07)
(-5.1551034e-07 -0.005966882 -1.6403241e-07)
(4.8307371e-07 -0.0059668745 -1.6452173e-07)
(-8.1174734e-10 -0.0059669247 -1.6495229e-07)
(5.3554538e-07 -0.005966988 -1.6478638e-07)
(1.9110064e-06 -0.00596729 -1.6443959e-07)
(9.6542399e-07 -0.0059660215 -1.6353444e-07)
(-7.6689381e-07 -0.0058567209 1.4191759e-07)
(-1.8504559e-06 -0.0058580585 1.4003716e-07)
(-5.2476223e-07 -0.0058577663 1.3992258e-07)
(-1.8899069e-08 -0.0058576945 1.410635e-07)
(-5.1453936e-07 -0.0058576283 1.4168388e-07)
(4.8251089e-07 -0.00585762 1.4120887e-07)
(-2.4140438e-09 -0.0058576704 1.4073368e-07)
(5.3003284e-07 -0.0058577496 1.4091759e-07)
(1.8728152e-06 -0.0058580597 1.4124372e-07)
(7.7894203e-07 -0.0058567299 1.4203886e-07)
(-8.5454946e-07 -0.0059568398 -1.0037838e-07)
(-1.8134925e-06 -0.0059582594 -1.0232095e-07)
(-5.2029013e-07 -0.0059579764 -1.0244364e-07)
(-1.6944499e-08 -0.005957887 -1.0130005e-07)
(-5.1353612e-07 -0.0059578209 -1.0067468e-07)
(4.8195737e-07 -0.0059578119 -1.011346e-07)
(-4.2507642e-09 -0.0059578611 -1.0165611e-07)
(5.252109e-07 -0.0059579583 -1.0145331e-07)
(1.8354943e-06 -0.0059582605 -1.0110216e-07)
(8.6648931e-07 -0.0059568494 -1.002548e-07)
(-7.2591005e-07 -0.0058880205 9.1006962e-08)
(-1.7763581e-06 -0.0058894879 8.9136978e-08)
(-5.147106e-07 -0.0058892075 8.9044359e-08)
(-1.4712211e-08 -0.0058890978 9.0190428e-08)
(-5.125198e-07 -0.0058890335 9.0820435e-08)
(4.8143206e-07 -0.0058890237 9.0376108e-08)
(-6.3549225e-09 -0.0058890701 8.9807364e-08)
(5.1925395e-07 -0.005889188 9.0029524e-08)
(1.7979719e-06 -0.0058894888 9.0366871e-08)
(7.3773134e-07 -0.0058880305 9.1132359e-08)
(-7.6863913e-07 -0.0059556022 -5.9707172e-08)
(-1.740271e-06 -0.0059571309 -6.1611551e-08)
(-5.0963781e-07 -0.0059568673 -6.1707992e-08)
(-1.2193367e-08 -0.0059567349 -6.056082e-08)
(-5.1151509e-07 -0.0059566739 -5.992624e-08)
(4.8095839e-07 -0.0059566634 -6.0354703e-08)
(-8.7355793e-09 -0.0059567056 -6.0970437e-08)
(5.1377785e-07 -0.0059568465 -6.0728319e-08)
(1.7614674e-06 -0.0059571316 -6.0372336e-08)
(7.8033213e-07 -0.0059556125 -5.9579941e-08)
(-6.7700316e-07 -0.0059136478 5.8434018e-08)
(-1.7038348e-06 -0.0059152087 5.6585864e-08)
(-5.0372234e-07 -0.0059149578 5.6511661e-08)
(-9.3569885e-09 -0.0059147999 5.7658656e-08)
(-5.1054444e-07 -0.005914744 5.8297083e-08)
(4.80558e-07 -0.0059147328 5.7884351e-08)
(-1.1423708e-08 -0.0059147691 5.7222968e-08)
(5.0743541e-07 -0.0059149357 5.7484843e-08)
(1.7245861e-06 -0.0059152091 5.7832325e-08)
(6.8855802e-07 -0.0059136584 5.8562977e-08)
(-6.9084206e-07 -0.0059598109 -3.3883397e-08)
(-1.6683407e-06 -0.0059614116 -3.5743347e-08)
(-4.9815358e-07 -0.0059611854 -3.5819967e-08)
(-6.1927234e-09 -0.0059609997 -3.4674404e-08)
(-5.0963504e-07 -0.0059609507 -3.4032739e-08)
(4.8025633e-07 -0.0059609388 -3.4430605e-08)
(-1.4431733e-08 -0.0059609677 -3.5134851e-08)
(5.0141918e-07 -0.0059611623 -3.4853561e-08)
(1.6886212e-06 -0.0059614116 -3.4492555e-08)
(7.0224916e-07 -0.0059598216 -3.3752725e-08)
(-6.2237206e-07 -0.0059356673 3.7866516e-08)
(-1.6324543e-06 -0.0059372837 3.6053675e-08)
(-4.9197566e-07 -0.0059370804 3.59902e-08)
(-2.6728956e-09 -0.0059368645 3.7133647e-08)
(-5.088107e-07 -0.0059368238 3.7777635e-08)
(4.8007601e-07 -0.0059368112 3.7393395e-08)
(-1.7787293e-08 -0.0059368313 3.6650537e-08)
(4.9477481e-07 -0.0059370561 3.6950399e-08)
(1.6522401e-06 -0.0059372833 3.730649e-08)
(6.3362259e-07 -0.0059356781 3.7998506e-08)
(-6.1758629e-07 -0.0059678298 -1.7724282e-08)
(-1.5972885e-06 -0.0059694649 -1.9530478e-08)
(-4.8604201e-07 -0.0059692945 -1.959767e-08)
(1.2141507e-09 -0.0059690465 -1.8459334e-08)
(-5.0809925e-07 -0.0059690157 -1.7814684e-08)
(4.8004291e-07 -0.0059690025 -1.8186041e-08)
(-2.1502069e-08 -0.0059690123 -1.8963165e-08)
(4.8835864e-07 -0.0059692693 -1.8645525e-08)
(1.6165576e-06 -0.0059694641 -1.8280162e-08)
(6.2867107e-07 -0.0059678406 -1.7591228e-08)
(-5.6307614e-07 -0.0059554551 2.5064319e-08)
(-1.5617433e-06 -0.0059570896 2.3304087e-08)
(-4.7970552e-07 -0.0059569516 2.3242057e-08)
(5.4889559e-09 -0.0059566698 2.4372896e-08)
(-5.0752423e-07 -0.0059566502 2.5017036e-08)
(4.8017882e-07 -0.0059566364 2.4656604e-08)
(-2.5597997e-08 -0.0059566347 2.3851995e-08)
(4.8152644e-07 -0.0059569255 2.4186258e-08)
(1.5804764e-06 -0.0059570883 2.454829e-08)
(5.739874e-07 -0.0059554657 2.5198617e-08)
(-5.4611472e-07 -0.0059785757 -7.7880896e-09)
(-1.5266745e-06 -0.0059802099 -9.5258798e-09)
(-4.7356482e-07 -0.0059801121 -9.5951563e-09)
(1.0159681e-08 -0.0059797952 -8.473222e-09)
(-5.0710999e-07 -0.0059797881 -7.8317625e-09)
(4.8050637e-07 -0.0059797736 -8.1837832e-09)
(-3.0083342e-08 -0.0059797594 -9.0083974e-09)
(4.748805e-07 -0.0059800851 -8.6598754e-09)
(1.5448537e-06 -0.0059802079 -8.2919153e-09)
(5.5684413e-07 -0.0059785861 -7.6526963e-09)
(-4.9942195e-07 -0.0059739372 1.7244661e-08)
(-1.4912135e-06 -0.0059755562 1.5555233e-08)
(-4.6720124e-07 -0.005975499 1.5482997e-08)
(1.5243813e-08 -0.0059751463 1.659282e-08)
(-5.0687776e-07 -0.0059751526 1.7229738e-08)
(4.8104488e-07 -0.0059751375 1.6883771e-08)
(-3.4976665e-08 -0.0059751099 1.6047671e-08)
(4.6800331e-07 -0.0059754714 1.6409703e-08)
(1.508823e-06 -0.0059755536 1.6774424e-08)
(5.0996182e-07 -0.0059739473 1.7381019e-08)
(-4.7422755e-07 -0.0059913244 -1.7908985e-09)
(-1.4560274e-06 -0.0059929275 -3.4438523e-09)
(-4.6103491e-07 -0.0059929167 -3.5279457e-09)
(2.0737356e-08 -0.0059925277 -2.4322702e-09)
(-5.0684641e-07 -0.0059925482 -1.8023008e-09)
(4.8181122e-07 -0.0059925326 -2.1453022e-09)
(-4.0274416e-08 -0.0059924909 -2.9831902e-09)
(4.6131822e-07 -0.0059928884 -2.6102452e-09)
(1.4730539e-06 -0.0059929242 -2.2435563e-09)
(4.8457098e-07 -0.0059913341 -1.6534148e-09)
(-4.313517e-07 -0.0059917411 1.2544238e-08)
(-1.420443e-06 -0.005993318 1.0945636e-08)
(-4.5480522e-07 -0.0059933541 1.0850943e-08)
(2.665644e-08 -0.0059929291 1.1929552e-08)
(-5.0703231e-07 -0.0059929641 1.25498e-08)
(4.8281978e-07 -0.005992948 1.2206771e-08)
(-4.5992813e-08 -0.005992892 1.1377411e-08)
(4.5456828e-07 -0.0059933251 1.1759152e-08)
(1.436874e-06 -0.005993314 1.2122196e-08)
(4.4149138e-07 -0.0059917504 1.2683428e-08)
(-4.0024817e-07 -0.006005587 1.7587027e-09)
(-1.384947e-06 -0.0060071372 2.0913354e-10)
(-4.488072e-07 -0.0060072241 9.8052675e-11)
(3.2986589e-08 -0.0060067638 1.1570374e-09)
(-5.0744476e-07 -0.0060068135 1.7650191e-09)
(4.8407846e-07 -0.006006797 1.417969e-09)
(-5.2118249e-08 -0.0060067265 6.082323e-10)
(4.4804955e-07 -0.0060071945 9.9654716e-10)
(1.4007726e-06 -0.0060071326 1.3581121e-09)
(4.1017797e-07 -0.0060055958 1.8996054e-09)
(-3.5865888e-07 -0.0060092925 9.7642281e-09)
(-1.3491088e-06 -0.0060108102 8.2758974e-09)
(-4.4289604e-07 -0.0060109477 8.1485812e-09)
(3.9729365e-08 -0.0060104535 9.185239e-09)
(-5.080917e-07 -0.0060105178 9.7780847e-09)
(4.8559264e-07 -0.0060105008 9.4238291e-09)
(-5.8651379e-08 -0.0060104161 8.6449242e-09)
(4.4162003e-07 -0.0060109176 9.0372225e-09)
(1.3643202e-06 -0.0060108049 9.3932704e-09)
(3.6837253e-07 -0.0060093007 9.9079314e-09)
(-3.2307592e-07 -0.006021032 3.8068699e-09)
(-1.3132243e-06 -0.0060225183 2.3785076e-09)
(-4.372688e-07 -0.0060227081 2.2311131e-09)
(4.6871108e-08 -0.0060221817 3.242824e-09)
(-5.0897545e-07 -0.0060222601 3.8179097e-09)
(4.8736333e-07 -0.0060222427 3.4522643e-09)
(-6.5578877e-08 -0.0060221444 2.7156313e-09)
(4.3547883e-07 -0.0060226774 3.1098883e-09)
(1.3278139e-06 -0.0060225121 3.4611372e-09)
(3.3256794e-07 -0.0060210395 3.9538975e-09)
(-2.8120274e-07 -0.0060268759 8.1579938e-09)
(-1.2770495e-06 -0.0060283294 6.7975923e-09)
(-4.3185601e-07 -0.0060285703 6.6311068e-09)
(5.4398306e-08 -0.0060280142 7.615388e-09)
(-5.100923e-07 -0.0060281059 8.1700156e-09)
(4.89385e-07 -0.0060280882 7.7891806e-09)
(-7.2886495e-08 -0.006027977 7.1059738e-09)
(4.295582e-07 -0.0060285392 7.4996404e-09)
(1.2910108e-06 -0.0060283224 7.8429032e-09)
(2.9046785e-07 -0.0060268828 8.3096375e-09)
(-2.4207147e-07 -0.0060374336 4.9500421e-09)
(-1.2407806e-06 -0.0060388576 3.658228e-09)
(-4.2678675e-07 -0.0060391493 3.4707888e-09)
(6.2291362e-08 -0.0060385664 4.4251159e-09)
(-5.114348e-07 -0.0060386704 4.9567116e-09)
(4.916485e-07 -0.0060386524 4.5572625e-09)
(-8.0553835e-08 -0.0060385292 3.9378301e-09)
(4.2398978e-07 -0.0060391177 4.3290805e-09)
(1.2541081e-06 -0.0060388498 4.6639646e-09)
(2.5110422e-07 -0.0060374398 5.1074413e-09)
(-1.9909428e-07 -0.0060446768 7.2463917e-09)
(-1.2042966e-06 -0.0060460737 6.0283175e-09)
(-4.2203018e-07 -0.0060464137 5.8213149e-09)
(7.0527868e-08 -0.0060458071 6.7440848e-09)
(-5.1298945e-07 -0.006045922 7.2503301e-09)
(4.941388e-07 -0.0060459038 6.828824e-09)
(-8.8557314e-08 -0.0060457701 6.2827208e-09)
(4.1874415e-07 -0.0060463816 6.6694043e-09)
(1.2169857e-06 -0.006046065 6.9937271e-09)
(2.0788994e-07 -0.0060446822 7.411029e-09)
(-1.5712587e-07 -0.0060546381 5.5611348e-09)
(-1.1677433e-06 -0.0060560137 4.4174511e-09)
(-4.176657e-07 -0.0060563997 4.191657e-09)
(7.9082368e-08 -0.006055773 5.0809263e-09)
(-5.1473921e-07 -0.0060558973 5.5597097e-09)
(4.9683714e-07 -0.006055879 5.1132745e-09)
(-9.6869476e-08 -0.0060557362 4.6489495e-09)
(4.1390184e-07 -0.0060563671 5.0296856e-09)
(1.1797901e-06 -0.0060560041 5.3422556e-09)
(1.6567998e-07 -0.0060546426 5.7349263e-09)
(-1.1277848e-07 -0.0060628139 6.7332473e-09)
(-1.1310837e-06 -0.0060641735 5.6669557e-09)
(-4.1367535e-07 -0.0060646019 5.4245025e-09)
(8.7926015e-08 -0.0060639586 6.2785225e-09)
(-5.1666201e-07 -0.0060640908 6.7284854e-09)
(4.997198e-07 -0.0060640723 6.2551482e-09)
(-1.0546022e-07 -0.0060639221 5.8791656e-09)
(4.0944752e-07 -0.0060645687 6.2530469e-09)
(1.142486e-06 -0.006064163 6.5518765e-09)
(1.2108675e-07 -0.0060628174 6.9176854e-09)
(-6.8633185e-08 -0.0060725404 5.8665761e-09)
(-1.0944369e-06 -0.0060738918 4.8782089e-09)
(-4.100984e-07 -0.0060743585 4.6220625e-09)
(9.7030665e-08 -0.0060737025 5.4394677e-09)
(-5.1873416e-07 -0.0060738407 5.8589417e-09)
(5.0276156e-07 -0.0060738223 5.357351e-09)
(-1.142985e-07 -0.0060736662 5.0747638e-09)
(4.0542222e-07 -0.0060743247 5.4404131e-09)
(1.1051923e-06 -0.0060738802 5.7242109e-09)
(7.6691522e-08 -0.006072543 6.0639799e-09)
(-2.3046026e-08 -0.006081362 6.4400936e-09)
(-1.0578193e-06 -0.0060827124 5.5302628e-09)
(-4.0691408e-07 -0.0060832128 5.2639584e-09)
(1.0636647e-07 -0.0060825476 6.0435317e-09)
(-5.2092905e-07 -0.0060826901 6.432178e-09)
(5.0593407e-07 -0.0060826718 5.9012973e-09)
(-1.2335222e-07 -0.0060825116 5.7153387e-09)
(4.0180726e-07 -0.0060831784 6.0727865e-09)
(1.0679279e-06 -0.0060826996 6.3397633e-09)
(3.0850946e-08 -0.0060813634 6.6521194e-09)
(2.2606257e-08 -0.0060910727 6.0002308e-09)
(-1.0213318e-06 -0.0060924303 5.1686704e-09)
(-4.0412801e-07 -0.0060929597 4.895998e-09)
(1.1590657e-07 -0.0060922887 5.6372013e-09)
(-5.232211e-07 -0.0060924338 5.9947995e-09)
(5.0920952e-07 -0.0060924158 5.4354758e-09)
(-1.3259171e-07 -0.0060922529 5.3469198e-09)
(3.9861082e-07 -0.0060929247 5.6960004e-09)
(1.0307951e-06 -0.0060924163 5.9448108e-09)
(-1.5057518e-08 -0.0060910728 6.2295493e-09)
(6.9055366e-08 -0.0061003701 6.2626322e-09)
(-9.8501593e-07 -0.0061017424 5.5088813e-09)
(-4.0170777e-07 -0.0061022959 5.2349291e-09)
(1.2562557e-07 -0.0061016219 5.9364836e-09)
(-5.255845e-07 -0.0061017683 6.262838e-09)
(5.125608e-07 -0.0061017505 5.6761279e-09)
(-1.4198846e-07 -0.0061015864 5.6843938e-09)
(3.9580337e-07 -0.0061022602 6.0253413e-09)
(9.9383816e-07 -0.006101727 6.2548128e-09)
(-6.1765218e-08 -0.0061003687 6.511051e-09)
(1.1556025e-07 -0.0061101995 6.0395111e-09)
(-9.4895364e-07 -0.0061115938 5.362902e-09)
(-3.996325e-07 -0.0061121668 5.0918892e-09)
(1.3550298e-07 -0.0061114922 5.7538079e-09)
(-5.2799796e-07 -0.0061116385 6.0494914e-09)
(5.1596403e-07 -0.0061116212 5.437938e-09)
(-1.5151928e-07 -0.006111457 5.5405273e-09)
(3.9336701e-07 -0.0061121304 5.8737466e-09)
(9.5714202e-07 -0.0061115769 6.0827784e-09)
(-1.0852977e-07 -0.0061101964 6.3095977e-09)
(1.6240329e-07 -0.0061198741 6.1408431e-09)
(-9.1318741e-07 -0.0061212964 5.5399673e-09)
(-3.9785799e-07 -0.0061218847 5.2759193e-09)
(1.4552331e-07 -0.006121211 5.8973442e-09)
(-5.3044394e-07 -0.0061213564 6.1640808e-09)
(5.1939917e-07 -0.0061213397 5.5307211e-09)
(-1.611652e-07 -0.006121176 5.7229573e-09)
(3.9126179e-07 -0.0061218475 6.0495333e-09)
(9.2075314e-07 -0.0061212779 6.2372072e-09)
(-1.5563276e-07 -0.0061198692 6.434063e-09)
(2.0920585e-07 -0.0061299203 6.0330253e-09)
(-8.7777248e-07 -0.0061313755 5.5071793e-09)
(-3.9634739e-07 -0.0061319754 5.254866e-09)
(1.5567817e-07 -0.0061313036 5.8356282e-09)
(-5.3291164e-07 -0.0061314476 6.0741113e-09)
(5.2285368e-07 -0.0061314315 5.4231478e-09)
(-1.709155e-07 -0.0061312689 5.6992397e-09)
(3.8945434e-07 -0.0061319376 6.0203937e-09)
(8.8473094e-07 -0.0061313551 6.1859263e-09)
(-2.0269392e-07 -0.0061299133 6.3515471e-09)
(2.5603824e-07 -0.006139899 6.0336381e-09)
(-8.4273708e-07 -0.0061413897 5.5818731e-09)
(-3.9504985e-07 -0.0061419989 5.344528e-09)
(1.6596512e-07 -0.0061413288 5.8845481e-09)
(-5.3539782e-07 -0.0061414714 6.0966596e-09)
(5.2632097e-07 -0.006141456 5.4330425e-09)
(-1.807649e-07 -0.0061412944 5.7858458e-09)
(3.8789897e-07 -0.0061419603 6.1026195e-09)
(8.4910947e-07 -0.0061413674 6.245106e-09)
(-2.4978226e-07 -0.0061398896 6.3791131e-09)
(3.0280863e-07 -0.0061502899 6.0259512e-09)
(-8.0809625e-07 -0.0061518178 5.6478769e-09)
(-3.9392954e-07 -0.0061524344 5.4282705e-09)
(1.763946e-07 -0.0061517653 5.9272149e-09)
(-5.3791092e-07 -0.006151907 6.1153217e-09)
(5.2980719e-07 -0.0061518924 5.444724e-09)
(-1.9072176e-07 -0.0061517313 5.8661227e-09)
(3.8656414e-07 -0.0061523952 6.1787989e-09)
(8.1390936e-07 -0.0061517934 6.2986947e-09)
(-2.9680412e-07 -0.006150278 6.3998819e-09)
(3.493998e-07 -0.006160425 5.8840447e-09)
(-7.7386469e-07 -0.0061619876 5.5782543e-09)
(-3.9293268e-07 -0.0061626122 5.3796836e-09)
(1.8697432e-07 -0.0061619419 5.837379e-09)
(-5.4046057e-07 -0.0061620837 6.003292e-09)
(5.3331888e-07 -0.00616207 5.332224e-09)
(-2.0079146e-07 -0.0061619083 5.8132397e-09)
(3.8540131e-07 -0.0061625723 6.1228366e-09)
(7.7915135e-07 -0.0061619609 6.2190416e-09)
(-3.4364045e-07 -0.0061604102 6.287192e-09)
(3.9619617e-07 -0.006171499 6.1194605e-09)
(-7.3998926e-07 -0.0061730959 5.8875775e-09)
(-3.9205634e-07 -0.006173728 5.7095029e-09)
(1.9774486e-07 -0.0061730548 6.1258289e-09)
(-5.4308566e-07 -0.0061731976 6.272754e-09)
(5.3689195e-07 -0.0061731849 5.6083904e-09)
(-2.1101427e-07 -0.0061730216 6.1389788e-09)
(3.8441222e-07 -0.0061736875 6.4454192e-09)
(7.447896e-07 -0.0061730668 6.5200027e-09)
(-3.9067283e-07 -0.0061714812 6.5529812e-09)
(4.4246003e-07 -0.0061812358 5.5181162e-09)
(-7.0651608e-07 -0.006182856 5.3566103e-09)
(-3.9121968e-07 -0.0061835013 5.2026137e-09)
(2.0869789e-07 -0.0061828203 5.5770463e-09)
(-5.4579226e-07 -0.0061829667 5.7069104e-09)
(5.4053035e-07 -0.006182955 5.056838e-09)
(-2.213804e-07 -0.0061827876 5.626969e-09)
(3.835213e-07 -0.0061834604 5.9307654e-09)
(7.1087491e-07 -0.0061828245 5.981515e-09)
(-4.3716286e-07 -0.0061812148 5.9817532e-09)
(4.9004479e-07 -0.00619416 6.6507138e-09)
(-6.7322095e-07 -0.0061958074 6.567e-09)
(-3.9054643e-07 -0.0061964629 6.43222e-09)
(2.1995172e-07 -0.006195774 6.7660731e-09)
(-5.486839e-07 -0.0061959246 6.8812012e-09)
(5.4433417e-07 -0.0061959139 6.2532745e-09)
(-2.3200958e-07 -0.0061957419 6.8535856e-09)
(3.8285489e-07 -0.0061964215 7.1521369e-09)
(6.7719261e-07 -0.0061957735 7.1845274e-09)
(-4.8495824e-07 -0.0061941358 7.1450843e-09)
(5.3560729e-07 -0.0062013919 4.3157107e-09)
(-6.4038447e-07 -0.0062030353 4.2965163e-09)
(-3.897825e-07 -0.0062037193 4.187916e-09)
(2.3137479e-07 -0.0062030114 4.4771395e-09)
(-5.516863e-07 -0.0062031715 4.5823948e-09)
(5.4822751e-07 -0.0062031617 3.9845709e-09)
(-2.4276901e-07 -0.00620298 4.6037225e-09)
(3.8216402e-07 -0.0062036777 4.9000716e-09)
(6.4402433e-07 -0.0062029989 4.9064832e-09)
(-5.3071866e-07 -0.0062013643 4.8401008e-09)
(5.8633653e-07 -0.0062202331 8.7795681e-09)
(-6.072227e-07 -0.0062219057 8.8519239e-09)
(-3.8949955e-07 -0.0062225973 8.7528926e-09)
(2.4335577e-07 -0.0062218807 9.0049846e-09)
(-5.5510884e-07 -0.0062220466 9.0985413e-09)
(5.525161e-07 -0.0062220378 8.5388769e-09)
(-2.5405411e-07 -0.00622185 9.1705772e-09)
(3.8202132e-07 -0.0062225554 9.455344e-09)
(6.1059764e-07 -0.006221867 9.4525924e-09)
(-5.8162388e-07 -0.0062202022 9.3331306e-09)
(6.28845e-07 -0.006217617 1.8477145e-10)
(-5.7504344e-07 -0.0062192251 2.9913632e-10)
(-3.8866397e-07 -0.0062199811 2.3730012e-10)
(2.5523582e-07 -0.0062192245 4.3644755e-10)
(-5.5849628e-07 -0.0062194102 5.2859522e-10)
(5.567461e-07 -0.0062194024 1.4421075e-11)
(-2.6519882e-07 -0.0062191947 6.4301061e-10)
(3.8139452e-07 -0.0062199394 9.3056012e-10)
(5.7821193e-07 -0.0062191843 8.9017926e-10)
(-6.2429371e-07 -0.0062175829 7.6646813e-10)
(6.8953816e-07 -0.0062556969 1.6227882e-08)
(-5.4098554e-07 -0.0062573814 1.6478514e-08)
(-3.8945318e-07 -0.0062581148 1.6395223e-08)
(2.6844486e-07 -0.0062573663 1.6571109e-08)
(-5.6293266e-07 -0.0062575523 1.6650824e-08)
(5.6199359e-07 -0.0062575453 1.6190102e-08)
(-2.7765537e-07 -0.0062573373 1.6819206e-08)
(3.824624e-07 -0.006258073 1.7076605e-08)
(5.4402848e-07 -0.0062573386 1.705715e-08)
(-6.8512037e-07 -0.0062556596 1.6835513e-08)
(7.1951135e-07 -0.0062199809 -1.3296233e-08)
(-5.1027031e-07 -0.0062214494 -1.3081543e-08)
(-3.8794202e-07 -0.0062223391 -1.3085922e-08)
(2.8028815e-07 -0.0062215003 -1.2988731e-08)
(-5.6646415e-07 -0.0062217292 -1.2894736e-08)
(5.6631564e-07 -0.006221723 -1.3296251e-08)
(-2.8869745e-07 -0.0062214725 -1.2696556e-08)
(3.8128713e-07 -0.006222298 -1.2415042e-08)
(5.1323976e-07 -0.0062214051 -1.2517347e-08)
(-7.1520341e-07 -0.0062199408 -1.2664027e-08)
(8.0996036e-07 -0.0063171831 3.9777944e-08)
(-4.7262297e-07 -0.0063189225 4.0266179e-08)
(-3.9176134e-07 -0.0063196694 4.0153368e-08)
(2.9603314e-07 -0.006318909 4.0273057e-08)
(-5.7301459e-07 -0.0063191095 4.0338573e-08)
(5.736128e-07 -0.0063191042 4.0003866e-08)
(-3.0366414e-07 -0.0063188818 4.0606698e-08)
(3.8551752e-07 -0.0063196281 4.0807517e-08)
(4.7561736e-07 -0.0063188768 4.0813983e-08)
(-8.0573483e-07 -0.0063171403 4.0430873e-08)
(7.968856e-07 -0.0061821932 -5.3561748e-08)
(-4.4681912e-07 -0.0061833255 -5.3344842e-08)
(-3.8722446e-07 -0.006184467 -5.324568e-08)
(3.0588941e-07 -0.006183483 -5.328204e-08)
(-5.7537193e-07 -0.0061837851 -5.3163761e-08)
(5.7671387e-07 -0.0061837802 -5.343042e-08)
(-3.1264951e-07 -0.0061834575 -5.2901281e-08)
(3.8142163e-07 -0.0061844273 -5.2602458e-08)
(4.4985421e-07 -0.0061832791 -5.2817948e-08)
(-7.9271637e-07 -0.0061821487 -5.2889583e-08)
(9.7080013e-07 -0.0064450762 1.0648095e-07)
(-3.9845195e-07 -0.0064470543 1.0735161e-07)
(-3.9917406e-07 -0.0064477017 1.0711086e-07)
(3.2780968e-07 -0.0064470029 1.0722608e-07)
(-5.8689298e-07 -0.0064471891 1.0726246e-07)
(5.888996e-07 -0.0064471851 1.0707214e-07)
(-3.3382541e-07 -0.0064469775 1.0764423e-07)
(3.9390213e-07 -0.0064476613 1.0772867e-07)
(4.0167125e-07 -0.006447007 1.0785885e-07)
(-9.6666086e-07 -0.0064450296 1.0716608e-07)
(8.3221044e-07 -0.0060456513 -1.6042448e-07)
(-3.8807805e-07 -0.0060460718 -1.6043101e-07)
(-3.8456589e-07 -0.0060476896 -1.6011263e-07)
(3.2989322e-07 -0.006046435 -1.6035285e-07)
(-5.8384903e-07 -0.0060468671 -1.6017099e-07)
(5.8657213e-07 -0.0060468631 -1.6029237e-07)
(-3.3493103e-07 -0.0060464125 -1.5988397e-07)
(3.7979547e-07 -0.0060476527 -1.5950309e-07)
(3.9140229e-07 -0.0060460255 -1.5995388e-07)
(-8.2807549e-07 -0.0060456048 -1.5972719e-07)
(1.2187854e-06 -0.006719985 2.7147352e-07)
(-3.1108647e-07 -0.0067226237 2.7301713e-07)
(-4.1685718e-07 -0.0067229201 2.7246702e-07)
(3.6737732e-07 -0.0067224432 2.7268226e-07)
(-6.0755306e-07 -0.0067225474 2.7264914e-07)
(6.1082258e-07 -0.0067225449 2.7261089e-07)
(-3.7182264e-07 -0.0067224194 2.7317475e-07)
(4.1272677e-07 -0.0067228808 2.730348e-07)
(3.1476951e-07 -0.0067225765 2.7347313e-07)
(-1.2146346e-06 -0.0067199366 2.7217218e-07)
(7.6855671e-07 -0.005706817 -4.0497076e-07)
(-3.4243727e-07 -0.0057059018 -4.0559426e-07)
(-3.7521466e-07 -0.0057083598 -4.0485564e-07)
(3.4751271e-07 -0.0057066217 -4.0541873e-07)
(-5.884479e-07 -0.0057072784 -4.0511416e-07)
(5.9245082e-07 -0.0057072748 -4.050922e-07)
(-3.507664e-07 -0.005706603 -4.0486749e-07)
(3.7157621e-07 -0.0057083272 -4.0428627e-07)
(3.4619991e-07 -0.0057058579 -4.0518113e-07)
(-7.6436526e-07 -0.0057067714 -4.0426689e-07)
(1.6293962e-06 -0.0072659506 6.1936045e-07)
(-1.9738426e-07 -0.007269939 6.2201383e-07)
(-4.5312644e-07 -0.0072694892 6.2090508e-07)
(4.2123202e-07 -0.0072694868 6.2136963e-07)
(-6.4018578e-07 -0.0072693993 6.2120298e-07)
(6.4455038e-07 -0.0072693982 6.2131243e-07)
(-4.242567e-07 -0.0072694643 6.2191723e-07)
(4.502362e-07 -0.0072694512 6.2140551e-07)
(2.0170842e-07 -0.0072698935 6.224096e-07)
(-1.6251599e-06 -0.0072659027 6.2005073e-07)
(5.2313491e-07 -0.0050275788 -8.7941246e-07)
(-3.2479682e-07 -0.0050244871 -8.8116203e-07)
(-3.5124273e-07 -0.0050282533 -8.797632e-07)
(3.5088597e-07 -0.0050257484 -8.8078893e-07)
(-5.8319988e-07 -0.005026755 -8.8029363e-07)
(5.8838498e-07 -0.0050267513 -8.8014493e-07)
(-3.5229144e-07 -0.0050257343 -8.8016627e-07)
(3.4874337e-07 -0.0050282263 -8.7924075e-07)
(3.2905e-07 -0.0050244481 -8.8082755e-07)
(-5.1882329e-07 -0.0050275374 -8.7872238e-07)
(2.2953302e-06 -0.0082267239 1.2415501e-06)
(-3.7958537e-08 -0.0082329392 1.2457957e-06)
(-5.1894831e-07 -0.0082312681 1.2438875e-06)
(4.9862323e-07 -0.0082320463 1.2447535e-06)
(-6.9214228e-07 -0.008231631 1.2443843e-06)
(6.9740242e-07 -0.0082316317 1.2446243e-06)
(-5.00488e-07 -0.0082320247 1.2453274e-06)
(5.1731799e-07 -0.008231232 1.2443031e-06)
(4.3015871e-08 -0.0082328969 1.2461245e-06)
(-2.2909694e-06 -0.0082266788 1.2422082e-06)
(5.7414171e-09 -0.0038668222 -1.6654301e-06)
(-3.5606354e-07 -0.0038605906 -1.6688067e-06)
(-3.0242002e-07 -0.0038661678 -1.6665589e-06)
(3.2984785e-07 -0.0038625854 -1.6681535e-06)
(-5.6008972e-07 -0.0038640801 -1.6674132e-06)
(5.6635113e-07 -0.0038640758 -1.667168e-06)
(-3.2933734e-07 -0.0038625769 -1.6674749e-06)
(3.009691e-07 -0.0038661475 -1.6660872e-06)
(3.607642e-07 -0.003860559 -1.6685629e-06)
(-1.2825801e-09 -0.0038667883 -1.6647748e-06)
(3.3060078e-06 -0.0097348087 2.2028361e-06)
(1.917094e-07 -0.009744232 2.2090867e-06)
(-6.2687715e-07 -0.0097408416 2.2062241e-06)
(6.1060885e-07 -0.0097427219 2.2076018e-06)
(-7.7227122e-07 -0.0097418325 2.2069767e-06)
(7.7818661e-07 -0.0097418356 2.2073161e-06)
(-6.1167374e-07 -0.0097427011 2.2081645e-06)
(6.2644889e-07 -0.0097408078 2.2065429e-06)
(-1.8593263e-07 -0.0097441945 2.2093457e-06)
(-3.3015248e-06 -0.0097347687 2.2034392e-06)
(-8.6408415e-07 -0.0021036032 -2.8069746e-06)
(-4.6182564e-07 -0.0020931916 -2.8123856e-06)
(-2.1693761e-07 -0.0021010898 -2.8091991e-06)
(2.7280441e-07 -0.0020961138 -2.8114068e-06)
(-5.0967726e-07 -0.0020982381 -2.8103932e-06)
(5.1688126e-07 -0.002098233 -2.8100951e-06)
(-2.7030876e-07 -0.0020961116 -2.8106926e-06)
(2.1635833e-07 -0.0021010768 -2.8087797e-06)
(4.6683861e-07 -0.0020931694 -2.8122396e-06)
(8.6867303e-07 -0.0021035795 -2.8063722e-06)
(4.7377771e-06 -0.011899218 3.5257408e-06)
(5.2030562e-07 -0.011912917 3.5343051e-06)
(-7.9091093e-07 -0.011907291 3.5304349e-06)
(7.695505e-07 -0.011910602 3.5323862e-06)
(-8.9057276e-07 -0.011909087 3.5314716e-06)
(8.9685785e-07 -0.011909093 3.5318678e-06)
(-7.7025117e-07 -0.011910582 3.5328934e-06)
(7.9156551e-07 -0.011907261 3.5306548e-06)
(-5.1393205e-07 -0.011912886 3.5344975e-06)
(-4.7332136e-06 -0.011899185 3.5262723e-06)
(-2.1549267e-06 0.00036060405 -4.3069853e-06)
(-6.7173388e-07 0.00037633199 -4.3147418e-06)
(-8.1075763e-08 0.00036557664 -4.3106128e-06)
(1.6685058e-07 0.00037227248 -4.3134251e-06)
(-4.2118394e-07 0.0003693714 -4.3121335e-06)
(4.2915165e-07 0.00036937746 -4.311839e-06)
(-1.6230146e-07 0.00037226768 -4.3126996e-06)
(8.1114912e-08 0.00036558221 -4.3102424e-06)
(6.7684421e-07 0.0003763438 -4.3146937e-06)
(2.1595787e-06 0.00036061601 -4.3064488e-06)
(6.6583228e-06 -0.014810215 5.1963898e-06)
(9.8076398e-07 -0.014829373 5.2074963e-06)
(-1.0274174e-06 -0.014820951 5.202642e-06)
(9.8935866e-07 -0.01482604 5.2051996e-06)
(-1.0584221e-06 -0.014823736 5.2039748e-06)
(1.0647463e-06 -0.014823745 5.2043768e-06)
(-9.9017486e-07 -0.014826021 5.2056028e-06)
(1.0290049e-06 -0.014820925 5.2027751e-06)
(-9.7401077e-07 -0.014829349 5.2076364e-06)
(-6.6537517e-06 -0.014810192 5.1968424e-06)
(-3.9307822e-06 0.0036103921 -6.1379187e-06)
(-1.01969e-06 0.0036327162 -6.1482694e-06)
(1.2179547e-07 0.0036185071 -6.1432411e-06)
(-2.7114106e-09 0.0036272721 -6.1466208e-06)
(-2.8213105e-07 0.0036234348 -6.1450568e-06)
(2.9062549e-07 0.0036234421 -6.1448351e-06)
(9.377028e-09 0.00362726 -6.1459074e-06)
(-1.2145566e-07 0.0036185059 -6.1429095e-06)
(1.0246192e-06 0.0036327175 -6.1483075e-06)
(3.9353795e-06 0.003610392 -6.137453e-06)
(9.136397e-06 -0.018549133 7.1774178e-06)
(1.611153e-06 -0.018575086 7.1912535e-06)
(-1.3565581e-06 -0.018563233 7.1854807e-06)
(1.2859739e-06 -0.018570478 7.1886725e-06)
(-1.2890533e-06 -0.018567207 7.1871207e-06)
(1.2950582e-06 -0.018567222 7.1874765e-06)
(-1.2873991e-06 -0.018570461 7.1889204e-06)
(1.3589367e-06 -0.018563212 7.1855537e-06)
(-1.6043015e-06 -0.018575069 7.1913675e-06)
(-9.1319125e-06 -0.01854912 7.1777939e-06)