/*--------------------------------*- C++ -*----------------------------------*\
  =========                 |
  \\      /  F ield         | OpenFOAM: The Open Source CFD Toolbox
   \\    /   O peration     | Website:  https://openfoam.org
    \\  /    A nd           | Version:  8
     \\/     M anipulation  |
\*---------------------------------------------------------------------------*/
FoamFile
{
    version     2.0;
    format      ascii;
    class       volScalarField;
    location    "0.500023";
    object      alphat;
}
// * * * * * * * * * * * * * * * * * * * * * * * * * * * * * * * * * * * * * //

dimensions      [1 -1 -1 0 0 0 0];

internalField   nonuniform List<scalar> 
6800
(
0.0192467
0.0342108
0.0351723
0.0365663
0.0387727
0.0354287
0.029737
0.0222281
0.0179877
0.0181894
0.0141622
0.030318
0.0344135
0.0364075
0.037089
0.0303343
0.0222918
0.0190724
0.0173498
0.015216
0.0151926
0.0309292
0.0353097
0.0359279
0.0327639
0.0237408
0.019713
0.0172501
0.0139857
0.0125648
0.0157733
0.0317722
0.0347381
0.0343718
0.0261492
0.0212326
0.0175314
0.0147872
0.0127898
0.0120179
0.0162828
0.0316462
0.034716
0.0324105
0.0246934
0.0189504
0.0160291
0.0139992
0.0122636
0.0105967
0.0165906
0.0330951
0.0345803
0.0281267
0.0199442
0.0172344
0.0147698
0.0124876
0.0109084
0.010002
0.0169039
0.0348998
0.0341356
0.025557
0.0211681
0.016447
0.0137826
0.0119912
0.0105175
0.00973995
0.0170339
0.0360375
0.0322641
0.022252
0.0170923
0.0153593
0.0129949
0.0109814
0.00983152
0.00917861
0.0172257
0.0376643
0.0292182
0.022883
0.0193838
0.0146894
0.0120805
0.01072
0.00961313
0.00903009
0.0172655
0.0387035
0.0276122
0.0205918
0.0153657
0.0138775
0.0117672
0.0100616
0.00918692
0.0086592
0.147587
0.318409
0.383295
0.398571
0.401968
0.404525
0.410195
0.417833
0.423134
0.425317
0.14313
0.306903
0.369712
0.386639
0.385621
0.384787
0.386591
0.388989
0.387455
0.385183
0.135134
0.285851
0.346587
0.361826
0.358208
0.354684
0.351561
0.346519
0.344567
0.339681
0.126388
0.26175
0.320442
0.328236
0.323011
0.312536
0.303274
0.294256
0.279043
0.247809
0.119471
0.244651
0.287093
0.287487
0.273596
0.259473
0.242985
0.210974
0.186371
0.135187
0.115591
0.22078
0.247793
0.233139
0.218795
0.193678
0.148498
0.107558
0.0808399
0.058531
0.116695
0.194098
0.194915
0.178119
0.137574
0.0893641
0.0665563
0.0512006
0.0474331
0.0379864
0.117064
0.152003
0.136319
0.0910133
0.0620817
0.0493829
0.0435775
0.0383459
0.0377203
0.0319784
0.105132
0.0967441
0.0632675
0.0463948
0.0413157
0.0400768
0.037398
0.0354014
0.0342507
0.0262816
0.0679435
0.04798
0.0402675
0.0383408
0.0391283
0.0386458
0.0355396
0.032118
0.0243096
0.0190785
0.42649
0.421924
0.414786
0.406947
0.399476
0.39284
0.387322
0.382675
0.37869
0.375246
0.372239
0.369614
0.367339
0.365369
0.36367
0.362209
0.360944
0.359838
0.358857
0.357979
0.357178
0.356444
0.355753
0.355101
0.35446
0.353807
0.353126
0.3524
0.351613
0.350762
0.349852
0.348892
0.347892
0.346863
0.345817
0.344759
0.3437
0.342643
0.341598
0.340567
0.339561
0.338589
0.337665
0.336796
0.335997
0.335272
0.334629
0.334068
0.333595
0.333212
0.332922
0.332726
0.332629
0.332632
0.332734
0.332934
0.333229
0.333617
0.334089
0.334642
0.335264
0.335952
0.336693
0.337476
0.338292
0.339137
0.339995
0.340877
0.341781
0.342727
0.343723
0.344786
0.345902
0.347066
0.348251
0.34944
0.350609
0.351745
0.352828
0.35385
0.354796
0.355657
0.356417
0.357076
0.357618
0.358056
0.358365
0.358582
0.35866
0.358677
0.358532
0.358384
0.358019
0.357759
0.35716
0.356872
0.35599
0.355808
0.354532
0.354696
0.385678
0.383664
0.378832
0.373379
0.368209
0.363492
0.359569
0.356195
0.353293
0.350827
0.348735
0.346975
0.345505
0.344294
0.343318
0.342538
0.341903
0.34138
0.340942
0.340574
0.340257
0.339987
0.339746
0.33954
0.339294
0.339003
0.338664
0.338244
0.337736
0.337155
0.336514
0.335823
0.335096
0.334342
0.333573
0.332793
0.332011
0.331227
0.330451
0.329682
0.328934
0.328217
0.327546
0.326921
0.326353
0.325843
0.325397
0.325023
0.324726
0.324508
0.324377
0.324337
0.324395
0.324554
0.324816
0.325179
0.325638
0.326189
0.326826
0.327535
0.3283
0.329118
0.329979
0.33086
0.331756
0.332664
0.333566
0.334486
0.33544
0.336462
0.337568
0.338769
0.340032
0.341346
0.342684
0.344017
0.345326
0.346598
0.347809
0.348944
0.34999
0.350938
0.351775
0.352502
0.353101
0.35359
0.353943
0.354202
0.354313
0.354366
0.354247
0.354134
0.353789
0.353568
0.352984
0.352743
0.351868
0.35174
0.350473
0.350636
0.341428
0.340837
0.336724
0.332412
0.328532
0.324993
0.32152
0.31852
0.316028
0.314012
0.312421
0.311199
0.310301
0.309682
0.309314
0.309132
0.309064
0.309089
0.309196
0.309374
0.30961
0.309895
0.310215
0.310561
0.310948
0.311326
0.311646
0.311933
0.312177
0.312346
0.312441
0.31247
0.312448
0.312382
0.312281
0.31215
0.311992
0.31181
0.311615
0.3114
0.311204
0.311038
0.310909
0.310816
0.31076
0.310739
0.310746
0.310777
0.310841
0.31095
0.311123
0.311372
0.31171
0.312146
0.312686
0.313324
0.314058
0.314868
0.315754
0.31669
0.317672
0.318683
0.319697
0.320683
0.321662
0.322617
0.323524
0.324407
0.325278
0.326241
0.327395
0.328754
0.330212
0.331746
0.333282
0.33478
0.336252
0.33767
0.339021
0.34031
0.34152
0.342626
0.343604
0.344451
0.345151
0.345726
0.346147
0.34647
0.346632
0.346742
0.346665
0.346612
0.346307
0.346161
0.345612
0.345469
0.344617
0.344623
0.343357
0.34374
0.244891
0.244616
0.243778
0.243121
0.243004
0.24345
0.244312
0.245556
0.246992
0.248604
0.250353
0.252246
0.254256
0.256356
0.258587
0.260786
0.262771
0.264648
0.266472
0.268317
0.270083
0.27188
0.2736
0.275319
0.276982
0.278514
0.279908
0.281083
0.282096
0.282952
0.283689
0.284332
0.28491
0.285445
0.285941
0.286412
0.286849
0.287263
0.287657
0.288041
0.288408
0.288737
0.289082
0.289431
0.289775
0.290123
0.290443
0.290754
0.29105
0.291356
0.291716
0.292158
0.292703
0.293348
0.294129
0.295014
0.296036
0.297121
0.298323
0.299531
0.300734
0.301963
0.303231
0.304406
0.305554
0.306654
0.307663
0.308569
0.309234
0.309966
0.31134
0.31336
0.31542
0.317478
0.319508
0.321377
0.323197
0.325013
0.326769
0.328427
0.329963
0.331355
0.332574
0.33363
0.334503
0.33523
0.335781
0.336226
0.336495
0.336719
0.336736
0.336803
0.336582
0.336565
0.336088
0.33609
0.335288
0.335463
0.334218
0.334752
0.129932
0.127978
0.127875
0.12897
0.131405
0.134604
0.138449
0.142872
0.147233
0.151828
0.156593
0.161552
0.16664
0.171625
0.176658
0.181196
0.184876
0.188628
0.192466
0.196795
0.200428
0.204608
0.20825
0.21205
0.215694
0.219004
0.222044
0.224737
0.227196
0.229387
0.231437
0.233367
0.235185
0.23695
0.238623
0.240262
0.241828
0.243356
0.244855
0.246316
0.24781
0.24929
0.250894
0.252521
0.254173
0.255695
0.256999
0.258228
0.259251
0.260201
0.261188
0.262238
0.263419
0.264714
0.26617
0.267608
0.269257
0.270779
0.2725
0.274269
0.276051
0.277735
0.279337
0.280897
0.282417
0.28369
0.28483
0.285866
0.285999
0.285026
0.287011
0.291243
0.294396
0.297083
0.299457
0.30173
0.303891
0.305879
0.308003
0.310235
0.312366
0.314245
0.315843
0.317193
0.318293
0.319213
0.319923
0.320522
0.320932
0.321311
0.321469
0.321718
0.321649
0.321841
0.321509
0.321743
0.321063
0.321498
0.320341
0.321202
0.0586411
0.0591056
0.0597909
0.0605828
0.0618813
0.063218
0.0651976
0.066989
0.0693117
0.0717225
0.0746057
0.0775347
0.0811566
0.084314
0.0885656
0.0928742
0.0975468
0.101981
0.106809
0.111624
0.116581
0.121484
0.12625
0.131102
0.135778
0.140301
0.144616
0.148611
0.152498
0.155897
0.159334
0.162618
0.165683
0.168812
0.171786
0.174841
0.177813
0.180848
0.183784
0.18684
0.189905
0.192862
0.196355
0.199566
0.203227
0.206236
0.208486
0.211027
0.212696
0.214141
0.215643
0.217001
0.218467
0.220229
0.22219
0.223679
0.226183
0.227597
0.230558
0.232277
0.235159
0.238007
0.239382
0.2416
0.244736
0.246216
0.248433
0.251045
0.253325
0.254993
0.257351
0.258476
0.260914
0.26447
0.265956
0.268605
0.27225
0.273608
0.276386
0.280393
0.284136
0.286908
0.289193
0.291115
0.292687
0.294032
0.29513
0.296092
0.296878
0.297627
0.298136
0.2988
0.299119
0.299738
0.299762
0.300409
0.300013
0.300902
0.299935
0.301322
0.0379606
0.0379203
0.0379585
0.0380695
0.038262
0.0384722
0.0387494
0.0390632
0.0394468
0.0399303
0.0404619
0.04109
0.0419024
0.0426983
0.0435686
0.0440594
0.0449402
0.0458942
0.0478254
0.049648
0.0515782
0.0534384
0.0552635
0.0574612
0.0596201
0.0620833
0.0643952
0.0671497
0.0694856
0.0725033
0.0749358
0.0784708
0.0813715
0.0855681
0.089044
0.0930703
0.0972291
0.101489
0.105459
0.110633
0.115066
0.119103
0.125486
0.129137
0.134468
0.139531
0.142508
0.149879
0.152335
0.155558
0.156514
0.15523
0.156019
0.158941
0.162159
0.165518
0.168899
0.172824
0.176021
0.18061
0.184422
0.189043
0.193292
0.197278
0.201225
0.204755
0.207636
0.210557
0.214504
0.217359
0.219235
0.221461
0.22409
0.226847
0.229627
0.232421
0.235648
0.237255
0.239381
0.2419
0.2446
0.247425
0.25076
0.253475
0.255591
0.257403
0.258993
0.260423
0.261732
0.263053
0.264187
0.265546
0.266477
0.267612
0.268137
0.269178
0.269228
0.270416
0.26983
0.271834
0.0318751
0.0317126
0.0315045
0.0313095
0.0310541
0.0307893
0.0305011
0.030172
0.0298393
0.0293972
0.0289427
0.0284762
0.0280052
0.0273786
0.0269124
0.0264404
0.0260082
0.0256587
0.0254642
0.0253875
0.0253775
0.0254663
0.0255357
0.0257614
0.0258942
0.0261396
0.0265957
0.0271989
0.0276325
0.0283532
0.0287675
0.0296619
0.03027
0.0313864
0.032289
0.033589
0.0348775
0.0366577
0.0381845
0.0407732
0.0431835
0.045428
0.0495087
0.0519392
0.0553483
0.0591136
0.062816
0.0666943
0.0702307
0.0747805
0.0814739
0.0819424
0.0843832
0.0839393
0.0868747
0.0907683
0.0952117
0.100215
0.10534
0.110634
0.115908
0.121256
0.126542
0.131669
0.136626
0.141249
0.145713
0.150016
0.154094
0.15792
0.161469
0.164932
0.168311
0.171633
0.174979
0.178217
0.1815
0.184738
0.187871
0.191018
0.193989
0.196808
0.199614
0.202314
0.204811
0.207146
0.209377
0.211399
0.213769
0.215689
0.218388
0.220786
0.22221
0.223608
0.224687
0.225811
0.226905
0.227717
0.228625
0.231188
0.0256409
0.0249833
0.0243545
0.0236585
0.0229464
0.0222484
0.0215435
0.0209099
0.0202897
0.0197039
0.0192428
0.0186941
0.0182201
0.0178152
0.0174659
0.0171627
0.0169023
0.0166758
0.0164782
0.0162999
0.0161512
0.0160097
0.0159082
0.0157951
0.0157344
0.015646
0.0156054
0.015571
0.0155266
0.0155623
0.0155018
0.0155919
0.015586
0.0156165
0.015871
0.0160025
0.0159839
0.0162708
0.0162407
0.0165838
0.0169173
0.0172601
0.0179684
0.0184314
0.0189908
0.0199987
0.0206372
0.0219808
0.0225466
0.0244121
0.0247174
0.0264602
0.027306
0.0284249
0.0299766
0.030726
0.0325675
0.0348561
0.037738
0.0411268
0.0448634
0.0487578
0.052752
0.0569043
0.0611135
0.0655295
0.0700564
0.0747407
0.0794095
0.0840779
0.0886229
0.0931352
0.0975177
0.101836
0.106055
0.1102
0.114234
0.118234
0.122096
0.125904
0.129496
0.133056
0.136367
0.139685
0.142689
0.145671
0.148374
0.151103
0.153593
0.156178
0.158585
0.161156
0.163125
0.165453
0.166576
0.168139
0.169614
0.17082
0.171708
0.17613
0.0187498
0.0181764
0.0175552
0.0170329
0.0165854
0.0161846
0.0158219
0.0154897
0.0151786
0.0148955
0.0146315
0.01438
0.0141447
0.013927
0.013725
0.0135395
0.0133685
0.013212
0.0130667
0.0129333
0.0128102
0.0126981
0.012596
0.0125027
0.0124163
0.0123369
0.0122633
0.0121995
0.0121353
0.012086
0.0120276
0.0119928
0.0119181
0.0119135
0.0118331
0.0118679
0.0118097
0.0117997
0.0117519
0.0117159
0.0117104
0.0116713
0.0116658
0.0116443
0.0115977
0.0116073
0.0117186
0.0117182
0.0117035
0.0118685
0.0120214
0.0122521
0.0118243
0.0122045
0.0122434
0.0120952
0.012098
0.0116797
0.0124859
0.0132662
0.014327
0.0141482
0.0134093
0.0140076
0.0160287
0.018369
0.0202642
0.0221408
0.0239373
0.0259473
0.0279351
0.0302116
0.0324409
0.034978
0.0374382
0.0402176
0.042877
0.0458843
0.0487259
0.0519267
0.0548761
0.0581969
0.0611909
0.0645573
0.067554
0.0709969
0.0739854
0.0774599
0.0803787
0.0838635
0.0866561
0.0901847
0.092929
0.0962952
0.0987044
0.101906
0.103883
0.107049
0.10858
0.1134
0.0150329
0.0147277
0.0144217
0.014128
0.0138491
0.0135822
0.0133316
0.0130937
0.012873
0.0126655
0.0124728
0.0123009
0.0121461
0.0120064
0.0118777
0.0117586
0.0116457
0.011539
0.0114365
0.0113391
0.0112476
0.0111617
0.0110818
0.011008
0.0109429
0.0108832
0.0108297
0.0107776
0.0107303
0.0106821
0.0106379
0.0105921
0.0105485
0.0105053
0.0104611
0.0104194
0.0103772
0.0103382
0.0102984
0.0102609
0.0102273
0.0101891
0.0101617
0.0101252
0.0100993
0.0100616
0.0100448
0.00999744
0.00998321
0.00993522
0.00992905
0.00988933
0.00987219
0.00984127
0.00981105
0.00980165
0.00975455
0.00975386
0.00972149
0.00974168
0.00975113
0.0097295
0.00976839
0.00987864
0.00990327
0.0100491
0.0101727
0.01039
0.0105183
0.0107791
0.010939
0.0112793
0.0115047
0.0119366
0.012209
0.0128161
0.0131804
0.0139585
0.0144189
0.015372
0.0159354
0.0170873
0.0177559
0.0191318
0.0199077
0.0215115
0.0224071
0.0242354
0.0252569
0.0273128
0.0284643
0.0307317
0.0320164
0.0344464
0.03585
0.0384778
0.0399394
0.0428384
0.0434105
0.048715
0.0125446
0.0124026
0.0122699
0.0121262
0.0119772
0.0118259
0.0116768
0.0115314
0.011393
0.0112608
0.0111387
0.011024
0.0109195
0.0108222
0.0107342
0.0106527
0.0105797
0.0105109
0.0104493
0.0103904
0.0103337
0.0102769
0.0102214
0.0101657
0.0101112
0.0100562
0.0100027
0.00994831
0.00989563
0.00984165
0.00978984
0.00973618
0.00968622
0.00963359
0.00958691
0.0095377
0.00949666
0.00945326
0.00942036
0.00938454
0.00936058
0.00933308
0.00931724
0.0092962
0.0092865
0.00926899
0.00925927
0.00924003
0.00922722
0.00920566
0.00918974
0.00916462
0.00914465
0.00911734
0.0090989
0.00907072
0.00905403
0.00902906
0.00901588
0.00899896
0.00897363
0.00895157
0.00892873
0.00891217
0.00889487
0.00889766
0.00890081
0.00892087
0.00893628
0.00896705
0.00898655
0.00902469
0.00906209
0.00909601
0.00913351
0.00923955
0.0092702
0.0092574
0.00928437
0.00935543
0.00936244
0.00947342
0.00951967
0.00963832
0.00969519
0.00984535
0.00992666
0.0101062
0.0102316
0.0104525
0.0106278
0.0109202
0.0111053
0.0114872
0.0117545
0.0123789
0.0123857
0.0134034
0.0132437
0.014966
0.0108789
0.0108003
0.0107173
0.0106278
0.0105367
0.010443
0.0103512
0.0102592
0.0101709
0.0100837
0.0100011
0.00991988
0.00984363
0.00976866
0.00969865
0.00962973
0.00956548
0.00950222
0.0094436
0.00938568
0.00933245
0.00928002
0.00923228
0.00918545
0.00914312
0.00910182
0.00906478
0.00902887
0.00899688
0.00896602
0.00893858
0.00891219
0.00888854
0.00886566
0.00884471
0.00882404
0.00880436
0.00878445
0.00876469
0.0087443
0.00872356
0.00870206
0.00868025
0.00865778
0.00863545
0.00861265
0.00859084
0.00856852
0.00854825
0.00852711
0.00850912
0.00848964
0.0084742
0.0084566
0.00844339
0.00842759
0.00841599
0.00840183
0.00839118
0.00837852
0.00836848
0.00835731
0.00834775
0.00833813
0.00832944
0.00832142
0.00831394
0.00830797
0.00830184
0.00829848
0.0082936
0.00829338
0.00828963
0.00829281
0.0082899
0.00829657
0.00829473
0.00830382
0.0083024
0.00831367
0.00831332
0.00832556
0.00832841
0.00834258
0.0083477
0.00836217
0.00837007
0.00838458
0.00839554
0.00841071
0.00842546
0.00844175
0.00846121
0.00847624
0.00850475
0.00852191
0.00856044
0.00859708
0.00863468
0.00871995
0.0097574
0.0097116
0.00966205
0.00960624
0.00954831
0.00948718
0.00942676
0.00936479
0.00930487
0.00924409
0.0091862
0.00912779
0.00907282
0.0090175
0.00896606
0.00891433
0.00886696
0.00881946
0.00877681
0.00873416
0.00869677
0.00865935
0.00862732
0.00859489
0.00856765
0.00853925
0.00851555
0.00848983
0.0084682
0.00844372
0.00842286
0.00839861
0.00837782
0.00835344
0.00833265
0.00830831
0.0082879
0.00826415
0.00824472
0.00822217
0.0082042
0.00818316
0.00816673
0.00814707
0.00813199
0.00811341
0.00809937
0.00808158
0.00806829
0.00805105
0.00803839
0.0080216
0.0080095
0.00799317
0.00798179
0.00796612
0.00795551
0.0079407
0.00793106
0.00791726
0.00790873
0.00789615
0.00788893
0.00787784
0.00787219
0.00786283
0.007859
0.00785155
0.00784971
0.00784424
0.00784448
0.00784097
0.00784326
0.00784168
0.00784572
0.00784601
0.00785156
0.00785348
0.00786016
0.00786333
0.0078707
0.00787487
0.00788273
0.00788752
0.00789548
0.00790054
0.00790791
0.00791319
0.00791928
0.00792494
0.00792923
0.00793573
0.00793756
0.00794327
0.00794392
0.00794808
0.00794661
0.00795076
0.00794975
0.00794795
0.00894047
0.00891592
0.00888776
0.00885336
0.00881646
0.00877588
0.00873534
0.00869271
0.00865148
0.008609
0.00856879
0.00852772
0.00848945
0.00845042
0.00841447
0.00837769
0.00834417
0.00830961
0.00827843
0.00824595
0.00821694
0.00818639
0.00815942
0.00813073
0.00810581
0.00807902
0.00805624
0.00803149
0.00801098
0.00798834
0.00797017
0.00794966
0.00793375
0.00791525
0.00790145
0.00788474
0.00787281
0.00785763
0.00784731
0.00783337
0.00782433
0.00781134
0.00780329
0.00779099
0.00778369
0.00777184
0.00776506
0.00775349
0.00774702
0.00773564
0.0077294
0.00771804
0.00771211
0.00770096
0.00769531
0.00768451
0.00767934
0.00766903
0.00766448
0.00765479
0.00765099
0.00764203
0.00763903
0.00763082
0.00762862
0.00762116
0.00761972
0.00761294
0.00761218
0.00760602
0.00760586
0.00760024
0.00760062
0.00759543
0.0075963
0.00759145
0.00759274
0.00758811
0.00758979
0.00758521
0.00758731
0.00758265
0.0075851
0.00758029
0.00758301
0.00757803
0.00758093
0.00757571
0.00757888
0.00757317
0.00757688
0.00757024
0.0075748
0.00756773
0.0075714
0.00756473
0.00756932
0.00756147
0.00755972
0.00755312
0.00837509
0.00836354
0.00834919
0.00832903
0.0083066
0.0082804
0.00825399
0.00822511
0.00819711
0.00816733
0.00813919
0.00810967
0.00808231
0.0080538
0.00802788
0.00800095
0.00797696
0.00795203
0.00793031
0.0079076
0.00788828
0.00786777
0.00785069
0.00783212
0.00781693
0.00779985
0.00778603
0.00776996
0.00775709
0.0077416
0.00772928
0.00771403
0.00770199
0.00768679
0.0076749
0.00765963
0.00764784
0.00763249
0.00762079
0.00760541
0.00759384
0.00757846
0.00756712
0.00755188
0.00754093
0.007526
0.00751562
0.00750119
0.00749157
0.00747782
0.00746914
0.00745624
0.00744868
0.0074368
0.00743049
0.00741977
0.0074148
0.00740529
0.00740165
0.0073934
0.00739108
0.00738392
0.00738276
0.00737661
0.00737639
0.00737103
0.0073715
0.0073667
0.00736764
0.00736324
0.00736445
0.00736028
0.00736158
0.00735761
0.0073589
0.00735506
0.00735619
0.00735254
0.00735339
0.00734998
0.00735043
0.00734729
0.00734728
0.00734444
0.00734399
0.00734139
0.00734053
0.00733821
0.00733684
0.00733509
0.00733292
0.00733187
0.00732879
0.00732899
0.00732512
0.00732254
0.00732213
0.00731257
0.00733482
0.00728766
0.00798163
0.00797722
0.00797083
0.007959
0.00794539
0.00792795
0.00791038
0.00789
0.00787041
0.0078486
0.00782825
0.00780607
0.00778581
0.00776393
0.00774428
0.00772307
0.00770431
0.00768397
0.00766623
0.00764682
0.00763015
0.00761172
0.00759614
0.0075787
0.00756422
0.00754778
0.0075344
0.00751896
0.00750671
0.00749225
0.00748109
0.00746758
0.00745748
0.00744484
0.00743573
0.00742388
0.00741569
0.00740453
0.00739716
0.00738659
0.00737992
0.00736981
0.00736375
0.00735397
0.00734841
0.00733893
0.00733375
0.00732441
0.00731959
0.00731046
0.00730598
0.00729703
0.00729286
0.00728409
0.00728024
0.00727167
0.00726813
0.00725977
0.00725654
0.00724842
0.00724551
0.00723759
0.00723495
0.00722732
0.00722502
0.00721764
0.00721569
0.00720862
0.007207
0.00720025
0.00719896
0.00719254
0.00719155
0.0071855
0.00718478
0.00717911
0.00717863
0.00717331
0.00717303
0.00716804
0.00716794
0.00716322
0.00716332
0.00715878
0.00715909
0.00715464
0.00715507
0.00715078
0.00715111
0.00714719
0.00714712
0.00714374
0.00714319
0.00714032
0.00713925
0.00713476
0.00713624
0.00713024
0.00712768
0.00712201
0.00769902
0.0076986
0.00769679
0.00768985
0.00768147
0.00766925
0.00765706
0.0076419
0.00762761
0.00761086
0.00759561
0.00757822
0.00756278
0.00754538
0.00753025
0.00751325
0.00749877
0.00748243
0.00746881
0.00745329
0.00744063
0.00742599
0.00741429
0.00740047
0.00738968
0.0073766
0.00736658
0.00735411
0.00734475
0.00733277
0.00732395
0.00731234
0.00730394
0.00729261
0.00728457
0.00727346
0.00726574
0.00725483
0.00724744
0.00723676
0.00722972
0.00721931
0.00721268
0.00720261
0.00719647
0.00718679
0.0071812
0.00717198
0.007167
0.00715827
0.00715393
0.00714569
0.00714197
0.00713417
0.00713103
0.0071236
0.00712093
0.00711379
0.00711148
0.00710454
0.00710247
0.00709566
0.00709375
0.00708704
0.00708526
0.00707863
0.00707696
0.00707045
0.00706892
0.00706255
0.00706115
0.00705497
0.00705376
0.00704785
0.00704679
0.00704122
0.00704034
0.00703514
0.00703436
0.00702961
0.00702882
0.00702462
0.00702364
0.00702012
0.00701875
0.00701601
0.00701415
0.0070121
0.00700991
0.00700809
0.00700606
0.00700387
0.00700265
0.00699971
0.0069987
0.00699552
0.0069904
0.00698667
0.00700685
0.00696423
0.00749158
0.00749364
0.00749424
0.00749005
0.00748472
0.00747577
0.00746697
0.00745529
0.00744448
0.00743119
0.00741933
0.00740526
0.00739305
0.00737878
0.0073667
0.00735262
0.00734097
0.0073273
0.00731626
0.00730312
0.00729275
0.00728017
0.00727049
0.00725846
0.00724946
0.00723797
0.00722958
0.00721859
0.00721082
0.00720028
0.00719307
0.00718295
0.00717626
0.00716651
0.00716028
0.00715086
0.00714504
0.0071359
0.00713045
0.00712155
0.00711642
0.00710774
0.0071029
0.00709437
0.00708979
0.00708141
0.00707707
0.00706884
0.00706477
0.00705668
0.00705287
0.0070449
0.00704132
0.00703351
0.00703018
0.00702251
0.00701944
0.00701192
0.00700909
0.00700175
0.00699919
0.00699206
0.00698976
0.00698284
0.0069808
0.00697407
0.0069723
0.00696581
0.00696427
0.00695801
0.00695671
0.00695069
0.00694963
0.00694386
0.00694301
0.00693746
0.00693679
0.00693148
0.00693097
0.00692592
0.00692546
0.00692068
0.00692027
0.00691574
0.00691534
0.00691104
0.00691062
0.00690648
0.00690606
0.00690204
0.00690158
0.00689762
0.006897
0.00689363
0.00689223
0.0068886
0.00688695
0.00688349
0.0068823
0.00687595
0.00733576
0.0073394
0.00734144
0.00733912
0.00733598
0.00732953
0.00732334
0.00731441
0.00730634
0.00729586
0.00728672
0.00727536
0.00726573
0.007254
0.00724429
0.0072325
0.00722298
0.00721135
0.00720219
0.00719084
0.00718213
0.00717112
0.00716291
0.00715226
0.00714455
0.00713426
0.00712703
0.00711707
0.00711028
0.00710063
0.00709428
0.00708491
0.00707896
0.00706985
0.00706425
0.0070554
0.00705014
0.00704153
0.0070366
0.00702822
0.0070236
0.00701546
0.00701115
0.00700323
0.0069992
0.00699147
0.00698772
0.00698015
0.00697665
0.00696922
0.00696595
0.00695863
0.00695556
0.00694831
0.00694542
0.00693824
0.00693549
0.00692834
0.00692576
0.00691872
0.00691628
0.00690936
0.0069071
0.00690032
0.00689826
0.00689166
0.0068898
0.00688339
0.00688175
0.00687556
0.00687416
0.0068682
0.00686701
0.00686131
0.00686031
0.00685486
0.00685404
0.00684885
0.00684812
0.00684319
0.00684256
0.00683793
0.00683731
0.00683295
0.00683232
0.00682821
0.00682756
0.00682359
0.00682293
0.00681912
0.00681836
0.0068147
0.0068137
0.00681071
0.00680893
0.00680553
0.00680383
0.00680041
0.00679917
0.00679271
0.00721827
0.00722202
0.00722466
0.00722341
0.0072215
0.00721653
0.00721181
0.00720451
0.00719799
0.00718916
0.00718157
0.00717185
0.00716375
0.0071536
0.00714537
0.00713512
0.00712701
0.00711684
0.00710903
0.00709906
0.00709162
0.00708192
0.0070749
0.0070655
0.00705892
0.00704981
0.00704367
0.00703485
0.00702913
0.00702056
0.00701526
0.00700692
0.00700198
0.00699386
0.00698924
0.0069813
0.00697697
0.00696918
0.00696509
0.00695743
0.00695357
0.00694604
0.00694238
0.00693496
0.00693148
0.00692418
0.00692087
0.00691368
0.00691053
0.00690344
0.00690047
0.00689347
0.00689067
0.00688376
0.00688115
0.00687433
0.00687187
0.00686512
0.00686284
0.00685622
0.0068541
0.00684758
0.00684563
0.00683922
0.00683743
0.00683114
0.00682949
0.00682335
0.00682185
0.00681586
0.00681448
0.00680864
0.00680745
0.00680181
0.00680071
0.00679531
0.00679428
0.00678915
0.00678812
0.00678332
0.00678218
0.00677779
0.00677647
0.00677247
0.00677097
0.00676735
0.00676565
0.00676238
0.00676042
0.00675763
0.00675518
0.00675296
0.00674992
0.00674877
0.00674505
0.00674185
0.00674069
0.00673238
0.00674985
0.00670965
0.0071298
0.00713325
0.00713622
0.00713567
0.00713459
0.00713062
0.00712693
0.0071208
0.00711543
0.00710788
0.0071015
0.00709311
0.00708622
0.00707738
0.00707032
0.00706132
0.00705431
0.00704534
0.00703853
0.0070297
0.00702318
0.00701455
0.00700837
0.00699996
0.00699414
0.00698596
0.00698048
0.00697252
0.00696739
0.00695961
0.00695482
0.00694721
0.00694273
0.00693525
0.00693107
0.00692368
0.00691977
0.00691246
0.00690879
0.00690154
0.0068981
0.0068909
0.00688765
0.0068805
0.00687743
0.00687032
0.0068674
0.00686036
0.00685758
0.0068506
0.00684795
0.00684104
0.00683851
0.00683169
0.00682926
0.00682252
0.00682024
0.0068136
0.00681145
0.00680491
0.00680291
0.00679647
0.00679462
0.00678829
0.00678658
0.00678037
0.00677883
0.00677273
0.00677134
0.00676538
0.00676415
0.00675831
0.00675727
0.00675154
0.0067507
0.00674504
0.00674446
0.00673879
0.00673852
0.00673275
0.0067329
0.00672694
0.0067275
0.0067214
0.00672227
0.00671607
0.0067172
0.00671084
0.00671238
0.00670557
0.00670782
0.00670014
0.00670336
0.00669535
0.00669802
0.00669043
0.00669377
0.00668558
0.00668312
0.0066773
0.0070623
0.0070656
0.00706869
0.00706837
0.00706786
0.00706449
0.0070616
0.00705621
0.00705175
0.00704503
0.0070396
0.00703207
0.00702612
0.00701815
0.007012
0.00700385
0.00699771
0.00698956
0.00698357
0.00697551
0.00696974
0.00696184
0.00695634
0.00694863
0.00694341
0.00693588
0.00693095
0.00692361
0.00691894
0.00691176
0.00690736
0.00690033
0.00689616
0.00688925
0.00688532
0.0068785
0.00687477
0.00686802
0.00686449
0.00685779
0.00685444
0.00684779
0.00684461
0.00683799
0.00683496
0.00682838
0.00682548
0.00681895
0.00681619
0.00680971
0.00680708
0.00680063
0.00679815
0.00679173
0.00678939
0.006783
0.0067808
0.00677445
0.00677239
0.00676606
0.00676413
0.00675788
0.00675608
0.00674989
0.00674825
0.00674215
0.00674064
0.00673465
0.00673326
0.00672739
0.00672615
0.00672039
0.00671927
0.00671366
0.00671268
0.00670719
0.00670632
0.00670099
0.00670019
0.00669506
0.00669425
0.00668942
0.00668845
0.00668404
0.00668276
0.0066789
0.00667722
0.00667382
0.00667195
0.00666868
0.00666701
0.00666342
0.00666224
0.00665815
0.00665748
0.00665404
0.00664893
0.00664889
0.00664892
0.00664324
0.00701126
0.00701419
0.00701721
0.00701691
0.00701672
0.00701363
0.00701127
0.00700629
0.00700246
0.00699621
0.00699145
0.00698441
0.00697915
0.00697168
0.00696621
0.00695854
0.00695307
0.00694537
0.00694002
0.00693238
0.00692723
0.00691972
0.00691481
0.00690744
0.00690279
0.00689556
0.00689117
0.00688409
0.00687995
0.00687299
0.00686908
0.00686225
0.00685855
0.00685182
0.00684832
0.00684165
0.00683832
0.00683171
0.00682855
0.00682198
0.00681897
0.00681243
0.00680956
0.00680305
0.00680031
0.00679381
0.00679118
0.00678473
0.00678222
0.00677581
0.00677341
0.00676705
0.00676475
0.00675843
0.00675624
0.00674997
0.00674788
0.00674166
0.00673967
0.00673351
0.00673163
0.00672552
0.00672376
0.00671774
0.00671608
0.00671014
0.0067086
0.00670276
0.00670134
0.00669562
0.00669431
0.00668871
0.00668752
0.00668206
0.00668097
0.00667564
0.00667466
0.00666947
0.00666858
0.00666352
0.00666276
0.00665777
0.00665717
0.00665218
0.00665177
0.00664673
0.00664649
0.00664148
0.00664124
0.00663653
0.00663592
0.00663178
0.00663048
0.00662703
0.0066255
0.00662159
0.00662141
0.00661972
0.00659933
0.00662681
0.00696986
0.00697264
0.00697546
0.00697516
0.00697504
0.00697217
0.00697001
0.00696537
0.00696184
0.00695599
0.00695161
0.00694501
0.00694017
0.00693316
0.00692814
0.00692093
0.00691592
0.00690866
0.00690378
0.00689657
0.00689188
0.00688476
0.00688032
0.00687331
0.00686912
0.00686223
0.00685829
0.00685151
0.00684781
0.00684112
0.00683764
0.00683103
0.00682776
0.00682121
0.00681812
0.00681162
0.00680868
0.00680222
0.00679941
0.00679298
0.00679027
0.00678388
0.00678127
0.00677491
0.00677238
0.00676606
0.00676362
0.00675733
0.00675497
0.00674872
0.00674644
0.00674023
0.00673803
0.00673186
0.00672974
0.0067236
0.00672157
0.00671544
0.00671355
0.00670747
0.00670566
0.00669964
0.00669795
0.006692
0.00669042
0.00668455
0.00668308
0.0066773
0.00667593
0.00667026
0.006669
0.00666344
0.00666227
0.00665684
0.00665576
0.00665049
0.00664944
0.00664437
0.00664332
0.00663848
0.00663737
0.0066328
0.00663158
0.00662728
0.00662592
0.00662194
0.00662039
0.00661678
0.00661486
0.00661184
0.00660934
0.00660708
0.0066038
0.00660193
0.00659944
0.00659688
0.0065949
0.00659039
0.00658834
0.00658316
0.00693675
0.00693939
0.00694196
0.00694173
0.00694159
0.00693898
0.00693696
0.0069327
0.00692939
0.006924
0.0069199
0.0069138
0.00690927
0.00690277
0.00689807
0.00689137
0.00688667
0.00687991
0.00687532
0.00686858
0.00686415
0.00685747
0.00685325
0.00684665
0.00684263
0.00683611
0.0068323
0.00682584
0.00682223
0.00681582
0.00681241
0.00680604
0.00680281
0.00679645
0.00679339
0.00678703
0.00678412
0.00677775
0.00677499
0.0067686
0.00676598
0.00675957
0.00675708
0.00675066
0.00674828
0.00674187
0.0067396
0.00673321
0.00673103
0.00672468
0.00672257
0.00671628
0.00671423
0.00670801
0.00670601
0.00669985
0.00669793
0.00669183
0.00668998
0.00668394
0.00668218
0.00667621
0.00667454
0.00666863
0.00666707
0.00666124
0.00665977
0.00665403
0.00665267
0.00664701
0.00664576
0.00664019
0.00663906
0.00663356
0.00663259
0.00662712
0.00662638
0.00662084
0.00662041
0.0066147
0.00661468
0.00660871
0.00660913
0.00660291
0.00660371
0.00659732
0.00659836
0.00659187
0.00659314
0.00658641
0.00658819
0.00658092
0.00658335
0.00657519
0.00657844
0.00657208
0.00657398
0.00656975
0.00654896
0.00657624
0.00691333
0.00691574
0.006918
0.00691771
0.00691747
0.00691499
0.00691299
0.00690894
0.00690571
0.00690058
0.00689657
0.00689074
0.00688628
0.00688002
0.00687535
0.00686885
0.00686415
0.00685754
0.00685291
0.00684627
0.00684175
0.00683512
0.00683073
0.00682415
0.00681991
0.00681338
0.0068093
0.00680282
0.00679892
0.00679248
0.00678875
0.00678237
0.0067788
0.00677245
0.00676905
0.00676273
0.00675948
0.00675319
0.00675009
0.00674383
0.00674086
0.00673462
0.00673178
0.00672555
0.00672283
0.00671663
0.00671404
0.00670787
0.00670543
0.00669929
0.006697
0.00669089
0.00668875
0.00668267
0.00668067
0.00667463
0.00667276
0.00666676
0.00666502
0.00665908
0.00665746
0.00665158
0.00665008
0.00664426
0.00664286
0.00663711
0.00663581
0.00663016
0.00662896
0.00662339
0.00662227
0.0066168
0.00661577
0.00661042
0.00660945
0.00660421
0.0066033
0.00659818
0.00659731
0.00659231
0.00659149
0.0065866
0.00658583
0.00658103
0.00658027