/*--------------------------------*- C++ -*----------------------------------*\
  =========                 |
  \\      /  F ield         | OpenFOAM: The Open Source CFD Toolbox
   \\    /   O peration     | Website:  https://openfoam.org
    \\  /    A nd           | Version:  8
     \\/     M anipulation  |
\*---------------------------------------------------------------------------*/
FoamFile
{
    version     2.0;
    format      ascii;
    class       surfaceScalarField;
    location    "0.500023";
    object      phi;
}
// * * * * * * * * * * * * * * * * * * * * * * * * * * * * * * * * * * * * * //

dimensions      [1 0 -1 0 0 0 0];

internalField   nonuniform List<scalar> 
13330
(
0.409093
-0.443073
0.0339876
0.815255
-1.44394
1.03776
1.16417
-1.81111
1.46217
1.46962
-2.00977
1.70431
1.73828
-2.12277
1.85411
1.97728
-2.18493
1.94593
2.19387
-2.21777
2.00117
2.39433
-2.23361
2.03314
2.58445
-2.23996
2.04985
-2.24196
2.05536
2.77105
0.448106
-0.891179
0.842577
-1.83842
1.16347
-2.13201
1.43893
-2.28524
1.67697
-2.36081
1.88698
-2.39495
2.07658
-2.40737
2.2513
-2.40832
2.41508
-2.40374
-2.39694
2.57005
0.444534
-1.33571
0.821463
-2.21535
1.11331
-2.42387
1.35908
-2.53101
1.56869
-2.57042
1.75252
-2.57878
1.91807
-2.57291
2.07064
-2.56089
2.21376
-2.54686
-2.53253
2.34936
0.423612
-1.75932
0.76968
-2.56143
1.02959
-2.68378
1.24669
-2.74811
1.42941
-2.75314
1.5894
-2.73877
1.73394
-2.71745
1.86787
-2.69482
1.99419
-2.67319
-2.65281
2.11447
0.391586
-2.15091
0.698694
-2.86856
0.925593
-2.91069
1.11416
-2.93668
1.27155
-2.91054
1.41011
-2.87733
1.53591
-2.84324
1.65296
-2.81187
1.76373
-2.78396
-2.75847
1.86939
0.352724
-2.50364
0.616644
-3.13249
0.810311
-3.10437
0.971019
-3.09739
1.10463
-3.04415
1.22298
-2.99567
1.33079
-2.95105
1.43144
-2.91253
1.52687
-2.87939
-2.8494
1.6178
0.309871
-2.81352
0.52923
-3.35187
0.690838
-3.26599
0.823866
-3.23042
0.934455
-3.15474
1.03309
-3.09431
1.1231
-3.04106
1.20712
-2.99656
1.28669
-2.95896
-2.92482
1.36211
0.265277
-3.07881
0.440469
-3.52707
0.571008
-3.39654
0.676577
-3.336
0.764876
-3.24304
0.843624
-3.17306
0.915242
-3.11268
0.981878
-3.0632
1.04476
-3.02185
-2.98393
1.10386
0.22034
-3.29916
0.352694
-3.65945
0.453373
-3.49724
0.531714
-3.41434
0.597802
-3.30914
0.656036
-3.23129
0.708574
-3.16523
0.757037
-3.11166
0.802382
-3.0672
-3.02592
0.844371
0.175975
-3.47515
0.26743
-3.75092
0.338904
-3.56872
0.390357
-3.46581
0.434134
-3.35291
0.471217
-3.26838
0.503938
-3.19794
0.533372
-3.1411
0.560366
-3.09419
0.584557
-3.05012
-0.173509
0.173509
-0.309549
0.136036
-0.421982
0.112427
-0.512701
0.0907163
-0.579334
0.0666248
-0.618272
0.0389366
-0.625994
0.00771339
-0.600894
-0.0250959
-0.546161
-0.0547315
-0.0751115
-0.47104
-0.146211
0.319712
-0.264163
0.253976
-0.35533
0.20358
-0.42152
0.15689
-0.459732
0.104822
-0.464786
0.0439753
-0.43331
-0.0237729
-0.367265
-0.0911358
-0.272831
-0.149145
-0.189048
-0.158865
-0.109721
0.429428
-0.191168
0.335407
-0.243016
0.255412
-0.262171
0.176026
-0.241379
0.0840153
-0.17282
-0.0246046
-0.0645304
-0.132069
0.0704437
-0.226099
0.223268
-0.301949
-0.353132
0.387381
-0.0680059
0.497416
-0.105071
0.372453
-0.101881
0.252203
-0.0455694
0.119692
0.0745542
-0.0361234
0.240309
-0.190376
0.426893
-0.318658
0.624134
-0.423334
0.828793
-0.506588
-0.565157
1.04084
-0.0284819
0.525891
-0.0126659
0.356615
0.0692459
0.17027
0.23431
-0.0453915
0.453622
-0.255447
0.692663
-0.429428
0.942815
-0.568815
1.19816
-0.678666
1.45493
-0.763349
-0.823671
1.71346
0.0063706
0.519503
0.0873545
0.275611
0.279037
-0.0214311
0.543487
-0.309857
0.83078
-0.542748
1.12642
-0.72508
1.4239
-0.866293
1.71846
-0.973222
2.00655
-1.05143
-1.10561
2.28851
0.0365134
0.482983
0.218079
0.0940216
0.514799
-0.318166
0.842658
-0.637727
1.17616
-0.876258
1.50395
-1.05287
1.81859
-1.18094
2.11789
-1.27251
2.40321
-1.33674
-1.38024
2.67785
0.078518
0.404449
0.379095
-0.206575
0.74473
-0.683815
1.11113
-1.00413
1.45918
-1.22432
1.78283
-1.37652
2.08316
-1.48127
2.3637
-1.55305
2.62841
-1.60144
-1.63269
2.88088
0.162421
0.242011
0.558885
-0.603061
0.952605
-1.07755
1.31555
-1.36708
1.64501
-1.55378
1.94441
-1.67592
2.21886
-1.75572
2.47286
-1.80705
2.71071
-1.83929
-1.8584
2.93642
0.275988
0.710677
1.0953
1.43253
1.73285
2.00286
2.24832
2.47441
2.68498
2.88195
-0.305816
-0.165205
-0.154838
-0.150968
-0.016992
-0.137839
0.107294
-0.12428
0.218494
-0.111194
0.31951
-0.101009
0.412594
-0.0930769
0.499242
-0.0866413
0.580499
-0.0812498
0.657115
-0.0766087
0.729651
-0.0725289
0.798544
-0.0688851
0.864139
-0.0655877
0.92672
-0.0625732
0.986522
-0.0597949
1.04374
-0.057211
1.09853
-0.0547838
1.15103
-0.0524869
1.20134
-0.0503055
1.24958
-0.0482295
1.29584
-0.0462525
1.34021
-0.0443689
1.38279
-0.0425735
1.42366
-0.0408627
1.4629
-0.0392313
1.50057
-0.037672
1.53676
-0.0361782
1.5715
-0.0347443
1.60487
-0.033366
1.63692
-0.032041
1.66769
-0.0307683
1.69723
-0.0295473
1.72561
-0.0283775
1.75287
-0.0272583
1.77906
-0.0261884
1.80422
-0.0251664
1.82841
-0.0241905
1.85167
-0.0232589
1.87404
-0.0223701
1.89556
-0.021523
1.91627
-0.0207165
1.93622
-0.0199504
1.95544
-0.0192256
1.97398
-0.0185422
1.99187
-0.0178995
2.00917
-0.0172956
2.02589
-0.0167274
2.04208
-0.0161908
2.05775
-0.0156806
2.07294
-0.0151918
2.08766
-0.0147206
2.10192
-0.0142644
2.11574
-0.0138226
2.12913
-0.0133956
2.14211
-0.0129843
2.1547
-0.0125893
2.16691
-0.0122106
2.17875
-0.0118479
2.19025
-0.0115009
2.20142
-0.0111697
2.21227
-0.0108542
2.22283
-0.0105536
2.23309
-0.0102674
2.24308
-0.00999518
2.25282
-0.00973618
2.26231
-0.00948923
2.27156
-0.00925303
2.28058
-0.00902505
2.28938
-0.00880124
2.29796
-0.00858154
2.30633
-0.00837123
2.3145
-0.00817351
2.32249
-0.0079875
2.3303
-0.00781049
2.33794
-0.00763981
2.34542
-0.00747371
2.35273
-0.00731089
2.35988
-0.00715089
2.36688
-0.00699437
2.37372
-0.00684195
2.38042
-0.00669337
2.38697
-0.00654797
2.39338
-0.00640506
2.39964
-0.00626374
2.40577
-0.00612367
2.41175
-0.00598427
2.4176
-0.00584496
2.42331
-0.00570627
2.42888
-0.00556751
2.43431
-0.00542886
2.4396
-0.00529024
2.44476
-0.00515194
2.44977
-0.00501286
2.45464
-0.00487327
2.45937
-0.0047295
2.46396
-0.00458025
2.46837
-0.00441852
2.47262
-0.00424269
2.47666
-0.00403813
-0.00360787
-0.0123041
-0.311724
0.115426
-0.278676
0.228785
-0.251182
0.332563
-0.228043
0.428971
-0.207586
0.518527
-0.190549
0.602094
-0.176628
0.68053
-0.16506
0.754514
-0.155217
0.824569
-0.146645
0.891104
-0.139046
0.954449
-0.132213
1.01487
-0.125993
1.07259
-0.120273
1.12779
-0.114979
1.18064
-0.110044
1.23127
-0.105393
1.27978
-0.100979
1.32628
-0.0967862
1.37086
-0.0927987
1.41363
-0.0890054
1.45467
-0.0853937
1.49406
-0.081945
1.53186
-0.0786565
1.56817
-0.0755242
1.60304
-0.0725332
1.63654
-0.0696703
1.66873
-0.0669237
1.69965
-0.0642847
1.72936
-0.0617469
1.75791
-0.059307
1.78532
-0.0569638
1.81166
-0.0547158
1.83696
-0.0525629
1.86128
-0.0505033
1.88464
-0.0485347
1.9071
-0.0466545
1.92869
-0.0448587
1.94946
-0.0431441
1.96944
-0.0415086
1.98867
-0.0399488
2.00717
-0.0384626
2.02499
-0.0370529
2.04217
-0.0357217
2.05873
-0.034469
2.07472
-0.0332934
2.09017
-0.0321885
2.10512
-0.0311497
2.1196
-0.0301673
2.13363
-0.0292287
2.14723
-0.0283241
2.1604
-0.0274464
2.17317
-0.0265946
2.18554
-0.0257701
2.19752
-0.0249745
2.20913
-0.024208
2.22039
-0.0234712
2.2313
-0.022764
2.24188
-0.0220859
2.25214
-0.0214399
2.26211
-0.0208257
2.27179
-0.0202387
2.2812
-0.0196775
2.29034
-0.019144
2.29924
-0.0186379
2.30791
-0.0181583
2.31636
-0.0177076
2.32461
-0.0172822
2.33267
-0.01686
2.34052
-0.0164327
2.34817
-0.0160221
2.35563
-0.0156417
2.36294
-0.0152888
2.37008
-0.0149544
2.37707
-0.0146308
2.38392
-0.0143164
2.39062
-0.0140072
2.39717
-0.0137
2.40358
-0.0133983
2.40984
-0.0131061
2.41598
-0.0128235
2.42198
-0.0125482
2.42786
-0.0122784
2.43362
-0.0120123
2.43925
-0.0117487
2.44475
-0.0114867
2.45014
-0.0112254
2.4554
-0.0109644
2.46054
-0.010703
2.46556
-0.0104418
2.47045
-0.0101803
2.47522
-0.00991988
2.47987
-0.00965851
2.4844
-0.00939599
2.4888
-0.00912527
2.49306
-0.00884405
2.49718
-0.00853784
2.50114
-0.00819857
2.50489
-0.0077845
-0.00725316
0.478759
-0.403067
0.561797
-0.361696
0.642683
-0.332056
0.721154
-0.306503
0.796664
-0.283083
0.868804
-0.262675
0.937555
-0.245365
1.00307
-0.230565
1.06553
-0.217657
1.12509
-0.206193
1.18195
-0.195885
1.23626
-0.186515
1.2882
-0.177913
1.33788
-0.16994
1.38543
-0.162516
1.43097
-0.155561
1.47457
-0.14898
1.51632
-0.14272
1.55633
-0.136779
1.59468
-0.131136
1.63147
-0.125772
1.66676
-0.120671
1.70062
-0.115792
1.73311
-0.111137
1.7643
-0.106702
1.79423
-0.102461
1.82297
-0.0983987
1.85055
-0.0945014
1.87703
-0.0907582
1.90245
-0.0871613
1.92685
-0.0837063
1.95028
-0.0803925
1.97277
-0.0772158
1.99439
-0.074176
2.01515
-0.07127
2.0351
-0.0684931
2.05429
-0.0658426
2.07274
-0.0633115
2.09048
-0.0608941
2.10755
-0.0585882
2.12399
-0.0563877
2.13981
-0.054285
2.15504
-0.0522895
2.16971
-0.0504036
2.18387
-0.0486267
2.19753
-0.0469592
2.21072
-0.0453874
2.22348
-0.0439132
2.23583
-0.042521
2.24778
-0.0411902
2.25936
-0.0399077
2.27056
-0.0386593
2.28141
-0.0374473
2.29191
-0.036275
2.30207
-0.0351457
2.31191
-0.034057
2.32145
-0.0330105
2.33068
-0.0320058
2.33963
-0.0310404
2.34831
-0.0301235
2.35674
-0.0292546
2.36492
-0.0284205
2.37286
-0.0276197
2.38057
-0.0268593
2.38807
-0.026138
2.39536
-0.0254522
2.40246
-0.0248125
2.4094
-0.0242254
2.41619
-0.0236467
2.42281
-0.0230553
2.42928
-0.0224953
2.43562
-0.0219821
2.44184
-0.0215048
2.44793
-0.0210481
2.4539
-0.0205988
2.45975
-0.0201626
2.46548
-0.0197331
2.47108
-0.0193019
2.47656
-0.0188783
2.48193
-0.0184707
2.48719
-0.018077
2.49234
-0.017693
2.49738
-0.0173157
2.50231
-0.0169432
2.50714
-0.0165742
2.51187
-0.0162079
2.51649
-0.0158428
2.52101
-0.0154785
2.52542
-0.0151138
2.52973
-0.01475
2.53394
-0.0143866
2.53805
-0.0140261
2.54206
-0.0136657
2.54597
-0.013305
2.54978
-0.0129333
2.55349
-0.0125475
2.55708
-0.0121263
2.56054
-0.0116596
2.56385
-0.0110939
-0.0104159
1.08135
-0.443546
1.12439
-0.404719
1.17216
-0.379819
1.22288
-0.357213
1.27467
-0.33486
1.32629
-0.314283
1.37701
-0.296073
1.42639
-0.279929
1.47417
-0.265415
1.52021
-0.252228
1.56451
-0.24017
1.60707
-0.229059
1.64792
-0.218751
1.6871
-0.209098
1.72462
-0.200024
1.76055
-0.191476
1.79496
-0.183377
1.82793
-0.175679
1.85955
-0.168378
1.88987
-0.161445
1.91896
-0.154848
1.94687
-0.148569
1.97364
-0.142554
1.99932
-0.136803
2.02393
-0.131307
2.04751
-0.126038
2.07011
-0.120987
2.09175
-0.116144
2.1125
-0.111499
2.13238
-0.107045
2.15145
-0.102776
2.16975
-0.098691
2.18731
-0.0947804
2.20418
-0.0910442
2.22038
-0.0874778
2.23596
-0.084072
2.25094
-0.080827
2.26535
-0.0777316
2.27923
-0.0747742
2.29259
-0.0719586
2.30547
-0.0692739
2.31788
-0.0666994
2.32985
-0.0642596
2.34139
-0.0619467
2.35251
-0.0597548
2.36324
-0.0576945
2.37359
-0.0557354
2.38357
-0.0539042
2.39322
-0.0521756
2.40255
-0.0505218
2.41157
-0.0489318
2.42027
-0.0473737
2.42868
-0.0458635
2.4368
-0.0444061
2.44466
-0.0430065
2.45225
-0.0416578
2.4596
-0.0403648
2.46671
-0.0391276
2.4736
-0.0379361
2.48029
-0.0368126
2.48678
-0.0357529
2.49309
-0.0347285
2.49921
-0.0337419
2.50516
-0.0328101
2.51094
-0.0319254
2.51656
-0.0310716
2.52202
-0.0302707
2.52735
-0.0295553
2.53258
-0.0288796
2.53773
-0.0282079
2.54281
-0.0275761
2.54781
-0.0269776
2.55271
-0.0264086
2.55752
-0.0258573
2.56223
-0.0253041
2.56684
-0.0247746
2.57137
-0.0242577
2.5758
-0.0237334
2.58015
-0.0232203
2.58441
-0.0227295
2.58859
-0.022253
2.59268
-0.0217834
2.59669
-0.0213201
2.60061
-0.0208619
2.60445
-0.0204082
2.6082
-0.019959
2.61187
-0.0195131
2.61547
-0.0190693
2.61898
-0.0186259
2.62242
-0.0181851
2.62578
-0.0177466
2.62907
-0.0173145
2.6323
-0.0168855
2.63545
-0.0164585
2.63854
-0.0160194
2.64156
-0.0155638
2.6445
-0.0150656
2.64735
-0.0145128
2.6501
-0.0138436
-0.0130545
1.72342
-0.453474
1.74173
-0.423021
1.76575
-0.403824
1.79332
-0.384772
1.82324
-0.364765
1.85443
-0.34547
1.88604
-0.327662
1.91744
-0.311323
1.94831
-0.296266
1.97843
-0.282332
2.00766
-0.269394
2.03594
-0.257324
2.06323
-0.246027
2.08951
-0.235374
2.11482
-0.225315
2.13918
-0.21583
2.16265
-0.20683
2.18523
-0.19825
2.20695
-0.190084
2.22782
-0.182313
2.24788
-0.174895
2.26714
-0.167819
2.28562
-0.161028
2.30333
-0.15451
2.3203
-0.148267
2.33654
-0.14228
2.3521
-0.136543
2.36701
-0.131049
2.3813
-0.125786
2.395
-0.12075
2.40816
-0.115928
2.42078
-0.111321
2.43292
-0.106914
2.44458
-0.10271
2.4558
-0.098705
2.46661
-0.0948803
2.47703
-0.0912465
2.48707
-0.0877846
2.49677
-0.0844731
2.50614
-0.0813323
2.51521
-0.078346
2.52397
-0.0754664
2.53246
-0.0727514
2.54066
-0.0701557
2.54856
-0.0676549
2.55616
-0.065295
2.56343
-0.0630104
2.57041
-0.0608904
2.57712
-0.0588815
2.58356
-0.0569689
2.58977
-0.0551496
2.59573
-0.0533378
2.60145
-0.0515982
2.60696
-0.0499229
2.61227
-0.0483237
2.61741
-0.0467972
2.62238
-0.0453472
2.62723
-0.0439736
2.63194
-0.0426512
2.63652
-0.0413998
2.64099
-0.0402202
2.64534
-0.0390817
2.64959
-0.0379957
2.65375
-0.0369721
2.65783
-0.0360004
2.66182
-0.0350608
2.66571
-0.0341699
2.66953
-0.0333717
2.67328
-0.0326283
2.67696
-0.0318904
2.68057
-0.0311816
2.68409
-0.0305018
2.68754
-0.0298575
2.69093
-0.0292376
2.69424
-0.0286198
2.6975
-0.0280352
2.70072
-0.0274707
2.70389
-0.0269084
2.70703
-0.0263586
2.71012
-0.02582
2.71316
-0.0252847
2.71613
-0.0247506
2.71903
-0.0242246
2.72188
-0.0237057
2.72466
-0.0231938
2.7274
-0.0226905
2.73008
-0.0221942
2.73272
-0.0217026
2.7353
-0.0212125
2.73785
-0.0207279
2.74035
-0.0202485
2.74282
-0.0197802
2.74526
-0.0193201
2.74766
-0.0188642
2.75004
-0.0183953
2.75238
-0.0179082
2.75469
-0.017375
2.75696
-0.0167811
2.75918
-0.0160585
-0.0152092
2.28457
-0.449515
2.29104
-0.429479
2.30267
-0.415446
2.31701
-0.399102
2.3335
-0.38124
2.35154
-0.363499
2.3704
-0.346513
2.38951
-0.330425
2.4085
-0.315244
2.42712
-0.30094
2.4452
-0.287462
2.46264
-0.274747
2.47937
-0.262751
2.49541
-0.2514
2.51074
-0.240637
2.52536
-0.230444
2.53931
-0.220763
2.55261
-0.211542
2.56529
-0.202761
2.57738
-0.194387
2.58887
-0.186381
2.59979
-0.178736
2.61017
-0.171403
2.62005
-0.164379
2.62945
-0.157668
2.63842
-0.151248
2.64699
-0.14511
2.65519
-0.139247
2.66305
-0.133643
2.6706
-0.128294
2.67785
-0.123182
2.68484
-0.11831
2.69159
-0.113662
2.69811
-0.109231
2.70441
-0.105007
2.7105
-0.100978
2.71641
-0.0971544
2.72213
-0.0935123
2.72769
-0.0900291
2.73308
-0.086727
2.73832
-0.0835899
2.7434
-0.0805547
2.74834
-0.077692
2.75311
-0.0749309
2.7577
-0.0722475
2.76211
-0.0697146
2.76633
-0.0672286
2.77031
-0.0648786
2.77403
-0.0626084
2.77756
-0.0604982
2.7809
-0.058499
2.78407
-0.0565117
2.78714
-0.0546713
2.7901
-0.0528968
2.793
-0.0512229
2.79584
-0.0496418
2.79863
-0.0481448
2.80139
-0.0467324
2.80411
-0.045373
2.80679
-0.0440844
2.80944
-0.04288
2.81208
-0.0417215
2.8147
-0.0406108
2.81728
-0.0395548
2.81983
-0.0385581
2.82237
-0.0376004
2.82489
-0.0366843
2.82736
-0.0358419
2.82976
-0.035027
2.83207
-0.0341962
2.83428
-0.0333929
2.83641
-0.0326349
2.83848
-0.0319295
2.84051
-0.0312667
2.84251
-0.0306157
2.84447
-0.029999
2.84641
-0.0294082
2.84833
-0.0288229
2.85021
-0.0282459
2.85208
-0.0276827
2.85392
-0.0271301
2.85575
-0.0265821
2.85757
-0.0260436
2.85938
-0.0255117
2.86118
-0.024987
2.86296
-0.0244733
2.86474
-0.0239705
2.86651
-0.0234755
2.86828
-0.0229811
2.87005
-0.0224965
2.87182
-0.0220196
2.8736
-0.0215555
2.87538
-0.021104
2.87718
-0.0206555
2.87898
-0.0201936
2.88078
-0.019712
2.88259
-0.0191879
2.88441
-0.0185978
2.88623
-0.0178786
-0.0170346
2.66131
-0.432946
2.65612
-0.424287
2.65719
-0.4165
2.66197
-0.403884
2.66977
-0.389027
2.68002
-0.373746
2.69205
-0.358532
2.70522
-0.343587
2.71905
-0.329071
2.73321
-0.315084
2.74742
-0.301663
2.76148
-0.288804
2.77525
-0.276508
2.7886
-0.264743
2.80146
-0.253491
2.81379
-0.24276
2.82555
-0.232515
2.83672
-0.222702
2.84726
-0.213296
2.85717
-0.204292
2.86646
-0.19567
2.87515
-0.187419
2.88326
-0.179508
2.89082
-0.171928
2.89783
-0.164679
2.90434
-0.157752
2.91037
-0.151138
2.91595
-0.144828
2.92111
-0.1388
2.92587
-0.133055
2.93026
-0.127572
2.93431
-0.122351
2.93801
-0.117371
2.94141
-0.112628
2.94453
-0.108129
2.94739
-0.10384
2.95001
-0.099772
2.95241
-0.095919
2.95463
-0.0922455
2.95666
-0.0887674
2.95856
-0.0854857
2.96031
-0.0823105
2.96192
-0.0793079
2.96343
-0.0764458
2.96486
-0.0736841
2.96624
-0.0710959
2.96756
-0.0685555
2.96882
-0.0661492
2.97005
-0.0638381
2.9712
-0.0616496
2.97225
-0.0595551
2.97327
-0.05753
2.97425
-0.0556547
2.9752
-0.0538464
2.97616
-0.0521867
2.97715
-0.0506359
2.97817
-0.0491685
2.97922
-0.0477777
2.98029
-0.0464431
2.98138
-0.0451822
2.98251
-0.0440067
2.98365
-0.0428693
2.98481
-0.0417681
2.98597
-0.0407176
2.98713
-0.0397213
2.98829
-0.0387607
2.98944
-0.037837
2.99058
-0.0369754
2.9917
-0.0361435
2.99281
-0.0353095
2.99391
-0.0344903
2.99498
-0.0337033
2.99602
-0.0329694
2.99703
-0.0322798
2.99802
-0.0316086
2.999
-0.0309741
2.99995
-0.030362
3.00088
-0.0297521
3.00179
-0.0291562
3.0027
-0.0285895
3.00362
-0.0280493
3.00456
-0.0275244
3.00553
-0.0270157
3.00654
-0.0265192
3.00758
-0.0260323
3.00866
-0.025552
3.00977
-0.025081
3.01093
-0.0246277
3.01213
-0.0241815
3.01338
-0.0237456
3.01467
-0.0233143
3.016
-0.0228888
3.01737
-0.0224718
3.01877
-0.0220575
3.02022
-0.0216343
3.0217
-0.0211941
3.02324
-0.0207262
3.02484
-0.0202014
3.02652
-0.0195554
-0.0187881
2.85473
-0.406785
2.83884
-0.408385
2.82999
-0.407646
2.82614
-0.400034
2.82628
-0.389162
2.82966
-0.377118
2.8356
-0.364466
2.8435
-0.35148
2.85286
-0.338426
2.8633
-0.325513
2.87451
-0.312862
2.88625
-0.300539
2.89834
-0.28859
2.91065
-0.277035
2.92305
-0.265882
2.93543
-0.255137
2.94771
-0.244785
2.95981
-0.234798
2.97169
-0.225169
2.98331
-0.215903
2.99464
-0.206988
3.00564
-0.198414
3.0163
-0.19016
3.0266
-0.182221
3.03652
-0.174597
3.04606
-0.16728
3.05518
-0.160259
3.06389
-0.153531
3.07218
-0.147085
3.08003
-0.140909
3.08745
-0.134988
3.09442
-0.129317
3.10093
-0.123882
3.107
-0.118688
3.1126
-0.113736
3.11775
-0.108993
3.12245
-0.104469
3.12669
-0.100163
3.13048
-0.0960373
3.13383
-0.0921156
3.13674
-0.0884023
3.13923
-0.0848089
3.14133
-0.0814143
3.14309
-0.0782051
3.14452
-0.0751277
3.14566
-0.0722453
3.1466
-0.069497
3.14739
-0.0669445
3.14803
-0.0644835
3.14857
-0.0621993
3.14907
-0.0600555
3.14949
-0.057944
3.14981
-0.0559741
3.15005
-0.0540939
3.1502
-0.0523321
3.15024
-0.0506734
3.15019
-0.0491182
3.15007
-0.0476677
3.14993
-0.0463014
3.14977
-0.0450254
3.14961
-0.0438464
3.14946
-0.0427212
3.14933
-0.0416466
3.14924
-0.04063
3.14919
-0.039674
3.1492
-0.0387657
3.14926
-0.0378975
3.14936
-0.037084
3.14953
-0.0363093
3.14977
-0.0355478
3.15007
-0.034794
3.15043
-0.0340601
3.15082
-0.0333611
3.15123
-0.0326944
3.15168
-0.0320515
3.15214
-0.0314373
3.15262
-0.030843
3.15313
-0.0302638
3.15368
-0.0297013
3.15425
-0.0291628
3.15485
-0.0286484
3.15548
-0.0281544
3.15615
-0.0276845
3.15686
-0.0272359
3.15763
-0.0268035
3.15846
-0.0263829
3.15936
-0.0259728
3.16031
-0.0255802
3.16133
-0.0251977
3.16241
-0.0248266
3.16355
-0.0244598
3.16476
-0.0240978
3.16603
-0.023743
3.16737
-0.0233931
3.16878
-0.0230421
3.17027
-0.0226856
3.17186
-0.0223225
3.17358
-0.0219224
3.17546
-0.0214331
-0.0208491
2.90597
-0.37632
2.88423
-0.386644
2.86923
-0.392646
2.86009
-0.390884
2.85565
-0.384727
2.85487
-0.376337
2.85698
-0.366568
2.86137
-0.355871
2.86757
-0.34462
2.87517
-0.333113
2.88387
-0.321558
2.89344
-0.310094
2.90366
-0.29881
2.91439
-0.287763
2.92551
-0.27699
2.9369
-0.266518
2.94847
-0.256351
2.96017
-0.246489
2.97194
-0.236934
2.98373
-0.22769
2.9955
-0.218754
3.00722
-0.210123
3.01885
-0.201788
3.03038
-0.193744
3.04178
-0.18599
3.05303
-0.178523
3.06411
-0.171333
3.075
-0.164419
3.08569
-0.157774
3.09618
-0.151389
3.10644
-0.145253
3.11649
-0.139359
3.12631
-0.133699
3.13589
-0.128267
3.14522
-0.123062
3.15429
-0.118067
3.1631
-0.113281
3.17164
-0.108698
3.1799
-0.104295
3.18786
-0.100083
3.19551
-0.0960553
3.20287
-0.0921689
3.20991
-0.0884663
3.21664
-0.0849404
3.22307
-0.0815546
3.22916
-0.0783439
3.23494
-0.0752853
3.24038
-0.0723822
3.2455
-0.0696123
3.25037
-0.0670683
3.25496
-0.0646485
3.25931
-0.062297
3.26343
-0.0600911
3.26731
-0.0579707
3.27091
-0.0559346
3.2742
-0.0539601
3.27716
-0.0520773
3.27979
-0.0503009
3.28211
-0.0486211
3.28412
-0.047038
3.28583
-0.045554
3.28726
-0.0441582
3.28847
-0.0428578
3.28949
-0.0416539
3.29036
-0.0405377
3.29109
-0.0394959
3.29171
-0.0385225
3.29224
-0.0376205
3.29271
-0.0367797
3.29315
-0.0359845
3.29358
-0.0352257
3.29403
-0.034505
3.29449
-0.0338264
3.29498
-0.0331863
3.29551
-0.03258
3.29608
-0.0320059
3.29669
-0.0314575
3.29736
-0.0309331
3.29809
-0.0304327
3.29889
-0.029959
3.29975
-0.0295102
3.30068
-0.0290844
3.30167
-0.028682
3.30274
-0.0283026
3.30388
-0.027942
3.30509
-0.0275968
3.30638
-0.0272646
3.30775
-0.0269478
3.30919
-0.0266384
3.3107
-0.0263398
3.31229
-0.0260499
3.31397
-0.0257734
3.31574
-0.025512
3.3176
-0.0252624
3.31958
-0.0250174
3.32167
-0.024775
3.32389
-0.0245412
3.32626
-0.0242915
3.32883
-0.0240112
-0.0237026
2.84842
-0.342786
2.8216
-0.359825
2.80042
-0.371471
2.78586
-0.376324
2.77705
-0.375911
2.77277
-0.372057
2.7721
-0.365899
2.77435
-0.358114
2.77893
-0.349197
2.78537
-0.339544
2.79327
-0.329456
2.80234
-0.319155
2.81232
-0.308791
2.82304
-0.298472
2.83433
-0.288273
2.84606
-0.278245
2.85814
-0.268422
2.87049
-0.258825
2.88303
-0.249469
2.89572
-0.240366
2.90849
-0.231521
2.92131
-0.222939
2.93415
-0.214619
2.94698
-0.206561
2.95976
-0.198767
2.97248
-0.191234
2.98512
-0.183961
2.99765
-0.176945
3.01006
-0.170183
3.02235
-0.16367
3.0345
-0.157399
3.04651
-0.151363
3.05837
-0.145556
3.07007
-0.139973
3.08162
-0.134609
3.09301
-0.129456
3.10424
-0.12451
3.1153
-0.119762
3.12621
-0.115201
3.13695
-0.110826
3.14752
-0.106631
3.15794
-0.102596
3.16821
-0.0987364
3.17831
-0.0950468
3.18826
-0.0915102
3.19804
-0.0881349
3.20767
-0.084914
3.21713
-0.0818471
3.22644
-0.0789296
3.23555
-0.0761839
3.24448
-0.0735745
3.25326
-0.0710786
3.26187
-0.0687019
3.27031
-0.0664198
3.27861
-0.064228
3.28675
-0.0621064
3.29474
-0.0600639
3.30254
-0.0581077
3.31015
-0.0562323
3.31756
-0.0544462
3.32476
-0.0527577
3.33176
-0.0511557
3.33853
-0.0496289
3.34505
-0.048178
3.35132
-0.046807
3.35733
-0.0455124
3.36309
-0.0442895
3.36861
-0.0431375
3.37388
-0.0420499
3.37891
-0.0410174
3.38372
-0.0400338
3.38831
-0.0391002
3.3927
-0.0382176
3.3969
-0.037384
3.40091
-0.0365965
3.40476
-0.0358538
3.40846
-0.035152
3.41201
-0.0344902
3.41545
-0.0338673
3.41877
-0.0332858
3.422
-0.0327437
3.42516
-0.0322402
3.42825
-0.031774
3.43129
-0.0313447
3.4343
-0.030948
3.43728
-0.030581
3.44025
-0.0302404
3.44323
-0.0299255
3.44622
-0.0296312
3.44924
-0.0293571
3.4523
-0.0291037
3.4554
-0.028876
3.45856
-0.0286751
3.4618
-0.0285006
3.46512
-0.0283423
3.46855
-0.0282
3.47209
-0.0280817
3.47578
-0.0279832
3.47971
-0.0279362
-0.0280302
3.56737
-0.305198
-3.60495
3.52901
-0.321463
3.49308
-0.33554
3.46042
-0.343666
3.43139
-0.346884
3.40593
-0.346599
3.38381
-0.343771
3.36472
-0.339026
3.34836
-0.332843
3.33444
-0.325617
3.32265
-0.317666
3.31273
-0.309235
3.30444
-0.300503
3.29758
-0.291606
3.29196
-0.282645
3.28741
-0.273693
3.28379
-0.264807
3.281
-0.256026
3.27891
-0.247379
3.27745
-0.238894
3.27652
-0.230587
3.27605
-0.222468
3.27599
-0.214551
3.27627
-0.206844
3.27686
-0.199351
3.27771
-0.192076
3.27877
-0.18502
3.28002
-0.178187
3.28141
-0.171577
3.28294
-0.165189
3.28456
-0.15902
3.28626
-0.153064
3.28803
-0.14732
3.28984
-0.141784
3.29169
-0.136452
3.29355
-0.131318
3.29542
-0.12638
3.29729
-0.12163
3.29915
-0.117063
3.30099
-0.112674
3.30282
-0.108457
3.30462
-0.104405
3.3064
-0.100519
3.30815
-0.0967959
3.30986
-0.0932278
3.31154
-0.0898146
3.31318
-0.0865543
3.31477
-0.083444
3.31632
-0.0804819
3.31781
-0.0776716
3.31923
-0.0749965
3.32059
-0.0724391
3.32188
-0.069997
3.32312
-0.0676577
3.3243
-0.065411
3.32543
-0.0632417
3.32652
-0.0611546
3.32757
-0.0591565
3.32858
-0.0572381
3.32954
-0.0554074
3.33045
-0.0536715
3.33131
-0.0520182
3.33212
-0.0504346
3.33286
-0.048922
3.33354
-0.0474836
3.33414
-0.0461192
3.33468
-0.0448238
3.33513
-0.0435933
3.3355
-0.0424248
3.3358
-0.0413108
3.33601
-0.0402465
3.33614
-0.0392306
3.33618
-0.0382623
3.33614
-0.0373397
3.336
-0.0364595
3.33577
-0.0356208
3.33543
-0.0348209
3.335
-0.0340595
3.33447
-0.0333335
3.33383
-0.0326461
3.33308
-0.0319954
3.33222
-0.0313809
3.33124
-0.0308009
3.33016
-0.030258
3.32895
-0.0297468
3.32764
-0.0292678
3.32622
-0.0288181
3.32469
-0.0283989
3.32306
-0.0280047
3.32134
-0.0276338
3.31952
-0.0272902
3.31763
-0.0269787
3.31565
-0.0267016
3.31361
-0.0264589
3.31151
-0.0262416
3.30937
-0.0260633
3.30722
-0.0259275
3.30509
-0.0258504
3.30305
-0.0258957
-0.026284
3.59298
-0.267092
-3.63108
3.55732
-0.285808
3.52365
-0.301872
3.49309
-0.313102
3.46583
-0.319626
3.44172
-0.322488
3.42053
-0.322574
3.402
-0.320501
3.38591
-0.316745
3.37199
-0.311701
3.36003
-0.305699
3.34979
-0.298997
3.34109
-0.291796
3.33374
-0.284252
3.32758
-0.276482
3.32247
-0.26858
3.31828
-0.260617
3.31491
-0.252648
3.31225
-0.244717
3.31022
-0.236859
3.30874
-0.229101
3.30774
-0.221464
3.30717
-0.213968
3.30696
-0.206627
3.30706
-0.199452
3.30744
-0.192452
3.30806
-0.185634
3.30889
-0.179004
3.30988
-0.172565
3.31101
-0.166321
3.31227
-0.160271
3.31362
-0.154414
3.31505
-0.14875
3.31654
-0.143277
3.31809
-0.137993
3.31966
-0.132895
3.32126
-0.127981
3.32288
-0.123245
3.3245
-0.118684
3.32611
-0.114294
3.32772
-0.110071
3.32933
-0.10601
3.33091
-0.102109
3.33248
-0.0983659
3.33402
-0.0947754
3.33554
-0.091336
3.33703
-0.088046
3.33849
-0.0849025
3.3399
-0.081903
3.34127
-0.0790456
3.3426
-0.0763212
3.34387
-0.0737182
3.3451
-0.0712253
3.34627
-0.0688306
3.34738
-0.0665298
3.34846
-0.0643252
3.34952
-0.0622082
3.35053
-0.060172
3.35152
-0.0582283
3.35248
-0.0563719
3.35341
-0.0546042
3.35431
-0.05292
3.35518
-0.0513032
3.35602
-0.0497601
3.35683
-0.0482927
3.3576
-0.0468924
3.35833
-0.0455604
3.35903
-0.0442945
3.3597
-0.0430899
3.36033
-0.0419432
3.36093
-0.0408496
3.36151
-0.039806
3.36205
-0.0388097
3.36257
-0.0378586
3.36306
-0.0369504
3.36352
-0.0360841
3.36396
-0.0352578
3.36437
-0.0344689
3.36475
-0.0337164
3.3651
-0.0329994
3.36543
-0.03232
3.36572
-0.0316781
3.36599
-0.0310703
3.36623
-0.0304936
3.36643
-0.0299489
3.36659
-0.0294355
3.36673
-0.028951
3.36682
-0.0284946
3.36688
-0.0280635
3.36691
-0.027662
3.3669
-0.0272846
3.36686
-0.0269365
3.36678
-0.0266187
3.36665
-0.026336
3.3665
-0.0260908
3.36632
-0.0258796
3.36611
-0.025716
3.36588
-0.0256165
3.36561
-0.0256306
-0.0258638
3.60965
-0.230312
-3.64643
3.57597
-0.252122
3.54446
-0.270364
3.51554
-0.284176
3.48942
-0.293509
3.46606
-0.299126
3.44531
-0.301823
3.427
-0.302193
3.41095
-0.300696
3.39697
-0.297717
3.38485
-0.293583
3.37441
-0.288557
3.36547
-0.282854
3.35786
-0.27664
3.35143
-0.270051
3.34604
-0.263194
3.34158
-0.256153
3.33793
-0.248998
3.335
-0.241784
3.3327
-0.234557
3.33096
-0.227353
3.3297
-0.220203
3.32887
-0.213134
3.32841
-0.206164
3.32827
-0.199313
3.32842
-0.192596
3.32881
-0.186021
3.3294
-0.179599
3.33018
-0.173338
3.3311
-0.167243
3.33215
-0.161319
3.33331
-0.155567
3.33455
-0.149989
3.33586
-0.144585
3.33722
-0.139356
3.33862
-0.134299
3.34006
-0.129415
3.34151
-0.124699
3.34297
-0.12015
3.34444
-0.115764
3.34591
-0.11154
3.34737
-0.107472
3.34882
-0.103561
3.35026
-0.0998026
3.35167
-0.0961941
3.35307
-0.092733
3.35444
-0.0894178
3.35578
-0.0862457
3.35709
-0.0832122
3.35836
-0.0803144
3.35958
-0.0775483
3.36076
-0.0749029
3.36191
-0.0723691
3.36301
-0.0699345
3.36407
-0.0675974
3.36511
-0.0653589
3.3661
-0.0632072
3.36707
-0.0611435
3.36801
-0.0591671
3.36892
-0.0572815
3.3698
-0.0554805
3.37063
-0.0537553
3.37144
-0.0521121
3.37222
-0.0505439
3.37298
-0.0490472
3.37371
-0.0476238
3.37442
-0.0462679
3.3751
-0.0449768
3.37575
-0.043746
3.37638
-0.0425733
3.37699
-0.0414558
3.37757
-0.0403888
3.37813
-0.03937
3.37867
-0.0383979
3.37919
-0.0374708
3.37969
-0.0365861
3.38017
-0.035741
3.38064
-0.0349347
3.38109
-0.0341673
3.38153
-0.0334385
3.38195
-0.0327482
3.38237
-0.0320957
3.38278
-0.0314768
3.38317
-0.0308897
3.38356
-0.0303356
3.38394
-0.0298133
3.38431
-0.0293212
3.38467
-0.0288577
3.38503
-0.0284219
3.38538
-0.0280148
3.38573
-0.0276353
3.38608
-0.0272858
3.38643
-0.0269687
3.38678
-0.0266863
3.38713
-0.026442
3.38749
-0.0262362
3.38785
-0.0260792
3.38821
-0.0259824
3.38855
-0.0259692
-0.0260585
3.61823
-0.195437
-3.6531
3.58637
-0.220263
3.55679
-0.240778
3.52952
-0.256909
3.50476
-0.268742
3.4825
-0.276863
3.46263
-0.281955
3.44501
-0.284577
3.42949
-0.285172
3.41589
-0.284115
3.40403
-0.281728
3.39376
-0.278281
3.3849
-0.273995
3.37731
-0.269048
3.37085
-0.263588
3.36539
-0.257734
3.36082
-0.251584
3.35705
-0.245218
3.35397
-0.238702
3.3515
-0.232091
3.34959
-0.225431
3.34815
-0.218761
3.34713
-0.212111
3.34648
-0.205511
3.34615
-0.198981
3.3461
-0.192544
3.3463
-0.186213
3.3467
-0.180001
3.34729
-0.17392
3.34803
-0.167979
3.34889
-0.162183
3.34987
-0.15654
3.35093
-0.151051
3.35207
-0.145721
3.35326
-0.14055
3.35451
-0.13554
3.35578
-0.13069
3.35708
-0.126001
3.3584
-0.121468
3.35972
-0.117092
3.36105
-0.112871
3.36238
-0.108803
3.3637
-0.104885
3.36501
-0.101115
3.3663
-0.0974913
3.36758
-0.0940122
3.36884
-0.0906753
3.37007
-0.0874788
3.37127
-0.0844146
3.37243
-0.0814852
3.37357
-0.0786839
3.37465
-0.0759914
3.37569
-0.0734114
3.3767
-0.0709447
3.37767
-0.068575
3.37861
-0.0663005
3.37953
-0.0641246
3.38042
-0.0620377
3.38129
-0.0600367
3.38213
-0.0581227
3.38294
-0.0562939
3.38373
-0.0545436
3.38449
-0.0528723
3.38522
-0.0512776
3.38593
-0.0497564
3.38661
-0.0483071
3.38727
-0.0469258
3.3879
-0.0456098
3.38851
-0.044355
3.38909
-0.0431594
3.38966
-0.0420195
3.3902
-0.0409318
3.39072
-0.0398937
3.39123
-0.0389022
3.39171
-0.0379578
3.39218
-0.0370568
3.39264
-0.0361965
3.39308
-0.0353783
3.39351
-0.0346
3.39393
-0.0338596
3.39434
-0.0331564
3.39474
-0.032491
3.39512
-0.0318626
3.3955
-0.0312693
3.39587
-0.0307107
3.39625
-0.0301843
3.39661
-0.0296885
3.39698
-0.029222
3.39734
-0.0287841
3.3977
-0.0283756
3.39806
-0.0279967
3.39842
-0.0276492
3.39879
-0.0273353
3.39916
-0.0270574
3.39954
-0.026818
3.39992
-0.0266197