/*--------------------------------*- C++ -*----------------------------------*\
  =========                 |
  \\      /  F ield         | OpenFOAM: The Open Source CFD Toolbox
   \\    /   O peration     | Website:  https://openfoam.org
    \\  /    A nd           | Version:  8
     \\/     M anipulation  |
\*---------------------------------------------------------------------------*/
FoamFile
{
    version     2.0;
    format      ascii;
    class       volScalarField;
    location    "1";
    object      N;
}
// * * * * * * * * * * * * * * * * * * * * * * * * * * * * * * * * * * * * * //

dimensions      [0 -3 0 0 0 0 0];

internalField   nonuniform List<scalar> 
200
(
9.4344002e+11
1.3588489e+08
10926.599
0.93004044
0.10006182
0.10000117
0.10000124
0.10000128
0.10000131
0.10000132
0.10000133
0.10000134
0.10000134
0.10000135
0.10000135
0.10000135
0.10000136
0.10000136
0.10000136
0.10000136
0.10000136
0.10000136
0.10000136
0.10000135
0.10000135
0.10000135
0.10000135
0.10000135
0.10000135
0.10000134
0.10000134
0.10000134
0.10000133
0.10000133
0.10000133
0.10000132
0.10000132
0.10000131
0.10000132
0.1000013
0.10000131
0.1000013
0.10000131
0.10000129
0.10000131
0.10000129
0.1000013
0.10000129
0.1000013
0.10000128
0.10000131
0.10000128
0.10000131
0.10000128
0.10000131
0.10000128
0.10000131
0.10000127
0.10000131
0.10000127
0.10000131
0.10000127
0.10000132
0.10000126
0.10000132
0.10000125
0.10000131
0.10000124
0.10000131
0.10000123
0.10000131
0.10000122
0.1000013
0.10000121
0.1000013
0.10000119
0.10000129
0.10000118
0.10000128
0.10000116
0.10000128
0.10000114
0.10000127
0.10000113
0.10000127
0.10000111
0.10000126
0.1000011
0.10000126
0.10000108
0.10000125
0.10000106
0.10000125
0.10000105
0.10000125
0.10000103
0.10000124
0.10000102
0.10000124
0.100001
0.10000124
0.10000098
0.10000124
0.10000097
0.10000123
0.10000095
0.10000123
0.10000093
0.10000122
0.10000091
0.10000122
0.10000089
0.10000121
0.10000086
0.1000012
0.10000084
0.10000119
0.10000082
0.10000118
0.10000079
0.10000118
0.10000077
0.10000117
0.10000074
0.10000116
0.10000071
0.10000114
0.10000069
0.10000113
0.10000066
0.10000112
0.10000063
0.10000111
0.1000006
0.1000011
0.10000058
0.10000108
0.10000056
0.10000107
0.10000054
0.10000104
0.10000052
0.10000102
0.1000005
0.100001
0.10000049
0.10000099
0.10000046
0.10000097
0.10000045
0.10000094
0.10000045
0.10000092
0.10000042
0.10000087
0.10000042
0.10000083
0.10000042
0.1000008
0.10000041
0.10000077
0.10000042
0.10000073
0.1000004
0.10000069
0.1000004
0.10000068
0.10000037
0.10000065
0.10000036
0.10000062
0.10000034
0.10000056
0.10000036
0.10000052
0.10000035
0.10000048
0.10000034
0.10000042
0.10000036
0.10000035
0.10000035
0.10000028
0.10000039
0.10000019
0.10000041
0.10000012
0.10000045
0.10000003
0.10000047
0.099999937
0.1000005
0.09999991
0.10000056
0.099999691
0.10000081
0.099999456
0.10000094
0.099998905
0.099999141
)
;

boundaryField
{
    left
    {
        type            zeroGradient;
    }
    right
    {
        type            zeroGradient;
    }
    walls
    {
        type            zeroGradient;
    }
    centreline
    {
        type            zeroGradient;
    }
    frontAndBack
    {
        type            zeroGradient;
    }
}


// ************************************************************************* //
