/*--------------------------------*- C++ -*----------------------------------*\
  =========                 |
  \\      /  F ield         | OpenFOAM: The Open Source CFD Toolbox
   \\    /   O peration     | Website:  https://openfoam.org
    \\  /    A nd           | Version:  8
     \\/     M anipulation  |
\*---------------------------------------------------------------------------*/
FoamFile
{
    version     2.0;
    format      ascii;
    class       volScalarField;
    location    "1";
    object      p;
}
// * * * * * * * * * * * * * * * * * * * * * * * * * * * * * * * * * * * * * //

dimensions      [1 -1 -2 0 0 0 0];

internalField   nonuniform List<scalar> 
200
(
101325.85
101325.85
101325.85
101325.85
101325.85
101325.85
101325.85
101325.85
101325.85
101325.85
101325.85
101325.85
101325.85
101325.85
101325.85
101325.85
101325.85
101325.85
101325.85
101325.85
101325.85
101325.85
101325.85
101325.85
101325.85
101325.85
101325.85
101325.84
101325.84
101325.84
101325.84
101325.84
101325.84
101325.84
101325.84
101325.84
101325.84
101325.84
101325.84
101325.83
101325.84
101325.83
101325.84
101325.83
101325.84
101325.82
101325.84
101325.82
101325.84
101325.82
101325.84
101325.81
101325.84
101325.81
101325.84
101325.8
101325.84
101325.8
101325.84
101325.79
101325.85
101325.79
101325.85
101325.78
101325.85
101325.78
101325.85
101325.77
101325.85
101325.76
101325.85
101325.75
101325.85
101325.75
101325.85
101325.74
101325.86
101325.73
101325.86
101325.72
101325.86
101325.71
101325.86
101325.7
101325.86
101325.69
101325.87
101325.68
101325.87
101325.67
101325.87
101325.66
101325.87
101325.64
101325.88
101325.63
101325.88
101325.62
101325.88
101325.6
101325.88
101325.59
101325.89
101325.57
101325.89
101325.56
101325.89
101325.54
101325.9
101325.53
101325.9
101325.51
101325.9
101325.49
101325.9
101325.47
101325.91
101325.46
101325.91
101325.44
101325.91
101325.42
101325.91
101325.4
101325.92
101325.38
101325.92
101325.36
101325.92
101325.34
101325.92
101325.32
101325.92
101325.3
101325.92
101325.28
101325.92
101325.26
101325.92
101325.24
101325.92
101325.21
101325.91
101325.19
101325.91
101325.17
101325.9
101325.15
101325.9
101325.13
101325.89
101325.11
101325.88
101325.09
101325.87
101325.07
101325.86
101325.06
101325.85
101325.04
101325.84
101325.02
101325.82
101325.01
101325.8
101324.99
101325.79
101324.97
101325.77
101324.96
101325.76
101324.94
101325.74
101324.92
101325.73
101324.89
101325.72
101324.87
101325.71
101324.83
101325.71
101324.8
101325.71
101324.76
101325.71
101324.72
101325.71
101324.69
101325.71
101324.66
101325.69
101324.64
101325.66
101324.65
101325.59
101324.69
101325.48
101324.79
101325.3
101324.96
)
;

boundaryField
{
    left
    {
        type            zeroGradient;
    }
    right
    {
        type            zeroGradient;
    }
    walls
    {
        type            zeroGradient;
    }
    centreline
    {
        type            fixedValue;
        value           uniform 101325;
    }
    frontAndBack
    {
        type            zeroGradient;
    }
}


// ************************************************************************* //
