/*--------------------------------*- C++ -*----------------------------------*\
  =========                 |
  \\      /  F ield         | OpenFOAM: The Open Source CFD Toolbox
   \\    /   O peration     | Website:  https://openfoam.org
    \\  /    A nd           | Version:  8
     \\/     M anipulation  |
\*---------------------------------------------------------------------------*/
FoamFile
{
    version     2.0;
    format      ascii;
    class       surfaceScalarField;
    location    "1";
    object      phi;
}
// * * * * * * * * * * * * * * * * * * * * * * * * * * * * * * * * * * * * * //

dimensions      [1 0 -1 0 0 0 0];

internalField   nonuniform List<scalar> 
199
(
-1.1702245e-06
-2.0327601e-06
-2.891797e-06
-3.7655333e-06
-4.6499926e-06
-5.5464436e-06
-6.4582545e-06
-7.3833367e-06
-8.3259834e-06
-9.2844589e-06
-1.0261264e-05
-1.1256268e-05
-1.2269912e-05
-1.3303316e-05
-1.435516e-05
-1.5427635e-05
-1.6517736e-05
-1.7628812e-05
-1.8755738e-05
-1.9903793e-05
-2.1065116e-05
-2.2247518e-05
-2.3442499e-05
-2.4653781e-05
-2.5894354e-05
-2.7108604e-05
-2.84519e-05
-2.9571383e-05
-3.1170192e-05
-3.1918572e-05
-3.4014398e-05
-3.3822232e-05
-3.6405407e-05
-3.7599182e-05
-3.8606693e-05
-3.9817188e-05
-4.1207036e-05
-4.2519293e-05
-4.3925476e-05
-4.5258031e-05
-4.6669927e-05
-4.7998362e-05
-4.941071e-05
-5.0748722e-05
-5.2178852e-05
-5.3541249e-05
-5.499623e-05
-5.6385211e-05
-5.7865439e-05
-5.928191e-05
-6.0788527e-05
-6.2236914e-05
-6.3776117e-05
-6.5264164e-05
-6.6843819e-05
-6.8378914e-05
-7.0005069e-05
-7.1592461e-05
-7.3269477e-05
-7.4913519e-05
-7.6645613e-05
-7.8351041e-05
-8.0142953e-05
-8.1915152e-05
-8.3771827e-05
-8.5616246e-05
-8.7542079e-05
-8.9463475e-05
-9.1461812e-05
-9.3463935e-05
-9.5537175e-05
-9.7623e-05
-9.9773072e-05
-0.00010194519
-0.00010417394
-0.00010643479
-0.00010874408
-0.00011109594
-0.00011348744
-0.00011593227
-0.00011840714
-0.00012094635
-0.00012350476
-0.00012613876
-0.00012877927
-0.00013150684
-0.00013422567
-0.00013704309
-0.0001398332
-0.00014273326
-0.00014558345
-0.00014855439
-0.00015144844
-0.00015447321
-0.00015738943
-0.00016044524
-0.00016335669
-0.0001664156
-0.00016929119
-0.00017232166
-0.00017512844
-0.0001780983
-0.00018080479
-0.00018368538
-0.0001862658
-0.00018903673
-0.00019147542
-0.00019412915
-0.00019642431
-0.00019896933
-0.00020113499
-0.00020359645
-0.00020566171
-0.00020807895
-0.00021008417
-0.00021250524
-0.00021449571
-0.00021696972
-0.0002189875
-0.00022155569
-0.00022363039
-0.0002263163
-0.00022845443
-0.00023125237
-0.00023342438
-0.00023628514
-0.00023840943
-0.00024122356
-0.00024314954
-0.00024573254
-0.00024723057
-0.00024932148
-0.00025009434
-0.00025138483
-0.00025111842
-0.0002513273
-0.00024978889
-0.00024877921
-0.00024594452
-0.0002438457
-0.00023999822
-0.00023726053
-0.00023298221
-0.00023028726
-0.00022628582
-0.00022429795
-0.00022111108
-0.00022017216
-0.0002179093
-0.00021787511
-0.0002161968
-0.00021656979
-0.00021496853
-0.00021526622
-0.00021345781
-0.00021352612
-0.00021162554
-0.00021162353
-0.00020996629
-0.00021007168
-0.000208908
-0.00020908517
-0.00020848373
-0.00020853448
-0.00020851762
-0.00020824609
-0.00020887699
-0.00020810972
-0.00020940861
-0.00020792373
-0.00020980048
-0.00020736925
-0.00020968368
-0.0002061943
-0.00020880819
-0.00020433369
-0.00020708116
-0.00020192487
-0.00020456716
-0.000199342
-0.00020149145
-0.00019718395
-0.0001981517
-0.00019615604
-0.00019475931
-0.00019690558
-0.00019128932
-0.00019986645
-0.00018740012
-0.00020517833
-0.00018253928
-0.00021286214
-0.00017637691
-0.00022333245
-0.00016917199
-0.00023757073
-0.00016151473
-0.00025611831
-0.00015490344
)
;

boundaryField
{
    left
    {
        type            calculated;
        value           uniform 0;
    }
    right
    {
        type            calculated;
        value           uniform 0;
    }
    walls
    {
        type            calculated;
        value           uniform 0;
    }
    centreline
    {
        type            calculated;
        value           uniform -0.00027762892;
    }
    frontAndBack
    {
        type            calculated;
        value           uniform 0;
    }
}


// ************************************************************************* //
