/*--------------------------------*- C++ -*----------------------------------*\
  =========                 |
  \\      /  F ield         | OpenFOAM: The Open Source CFD Toolbox
   \\    /   O peration     | Website:  https://openfoam.org
    \\  /    A nd           | Version:  8
     \\/     M anipulation  |
\*---------------------------------------------------------------------------*/
FoamFile
{
    version     2.0;
    format      ascii;
    class       volScalarField;
    location    "1";
    object      T;
}
// * * * * * * * * * * * * * * * * * * * * * * * * * * * * * * * * * * * * * //

dimensions      [0 0 0 1 0 0 0];

internalField   nonuniform List<scalar> 
200
(
275.79092
370.36147
372.96453
372.99935
372.99885
372.99835
372.99806
372.99789
372.9978
372.99774
372.9977
372.99767
372.99765
372.99763
372.99761
372.9976
372.99759
372.99758
372.99758
372.99758
372.99758
372.99758
372.99759
372.99759
372.99759
372.9976
372.9976
372.99761
372.99762
372.99763
372.99764
372.99765
372.99766
372.99767
372.99768
372.9977
372.99771
372.99772
372.99773
372.99774
372.99775
372.99776
372.99776
372.99777
372.99777
372.99777
372.99777
372.99777
372.99777
372.99777
372.99777
372.99777
372.99776
372.99776
372.99776
372.99775
372.99775
372.99775
372.99775
372.99774
372.99774
372.99774
372.99774
372.99774
372.99774
372.99775
372.99775
372.99776
372.99777
372.99777
372.99779
372.9978
372.99781
372.99782
372.99784
372.99785
372.99787
372.99788
372.9979
372.99792
372.99794
372.99795
372.99797
372.99798
372.998
372.99801
372.99803
372.99804
372.99805
372.99806
372.99808
372.99808
372.9981
372.9981
372.99812
372.99812
372.99814
372.99814
372.99815
372.99815
372.99817
372.99817
372.99819
372.99819
372.99821
372.99821
372.99824
372.99823
372.99827
372.99825
372.9983
372.99828
372.99834
372.99831
372.99838
372.99835
372.99842
372.99838
372.99846
372.99842
372.9985
372.99846
372.99854
372.9985
372.99858
372.99855
372.99863
372.9986
372.99867
372.99865
372.99871
372.9987
372.99875
372.99874
372.9988
372.99878
372.99885
372.9988
372.99888
372.99882
372.99895
372.99884
372.99901
372.99883
372.99905
372.99884
372.99907
372.99889
372.9991
372.9989
372.99917
372.99885
372.9992
372.99894
372.99932
372.99889
372.9994
372.99886
372.99945
372.99891
372.99947
372.99885
372.99952
372.99895
372.99959
372.99893
372.99949
372.99906
372.99948
372.99911
372.99948
372.99923
372.99956
372.99913
372.99957
372.99921
372.9996
372.9993
372.99965
372.99926
372.99973
372.99941
372.99973
372.99948
372.99969
372.99971
372.99947
372.99998
372.99912
373.00057
372.9986
373.0013
372.99757
373.00218
372.99706
373.00256
372.99629
373.00376
372.99571
373.00208
)
;

boundaryField
{
    left
    {
        type            zeroGradient;
    }
    right
    {
        type            zeroGradient;
    }
    walls
    {
        type            fixedValue;
        value           uniform 372;
    }
    centreline
    {
        type            fixedValue;
        value           uniform 373;
    }
    frontAndBack
    {
        type            zeroGradient;
    }
}


// ************************************************************************* //
