/*--------------------------------*- C++ -*----------------------------------*\
  =========                 |
  \\      /  F ield         | OpenFOAM: The Open Source CFD Toolbox
   \\    /   O peration     | Website:  https://openfoam.org
    \\  /    A nd           | Version:  8
     \\/     M anipulation  |
\*---------------------------------------------------------------------------*/
FoamFile
{
    version     2.0;
    format      ascii;
    class       volVectorField;
    location    "1";
    object      U;
}
// * * * * * * * * * * * * * * * * * * * * * * * * * * * * * * * * * * * * * //

dimensions      [0 1 -1 0 0 0 0];

internalField   nonuniform List<vector> 
200
(
(0 1.3389569e-05 0)
(0 -1.4312838e-05 0)
(0 1.2104275e-05 0)
(0 -1.4223442e-05 0)
(0 1.1167285e-05 0)
(0 -1.5475547e-05 0)
(0 1.131357e-05 0)
(0 -1.7317553e-05 0)
(0 1.1656869e-05 0)
(0 -1.9203972e-05 0)
(0 1.1852685e-05 0)
(0 -2.0920604e-05 0)
(0 1.1779322e-05 0)
(0 -2.2423367e-05 0)
(0 1.1442237e-05 0)
(0 -2.3757402e-05 0)
(0 1.0917497e-05 0)
(0 -2.5033935e-05 0)
(0 1.0368096e-05 0)
(0 -2.6491355e-05 0)
(0 1.01594e-05 0)
(0 -2.8680441e-05 0)
(0 1.113458e-05 0)
(0 -3.2861208e-05 0)
(0 1.5141378e-05 0)
(0 -4.1644862e-05 0)
(0 2.5677824e-05 0)
(0 -5.94579e-05 0)
(0 4.7969842e-05 0)
(0 -9.2136561e-05 0)
(0 8.8222782e-05 0)
(0 -0.00014600809 0)
(0 0.00015172143 0)
(0 -0.00022431013 0)
(0 0.00024223823 0)
(0 -0.00033257063 0)
(0 0.00036572524 0)
(0 -0.00047679459 0)
(0 0.00052765748 0)
(0 -0.00066240523 0)
(0 0.00073373221 0)
(0 -0.00089501076 0)
(0 0.000989672 0)
(0 -0.0011803401 0)
(0 0.0013012322 0)
(0 -0.0015242586 0)
(0 0.0016743154 0)
(0 -0.0019327406 0)
(0 0.002114941 0)
(0 -0.0024118554 0)
(0 0.0026292284 0)
(0 -0.0029677708 0)
(0 0.0032233799 0)
(0 -0.0036067353 0)
(0 0.003903667 0)
(0 -0.0043350684 0)
(0 0.0046764321 0)
(0 -0.00515916 0)
(0 0.0055480922 0)
(0 -0.0060854718 0)
(0 0.0065251385 0)
(0 -0.0071205382 0)
(0 0.0076141344 0)
(0 -0.0082709673 0)
(0 0.0088217126 0)
(0 -0.0095434326 0)
(0 0.010154568 0)
(0 -0.010944663 0)
(0 0.011619444 0)
(0 -0.012481424 0)
(0 0.013223111 0)
(0 -0.014160498 0)
(0 0.014972348 0)
(0 -0.015988667 0)
(0 0.016873925 0)
(0 -0.017972692 0)
(0 0.018934587 0)
(0 -0.020119305 0)
(0 0.021161045 0)
(0 -0.022435202 0)
(0 0.023559967 0)
(0 -0.024927029 0)
(0 0.026137976 0)
(0 -0.02760138 0)
(0 0.028901627 0)
(0 -0.030464775 0)
(0 0.031857403 0)
(0 -0.03352364 0)
(0 0.035011678 0)
(0 -0.036784278 0)
(0 0.038370694 0)
(0 -0.040252834 0)
(0 0.041940528 0)
(0 -0.043935261 0)
(0 0.045727053 0)
(0 -0.047837286 0)
(0 0.04973591 0)
(0 -0.051964377 0)
(0 0.05397248 0)
(0 -0.056321728 0)
(0 0.058441864 0)
(0 -0.060914239 0)
(0 0.063148871 0)
(0 -0.065746518 0)
(0 0.068098007 0)
(0 -0.070822873 0)
(0 0.073293472 0)
(0 -0.076147315 0)
(0 0.078739132 0)
(0 -0.081723537 0)
(0 0.084438505 0)
(0 -0.087554895 0)
(0 0.090394716 0)
(0 -0.093644352 0)
(0 0.096610454 0)
(0 -0.099994436 0)
(0 0.10308792 0)
(0 -0.10660716 0)
(0 0.10982878 0)
(0 -0.11348397 0)
(0 0.11683409 0)
(0 -0.12062567 0)
(0 0.12410429 0)
(0 -0.12803238 0)
(0 0.13163912 0)
(0 -0.13570345 0)
(0 0.13943765 0)
(0 -0.14363742 0)
(0 0.14749816 0)
(0 -0.15183196 0)
(0 0.15581815 0)
(0 -0.16028378 0)
(0 0.16439432 0)
(0 -0.16898861 0)
(0 0.17322238 0)
(0 -0.17794115 0)
(0 0.18229704 0)
(0 -0.1871351 0)
(0 0.19161175 0)
(0 -0.19656321 0)
(0 0.20115855 0)
(0 -0.20621726 0)
(0 0.21092798 0)
(0 -0.216088 0)
(0 0.22090908 0)
(0 -0.22616498 0)
(0 0.23108958 0)
(0 -0.23643629 0)
(0 0.24145613 0)
(0 -0.2468883 0)
(0 0.25199454 0)
(0 -0.25750585 0)
(0 0.26268976 0)
(0 -0.26827256 0)
(0 0.27352589 0)
(0 -0.27917157 0)
(0 0.28448628 0)
(0 -0.29018619 0)
(0 0.29555424 0)
(0 -0.30130059 0)
(0 0.30671415 0)
(0 -0.3125005 0)
(0 0.31795291 0)
(0 -0.32377455 0)
(0 0.32926132 0)
(0 -0.33511588 0)
(0 0.34063561 0)
(0 -0.34652395 0)
(0 0.35207908 0)
(0 -0.35800607 0)
(0 0.36360366 0)
(0 -0.36957864 0)
(0 0.37523097 0)
(0 -0.38126799 0)
(0 0.38699257 0)
(0 -0.39311041 0)
(0 0.39892944 0)
(0 -0.4051509 0)
(0 0.41108991 0)
(0 -0.41744043 0)
(0 0.42352599 0)
(0 -0.43003096 0)
(0 0.43628695 0)
(0 -0.44296742 0)
(0 0.44940959 0)
(0 -0.45627575 0)
(0 0.46290411 0)
(0 -0.46994607 0)
(0 0.47673468 0)
(0 -0.48391046 0)
(0 0.49079446 0)
(0 -0.49801517 0)
(0 0.50487503 0)
(0 -0.51198813 0)
(0 0.51863148 0)
(0 -0.52540256 0)
(0 0.53154409 0)
(0 -0.53763701 0)
(0 0.54287924 0)
(0 -0.54784134 0)
)
;

boundaryField
{
    left
    {
        type            noSlip;
    }
    right
    {
        type            noSlip;
    }
    walls
    {
        type            noSlip;
    }
    centreline
    {
        type            noSlip;
    }
    frontAndBack
    {
        type            noSlip;
    }
}


// ************************************************************************* //
