/*--------------------------------*- C++ -*----------------------------------*\
  =========                 |
  \\      /  F ield         | OpenFOAM: The Open Source CFD Toolbox
   \\    /   O peration     | Website:  https://openfoam.org
    \\  /    A nd           | Version:  8
     \\/     M anipulation  |
\*---------------------------------------------------------------------------*/
FoamFile
{
    version     2.0;
    format      ascii;
    class       surfaceScalarField;
    location    "0.2";
    object      phi;
}
// * * * * * * * * * * * * * * * * * * * * * * * * * * * * * * * * * * * * * //

dimensions      [1 0 -1 0 0 0 0];

internalField   nonuniform List<scalar> 
4780
(
-5.9006138e-10
-3.6318906e-05
1.6738669e-13
-1.3445117e-10
-3.6320402e-05
7.2725903e-14
-1.7236185e-11
-3.6319801e-05
-1.9383413e-14
-2.8042465e-11
-3.6319724e-05
5.8848845e-14
-2.2647971e-13
-3.6319714e-05
4.3447679e-14
2.7956111e-11
-3.6319713e-05
-1.7578499e-13
1.7915269e-11
-3.6319722e-05
-3.3185486e-13
1.3565192e-10
-3.6319798e-05
-1.929381e-13
5.9091257e-10
-3.6320402e-05
1.3723303e-13
-3.6318911e-05
4.4197232e-13
-5.9411372e-10
-3.9506687e-05
1.7450078e-13
-1.9872725e-10
-3.9509623e-05
7.384597e-14
-3.3799031e-11
-3.9508528e-05
-2.2539628e-14
-4.0635201e-11
-3.950833e-05
5.3420938e-14
-2.2626117e-13
-3.950832e-05
4.3730595e-14
4.0579304e-11
-3.9508318e-05
-1.7241278e-13
3.4557588e-11
-3.9508326e-05
-3.2862116e-13
1.999951e-10
-3.9508523e-05
-1.8883407e-13
5.9502341e-10
-3.9509622e-05
1.3942001e-13
-3.9506696e-05
4.4262994e-13
-2.697507e-10
-3.9698168e-05
1.7688742e-13
-2.1158104e-10
-3.9701877e-05
7.4846548e-14
-3.7646914e-11
-3.9700638e-05
-2.3117656e-14
-4.3534156e-11
-3.9700311e-05
5.2707728e-14
-2.3041759e-13
-3.9700302e-05
4.4648599e-14
4.3478528e-11
-3.9700299e-05
-1.7441177e-13
3.8414549e-11
-3.9700304e-05
-3.3385136e-13
2.1285725e-10
-3.9700631e-05
-1.9056766e-13
2.7066264e-10
-3.9701876e-05
1.4116896e-13
-3.9698183e-05
4.4821022e-13
-2.7219397e-10
-3.9736437e-05
1.7924928e-13
-2.1268224e-10
-3.9740909e-05
7.5883818e-14
-3.8626708e-11
-3.9739532e-05
-2.3484391e-14
-4.4415762e-11
-3.9739074e-05
5.319021e-14
-2.3325286e-13
-3.9739068e-05
4.5350738e-14
4.4360982e-11
-3.9739065e-05
-1.7648308e-13
3.9404332e-11
-3.9739065e-05
-3.3787749e-13
2.1397032e-10
-3.9739523e-05
-1.9269983e-13
2.7311232e-10
-3.9740908e-05
1.4282549e-13
-3.9736457e-05
4.5390329e-13
-2.1027241e-10
-3.9769905e-05
1.8178228e-13
-2.1232828e-10
-3.9774996e-05
7.688153e-14
-3.8948901e-11
-3.9773553e-05
-2.3848551e-14
-4.4948068e-11
-3.9772963e-05
5.35051e-14
-2.3515681e-13
-3.9772963e-05
4.5857911e-14
4.4895283e-11
-3.9772959e-05
-1.783452e-13
3.9737548e-11
-3.9772952e-05
-3.4174801e-13
2.1362828e-10
-3.9773541e-05
-1.9471012e-13
2.1119364e-10
-3.9774995e-05
1.4426416e-13
-3.9769929e-05
4.5918937e-13
-2.4730844e-10
-3.9803785e-05
1.8432751e-13
-2.1136434e-10
-3.9809544e-05
7.7709309e-14
-3.9291528e-11
-3.980801e-05
-2.469162e-14
-4.5407595e-11
-3.9807287e-05
5.3389049e-14
-2.3650018e-13
-3.9807295e-05
4.602135e-14
4.5357752e-11
-3.980729e-05
-1.803697e-13
4.0091717e-11
-3.9807273e-05
-3.4553717e-13
2.1267517e-10
-3.9807997e-05
-1.9686182e-13
2.4823383e-10
-3.9809543e-05
1.4604738e-13
-3.9803814e-05
4.6433684e-13
-2.1188471e-10
-3.9838327e-05
1.8668369e-13
-2.1034967e-10
-3.984465e-05
7.8526923e-14
-3.9474498e-11
-3.9843079e-05
-2.5073371e-14
-4.5828476e-11
-3.9842219e-05
5.3538015e-14
-2.3735847e-13
-3.9842239e-05
4.6103811e-14
4.5782618e-11
-3.9842233e-05
-1.8206105e-13
4.0286584e-11
-3.9842203e-05
-3.4904552e-13
2.1166966e-10
-3.9843062e-05
-1.987772e-13
2.1280957e-10
-3.9844649e-05
1.4741622e-13
-3.9838361e-05
4.6910899e-13
-2.360958e-10
-3.9873509e-05
1.8934281e-13
-2.0918092e-10
-3.9880405e-05
7.9376719e-14
-3.9737061e-11
-3.9878791e-05
-2.5947329e-14
-4.621482e-11
-3.9877793e-05
5.3058057e-14
-2.378045e-13
-3.9877829e-05
4.6360173e-14
4.6173775e-11
-3.9877822e-05
-1.837114e-13
4.0561189e-11
-3.9877775e-05
-3.5240488e-13
2.1050802e-10
-3.9878773e-05
-2.0041008e-13
2.3701959e-10
-3.9880404e-05
1.4878098e-13
-3.9873548e-05
4.7365426e-13
-2.1247332e-10
-3.9909413e-05
1.9171592e-13
-2.0781768e-10
-3.9916789e-05
8.0121451e-14
-3.9858451e-11
-3.991518e-05
-2.6506986e-14
-4.6565285e-11
-3.9914041e-05
5.3347738e-14
-2.3770333e-13
-3.9914097e-05
4.6497584e-14
4.6530254e-11
-3.9914089e-05
-1.851653e-13
4.069496e-11
-3.9914021e-05
-3.5507302e-13
2.0914987e-10
-3.9915159e-05
-2.0230294e-13
2.1339205e-10
-3.9916788e-05
1.4996759e-13
-3.9909456e-05
4.7785546e-13
-2.2746984e-10
-3.9946033e-05
1.9441838e-13
-2.0640592e-10
-3.9953868e-05
8.07032e-14
-4.0044089e-11
-3.9952275e-05
-2.729986e-14
-4.6881229e-11
-3.9950992e-05
5.2023367e-14
-2.3716205e-13
-3.9951073e-05
4.5777232e-14
4.6852982e-11
-3.9951064e-05
-1.8655316e-13
4.0893334e-11
-3.995097e-05
-3.582383e-13
2.0774155e-10
-3.9952253e-05
-2.0301733e-13
2.2838129e-10
-3.9953868e-05
1.5127708e-13
-3.994608e-05
4.8182547e-13
-2.1159829e-10
-3.9983429e-05
1.9656858e-13
-2.0473156e-10
-3.9991639e-05
8.1339671e-14
-4.0106564e-11
-3.9990106e-05
-2.8217852e-14
-4.7162031e-11
-3.9988676e-05
5.1591875e-14
-2.3597614e-13
-3.9988786e-05
4.5577578e-14
4.714185e-11
-3.9988777e-05
-1.8787891e-13
4.0968695e-11
-3.9988652e-05
-3.604472e-13
2.0606845e-10
-3.9990081e-05
-2.0426252e-13
2.1249894e-10
-3.9991639e-05
1.5251438e-13
-3.9983481e-05
4.8535894e-13
-2.2056267e-10
-4.0021608e-05
1.9912953e-13
-2.0304533e-10
-4.0030151e-05
8.1860145e-14
-4.021566e-11
-4.00287e-05
-2.9014193e-14
-4.7409872e-11
-4.002712e-05
5.0296511e-14
-2.3438545e-13
-4.0027264e-05
4.4778192e-14
4.739885e-11
-4.0027254e-05
-1.8908613e-13
4.1091076e-11
-4.0027094e-05
-3.6276207e-13
2.0438134e-10
-4.0028673e-05
-2.0538576e-13
2.2144919e-10
-4.0030151e-05
1.5350416e-13
-4.0021663e-05
4.8882071e-13
-2.0980028e-10
-4.0060611e-05
2.0130489e-13
-2.0108552e-10
-4.0069408e-05
8.2281509e-14
-4.0221714e-11
-4.006808e-05
-2.9888724e-14
-4.7625668e-11
-4.0066348e-05
5.0340479e-14
-2.3209202e-13
-4.0066532e-05
4.5081258e-14
4.762493e-11
-4.0066521e-05
-1.8944972e-13
4.1110719e-11
-4.006632e-05
-3.6436059e-13
2.0241876e-10
-4.0068051e-05
-2.0607026e-13
2.1066861e-10
-4.0069408e-05
1.5390545e-13
-4.0060671e-05
4.9124234e-13
-2.1482993e-10
-4.0100446e-05
2.0366177e-13
-1.9912011e-10
-4.0109446e-05
8.2874148e-14
-4.0258298e-11
-4.0108269e-05
-3.0857859e-14
-4.7812625e-11
-4.0106383e-05
4.8285833e-14
-2.2931122e-13
-4.0106611e-05
4.418164e-14
4.7823112e-11
-4.0106599e-05
-1.9038068e-13
4.1160995e-11
-4.0106354e-05
-3.6598096e-13
2.0044827e-10
-4.0108238e-05
-2.0672027e-13
2.1567628e-10
-4.0109447e-05
1.5436578e-13
-4.0100509e-05
4.9309694e-13
-2.0729894e-10
-4.0141141e-05
2.0548488e-13
-1.9690632e-10
-4.0150272e-05
8.2823631e-14
-4.0211042e-11
-4.0149283e-05
-3.1684236e-14
-4.7972819e-11
-4.0147243e-05
4.7711523e-14
-2.2588336e-13
-4.0147519e-05
4.3298586e-14
4.7995851e-11
-4.0147507e-05
-1.9062044e-13
4.1127361e-11
-4.0147212e-05
-3.6716642e-13
1.9822679e-10
-4.0149251e-05
-2.068107e-13
2.081248e-10
-4.0150274e-05
1.5500587e-13
-4.0141208e-05
4.9465781e-13
-2.0943333e-10
-4.01827e-05
2.0765537e-13
-1.946897e-10
-4.0191912e-05
8.3158743e-14
-4.0180418e-11
-4.0191137e-05
-3.26915e-14
-4.8110886e-11
-4.0188944e-05
4.7266327e-14
-2.2187304e-13
-4.0189271e-05
4.3505731e-14
4.8147684e-11
-4.0189258e-05
-1.9013975e-13
4.1111355e-11
-4.0188912e-05
-3.6707029e-13
1.9600098e-10
-4.0191104e-05
-2.0710651e-13
2.1023675e-10
-4.0191914e-05
1.5493889e-13
-4.018277e-05
4.9604983e-13
-2.0350964e-10
-4.0225136e-05
2.0905115e-13
-1.922762e-10
-4.0234367e-05
8.2832778e-14
-4.0081025e-11
-4.0233841e-05
-3.4253288e-14
-4.8230314e-11
-4.0231495e-05
4.3692401e-14
-2.1727562e-13
-4.0231877e-05
4.1726545e-14
4.8282011e-11
-4.0231863e-05
-1.9087751e-13
4.1026494e-11
-4.0231461e-05
-3.6828948e-13
1.9357561e-10
-4.0233806e-05
-2.0664144e-13
2.0428896e-10
-4.0234369e-05
1.5557184e-13
-4.0225209e-05
4.9660152e-13
-2.0340093e-10
-4.0268447e-05
2.1102086e-13
-1.8988024e-10
-4.0277654e-05
8.3178071e-14
-3.9986123e-11
-4.0277398e-05
-3.4945113e-14
-4.8336901e-11
-4.0274903e-05
4.3775221e-14
-2.1186147e-13
-4.0275341e-05
4.1826616e-14
4.8404812e-11
-4.0275327e-05
-1.8930273e-13
4.0946055e-11
-4.0274868e-05
-3.67257e-13
1.9116574e-10
-4.0277362e-05
-2.0659865e-13
2.0415358e-10
-4.0277657e-05
1.5522303e-13
-4.0268523e-05
4.9647937e-13
-1.9817875e-10
-4.0312632e-05
2.1202785e-13
-1.8736896e-10
-4.032177e-05
8.2580727e-14
-3.9832884e-11
-4.0321809e-05
-3.6537938e-14
-4.8435424e-11
-4.0319168e-05
4.0012045e-14
-2.0593699e-13
-4.0319665e-05
4.0157552e-14
4.8520454e-11
-4.031965e-05
-1.8959529e-13
4.0807034e-11
-4.0319132e-05
-3.6719309e-13
1.8863768e-10
-4.0321772e-05
-2.0549416e-13
1.9890289e-10
-4.0321774e-05
1.5493301e-13
-4.0312711e-05
4.9574099e-13
-1.9632989e-10
-4.0357681e-05
2.1273819e-13
-1.8495495e-10
-4.0366722e-05
8.2165606e-14
-3.9670773e-11
-4.036707e-05
-3.7006389e-14
-4.8532026e-11
-4.036429e-05
4.1982808e-14
-1.9912067e-13
-4.0364844e-05
4.0793015e-14
4.8635865e-11
-4.0364828e-05
-1.8685143e-13
4.0659813e-11
-4.0364252e-05
-3.6411262e-13
1.8620335e-10
-4.0367032e-05
-2.0517694e-13
1.9702126e-10
-4.0366726e-05
1.5467358e-13
-4.0357762e-05
4.9462946e-13
-1.9121875e-10
-4.0403581e-05
2.1364179e-13
-1.8259651e-10
-4.0412501e-05
8.1660128e-14
-3.9453351e-11
-4.041317e-05
-3.8447626e-14
-4.8631949e-11
-4.0410259e-05
3.8442378e-14
-1.9174065e-13
-4.041087e-05
3.9331974e-14
4.8755524e-11
-4.0410853e-05
-1.8604907e-13
4.045681e-11
-4.041022e-05
-3.6323652e-13
1.8382154e-10
-4.0413131e-05
-2.0373772e-13
1.9187533e-10
-4.0412506e-05
1.5387024e-13
-4.0403664e-05
4.9255765e-13
-1.8794197e-10
-4.0450313e-05
2.1356366e-13
-1.8042025e-10
-4.0459106e-05
8.0292736e-14
-3.9212602e-11
-4.0460098e-05
-3.957231e-14
-4.8740985e-11
-4.0457065e-05
3.7857806e-14
-1.8338428e-13
-4.045773e-05
3.9450809e-14
4.8885702e-11
-4.0457712e-05
-1.8344727e-13
4.0230164e-11
-4.0457025e-05
-3.5950886e-13
1.8161908e-10
-4.0460059e-05
-2.0199773e-13
1.8856013e-10
-4.0459111e-05
1.5279417e-13
-4.0450398e-05
4.8927227e-13
-1.8254844e-10
-4.0497856e-05
2.1359345e-13
-1.7835063e-10
-4.0506523e-05
7.9741979e-14
-3.891521e-11
-4.0507837e-05
-4.051172e-14
-4.8863383e-11
-4.0504691e-05
3.6081094e-14
-1.7440286e-13
-4.0505407e-05
3.8695045e-14
4.9030395e-11
-4.0505388e-05
-1.8096507e-13
3.9946956e-11
-4.050465e-05
-3.5574323e-13
1.7952092e-10
-4.0507797e-05
-2.0018623e-13
1.8312494e-10
-4.0506529e-05
1.5169049e-13
-4.0497943e-05
4.8574182e-13
-1.7803753e-10
-4.0546186e-05
2.1291027e-13
-1.7646756e-10
-4.0554743e-05
7.7906145e-14
-3.8581292e-11
-4.0556367e-05
-4.136636e-14
-4.9003039e-11
-4.0553122e-05
3.4902787e-14
-1.6433726e-13
-4.0553883e-05
3.8121459e-14
4.9193634e-11
-4.0553864e-05
-1.7800267e-13
3.9626244e-11
-4.0553079e-05
-3.5218296e-13
1.776066e-10
-4.0556327e-05
-1.9790842e-13
1.7856898e-10
-4.055475e-05
1.5054647e-13
-4.0546274e-05
4.8081791e-13
-1.7211354e-10
-4.0595278e-05
2.1179488e-13
-1.7472173e-10
-4.0603751e-05
7.6845332e-14
-3.8189978e-11
-4.0605669e-05
-4.201636e-14
-4.9161674e-11
-4.0602336e-05
3.4176976e-14
-1.5354279e-13
-4.0603137e-05
3.8316318e-14
4.9377174e-11
-4.0603118e-05
-1.7358187e-13
3.9247337e-11
-4.0602293e-05
-3.4618494e-13
1.7582704e-10
-4.0605629e-05
-1.9540086e-13
1.7259676e-10
-4.0603759e-05
1.493624e-13
-4.0595368e-05
4.7612741e-13
-1.665044e-10
-4.0645107e-05
2.1020759e-13
-1.7316863e-10
-4.0653535e-05
7.5239368e-14
-3.7755466e-11
-4.0655722e-05
-4.2724455e-14
-4.9339794e-11
-4.0652315e-05
3.1378811e-14
-1.4193261e-13
-4.0653149e-05
3.7118085e-14
4.9581463e-11
-4.0653129e-05
-1.7033344e-13
3.8824147e-11
-4.0652271e-05
-3.4105446e-13
1.7423705e-10
-4.0655682e-05
-1.9178225e-13
1.6693594e-10
-4.0653543e-05
1.4760307e-13
-4.0645198e-05
4.6945234e-13
-1.5991574e-10
-4.0695651e-05
2.0805554e-13
-1.7177936e-10
-4.0704078e-05
7.3395682e-14
-3.7268685e-11
-4.0706506e-05
-4.3255213e-14
-4.9535797e-11
-4.0703039e-05
3.0938694e-14
-1.2933119e-13
-4.0703899e-05
3.766224e-14
4.9805004e-11
-4.0703878e-05
-1.6446283e-13
3.8347142e-11
-4.0702994e-05
-3.3290934e-13
1.7280763e-10
-4.0706466e-05
-1.8779051e-13
1.6029223e-10
-4.0704087e-05
1.4563065e-13
-4.0695742e-05
4.6191911e-13
-1.5332488e-10
-4.074689e-05
2.0591074e-13
-1.7058614e-10
-4.0755371e-05
7.1567472e-14
-3.6741566e-11
-4.0758006e-05
-4.3359054e-14
-4.9746112e-11
-4.0754491e-05
2.9293975e-14
-1.160916e-13
-4.0755369e-05
3.75448e-14
5.0044067e-11
-4.0755347e-05
-1.5968181e-13
3.7828623e-11
-4.0754444e-05
-3.2517122e-13
1.7157159e-10
-4.0757966e-05
-1.8332187e-13
1.5364218e-10
-4.0755381e-05
1.4343259e-13
-4.0746981e-05
4.5330064e-13
-1.4602837e-10
-4.079881e-05
2.0301705e-13
-1.6955957e-10
-4.0807403e-05
6.9690261e-14
-3.6172242e-11
-4.0810207e-05
-4.3618533e-14
-4.9965615e-11
-4.0806656e-05
2.8202909e-14
-1.026453e-13
-4.0807546e-05
3.814651e-14
5.0293445e-11
-4.0807524e-05
-1.5201337e-13
3.7266388e-11
-4.0806609e-05
-3.1452722e-13
1.7049961e-10
-4.0810169e-05
-1.7850191e-13
1.4628258e-10
-4.0807413e-05
1.4179382e-13
-4.0798902e-05
4.4403711e-13
-1.3857103e-10
-4.0851404e-05
1.9873806e-13
-1.6868999e-10
-4.0860167e-05
6.7232935e-14
-3.5570671e-11
-4.0863104e-05
-4.3482275e-14
-5.0186649e-11
-4.0859525e-05
2.7846488e-14
-8.8285821e-14
-4.0860421e-05
3.8540809e-14
5.0545782e-11
-4.0860398e-05
-1.4551217e-13
3.6669412e-11
-4.0859478e-05
-3.0320493e-13
1.6958177e-10
-4.0863067e-05
-1.7202672e-13
1.3875805e-10
-4.0860179e-05
1.3989944e-13
-4.0851496e-05
4.3346439e-13
-1.3058635e-10
-4.0904674e-05
1.952853e-13
-1.6790162e-10
-4.0913663e-05
6.5217551e-14
-3.4936483e-11
-4.0916697e-05
-4.3384613e-14
-5.0401472e-11
-4.0913097e-05
2.5689618e-14
-7.1699956e-14
-4.0913993e-05
3.8322665e-14
5.0792647e-11
-4.091397e-05
-1.3714591e-13
3.6038211e-11
-4.0913049e-05
-2.9035591e-13
1.6874511e-10
-4.0916661e-05
-1.6417784e-13
1.3070158e-10
-4.0913676e-05
1.3883595e-13
-4.0904766e-05
4.2191393e-13
-1.2237531e-10
-4.0958629e-05
1.9015603e-13
-1.6713513e-10
-4.0967895e-05
6.2538232e-14
-3.4275556e-11
-4.0970992e-05
-4.2090702e-14
-5.0600666e-11
-4.0967376e-05
2.5701802e-14
-5.1902456e-14
-4.0968267e-05
3.8997654e-14
5.1025158e-11
-4.0968244e-05
-1.2793908e-13
3.5378134e-11
-4.0967328e-05
-2.7561184e-13
1.6792887e-10
-4.0970958e-05
-1.562823e-13
1.2241338e-10
-4.0967909e-05
1.3571401e-13
-4.0958721e-05
4.0884394e-13
-1.1376893e-10
-4.1013291e-05
1.856678e-13
-1.6634145e-10
-4.1022874e-05
6.0523432e-14
-3.3585487e-11
-4.1026006e-05
-4.1569221e-14
-5.0774252e-11
-4.1022373e-05
2.2496003e-14
-2.9847449e-14
-4.1023259e-05
3.7683903e-14
5.1232847e-11
-4.1023235e-05
-1.1887919e-13
3.4687523e-11
-4.1022325e-05
-2.5993284e-13
1.6708396e-10
-4.1025974e-05
-1.4775762e-13
1.1372811e-10
-4.102289e-05
1.323666e-13
-4.1013382e-05
3.9353609e-13
-1.0498874e-10
-4.1068688e-05
1.8005774e-13
-1.6549496e-10
-4.1078619e-05
5.794975e-14
-3.2867622e-11
-4.1081766e-05
-4.148917e-14
-5.0912805e-11
-4.107811e-05
1.9658262e-14
-2.6378144e-15
-4.107899e-05
3.8704497e-14
5.1405361e-11
-4.1078967e-05
-1.0724503e-13
3.3966822e-11
-4.1078064e-05
-2.4046124e-13
1.6618489e-10
-4.1081736e-05
-1.3595367e-13
1.0487566e-10
-4.1078636e-05
1.309453e-13
-4.1068779e-05
3.7820807e-13
-9.6092003e-11
-4.1124863e-05
1.7448738e-13
-1.6456335e-10
-4.1135156e-05
5.617787e-14
-3.2116786e-11
-4.1138304e-05
-3.9461967e-14
-5.1005706e-11
-4.1134618e-05
1.7822408e-14
1.7166999e-14
-4.1135495e-05
3.7026704e-14
5.1533177e-11
-4.1135472e-05
-9.5772503e-14
3.321199e-11
-4.1134572e-05
-2.2113106e-13
1.6519885e-10
-4.1138277e-05
-1.2611585e-13
9.5920722e-11
-4.1135175e-05
1.272967e-13
-4.1124952e-05
3.6053005e-13
-8.7311581e-11
-4.1181863e-05
1.6860332e-13
-1.6352651e-10
-4.1192518e-05
5.3971838e-14
-3.1330453e-11
-4.1195663e-05
-3.7544957e-14
-5.1044262e-11
-4.1191935e-05
1.7510729e-14
3.7894985e-14
-4.1192813e-05
3.7170526e-14
5.160593e-11
-4.119279e-05
-8.1618674e-14
3.2419066e-11
-4.1191891e-05
-1.9680578e-13
1.6410632e-10
-4.1195641e-05
-1.105199e-13
8.7087398e-11
-4.1192539e-05
1.2531924e-13
-4.1181951e-05
3.4200775e-13
-7.8617174e-11
-4.1239746e-05
1.6296901e-13
-1.6236022e-10
-4.1250745e-05
5.256809e-14
-3.0501181e-11
-4.1253895e-05
-3.7468951e-14
-5.1020145e-11
-4.1250106e-05
1.2066153e-14
5.9029448e-14
-4.1250993e-05
3.5344942e-14
5.1615306e-11
-4.1250971e-05
-6.7874554e-14
3.1582379e-11
-4.1250065e-05
-1.7294506e-13
1.6288374e-10
-4.1253877e-05
-9.741792e-14
7.8339173e-11
-4.1250768e-05
1.2160569e-13
-4.1239833e-05
3.213718e-13
-7.0028141e-11
-4.1298575e-05
1.5679132e-13
-1.6105017e-10
-4.1309885e-05
5.0717659e-14
-2.9624077e-11
-4.1313056e-05
-3.4415953e-14
-5.0925102e-11
-4.1309187e-05
1.0921446e-14
8.0935639e-14
-4.1310092e-05
3.3246661e-14
5.1553059e-11
-4.131007e-05
-5.1882282e-14
3.0695383e-11
-4.1309148e-05
-1.4608612e-13
1.6151572e-10
-4.1313041e-05
-7.9698694e-14
6.9695787e-11
-4.1309911e-05
1.1949215e-13
-4.1298661e-05
2.9975151e-13
-6.1503823e-11
-4.1358419e-05
1.5099729e-13
-1.5957867e-10
-4.1369989e-05
4.9258672e-14
-2.8691585e-11
-4.1373206e-05
-3.2803679e-14
-5.0754419e-11
-4.1369235e-05
6.2344343e-15
1.0212134e-13
-4.1370168e-05
3.0753826e-14
5.1412785e-11
-4.1370148e-05
-3.5349429e-14
2.9751774e-11
-4.13692e-05
-1.1612191e-13
1.5998688e-10
-4.1373197e-05
-6.1081035e-14
6.1117603e-11
-4.1370018e-05
1.1595041e-13
-4.1358503e-05
2.7610909e-13
-5.3018219e-11
-4.1419346e-05
1.4554416e-13
-1.5793572e-10
-4.1431113e-05
4.7027146e-14
-2.7697929e-11
-4.143441e-05
-3.1134605e-14
-5.050293e-11
-4.1430312e-05
1.0426043e-15
1.2293404e-13
-4.1431286e-05
2.6706586e-14
5.1189626e-11
-4.1431268e-05
-1.59821e-14
2.8744951e-11
-4.1430281e-05
-8.5919236e-14
1.5828625e-10
-4.1434406e-05
-4.3047846e-14
5.2579599e-11
-4.1431146e-05
1.1236494e-13
-4.1419428e-05
2.5099599e-13
-4.4541293e-11
-4.1481428e-05
1.4133961e-13
-1.5611271e-10
-4.1493317e-05
4.604907e-14
-2.6636715e-11
-4.1496734e-05
-2.7791572e-14
-5.0167621e-11
-4.1492485e-05
-2.2725924e-15
1.4275097e-13
-4.1493511e-05
2.3017302e-14
5.0879689e-11
-4.1493495e-05
2.3789632e-15
2.7668946e-11
-4.1492459e-05
-5.0571134e-14
1.5640638e-10
-4.1496736e-05
-2.0415925e-14
4.4053441e-11
-4.1493353e-05
1.0827639e-13
-4.1481508e-05
2.2403105e-13
-3.5986892e-11
-4.1544728e-05
1.3797419e-13
-1.5410403e-10
-4.1556656e-05
4.3461894e-14
-2.550321e-11
-4.1560236e-05
-2.8214493e-14
-4.9748573e-11
-4.1555813e-05
-9.5976154e-15
1.6060422e-13
-4.1556905e-05
1.6027186e-14
5.0481676e-11
-4.1556891e-05
1.4090404e-14
2.6518784e-11
-4.1555792e-05
-1.5139489e-14
1.5434228e-10
-4.1560244e-05
1.8949548e-15
3.5454831e-11
-4.1556696e-05
1.0499035e-13
-4.1544806e-05
1.9626803e-13
-2.7403729e-11
-4.1609315e-05
1.392699e-13
-1.5190704e-10
-4.1621194e-05
4.2739226e-14
-2.4292561e-11
-4.1624984e-05
-2.4255472e-14
-4.9245271e-11
-4.1620364e-05
-1.2584857e-14
1.7679792e-13
-4.1621535e-05
9.8971468e-15
4.999544e-11
-4.1621524e-05
2.903762e-14
2.5289715e-11
-4.162035e-05
1.6614721e-14
1.5209172e-10
-4.1624999e-05
2.144144e-14
2.6834757e-11
-4.1621238e-05
1.0010868e-13
-4.160939e-05
1.6591278e-13
-1.856972e-11
-4.167523e-05
1.4018241e-13
-1.4952316e-10
-4.1686974e-05
4.1354427e-14
-2.3003772e-11
-4.1691018e-05
-2.2769928e-14
-4.8660671e-11
-4.1686183e-05
-2.1566433e-14
1.8996071e-13
-4.1687443e-05
3.1705476e-15
4.9422622e-11
-4.1687435e-05
4.4537693e-14
2.3980906e-11
-4.1686175e-05
4.6702813e-14
1.4965673e-10
-4.169104e-05
4.3730282e-14
1.7975868e-11
-4.1687021e-05
9.5816942e-14
-4.1675303e-05
1.3522018e-13
-9.9237899e-12
-4.1742544e-05
1.3882952e-13
-1.4695147e-10
-4.1754069e-05
3.8112575e-14
-2.1631055e-11
-4.1758411e-05
-2.2601812e-14
-4.8000453e-11
-4.1753346e-05
-3.2630807e-14
1.9989046e-13
-4.1754706e-05
-1.7510542e-15
4.8768033e-11
-4.1754701e-05
6.1783667e-14
2.2585778e-11
-4.1753345e-05
8.3756587e-14
1.4703696e-10
-4.175844e-05
7.3653797e-14
9.327499e-12
-4.1754121e-05
9.1257476e-14
-4.1742615e-05
1.023308e-13
-1.2297061e-12
-4.1811251e-05
1.3818612e-13
-1.4420732e-10
-4.1822478e-05
3.773921e-14
-2.0183837e-11
-4.1827158e-05
-1.9573519e-14
-4.7266156e-11
-4.1821852e-05
-4.6145598e-14
2.0634697e-13
-4.1823319e-05
-1.224933e-14
4.8033679e-11
-4.1823317e-05
7.88793e-14
2.1114883e-11
-4.1821858e-05
1.253762e-13
1.4424849e-10
-4.1827193e-05
9.9285961e-14
7.1221374e-13
-4.1822535e-05
8.5662177e-14
-4.1811319e-05
6.69314e-14
1.0132894e-11
-4.1881459e-05
1.3526585e-13
-1.4127994e-10
-4.1892318e-05
3.5373906e-14
-1.8643553e-11
-4.1897369e-05
-1.9177962e-14
-4.6473094e-11
-4.1891816e-05
-5.9096132e-14
2.0849761e-13
-4.1893397e-05
-2.2035837e-14
4.7232973e-11
-4.1893399e-05
9.7572342e-14
1.9548354e-11
-4.1891829e-05
1.663025e-13
1.412799e-10
-4.1897411e-05
1.2691782e-13
-1.0946567e-11
-4.1892379e-05
8.1460747e-14
-4.1881526e-05
3.0575924e-14
2.3706772e-11
-4.1953051e-05
1.3454731e-13
-1.3821775e-10
-4.1963472e-05
3.4162934e-14
-1.7052938e-11
-4.1968928e-05
-2.0392248e-14
-4.5616348e-11
-4.1963126e-05
-7.5386907e-14
2.0523846e-13
-4.1964824e-05
-3.4086308e-14
4.63612e-11
-4.196483e-05
1.1602011e-13
1.7929967e-11
-4.1963146e-05
2.0546581e-13
1.3818291e-10
-4.1968976e-05
1.5319942e-13
-2.4526445e-11
-4.1963538e-05
7.4631662e-14
-4.1953115e-05
-6.7873711e-15
3.3092065e-11
-4.2026266e-05
1.3267792e-13
-1.3497945e-10
-4.2036205e-05
3.2722447e-14
-1.5343993e-11
-4.2042084e-05
-2.1021202e-14
-4.4731068e-11
-4.2036037e-05
-8.7666369e-14
1.9782632e-13
-4.2037855e-05
-4.5732089e-14
4.5452988e-11
-4.2037864e-05
1.344617e-13
1.6191751e-11
-4.2036065e-05
2.4396087e-13
1.3491231e-10
-4.2042139e-05
1.8023499e-13
-3.3941345e-11
-4.2036274e-05
6.9018028e-14
-4.2026329e-05
-3.1228489e-14
5.0924195e-11
-4.2100724e-05
1.3184997e-13
-1.3168323e-10
-4.2110127e-05
3.1984735e-14
-1.3657535e-11
-4.2116453e-05
-2.5124091e-14
-4.3781376e-11
-4.2110167e-05
-1.0289583e-13
1.8362261e-13
-4.2112105e-05
-5.8406282e-14
4.4472153e-11
-4.2112117e-05
1.5201452e-13
1.4471982e-11
-4.2110201e-05
2.8163379e-13
1.3159284e-10
-4.2116513e-05
2.0631088e-13
-5.1804469e-11
-4.21102e-05
6.0888974e-14
-4.2100784e-05
-6.1451718e-14
5.4970514e-11
-4.2177028e-05
1.2989689e-13
-1.2820246e-10
-4.2185884e-05
2.8559636e-14
-1.1765766e-11
-4.2192658e-05
-2.5154382e-14
-4.2866012e-11
-4.2186145e-05
-1.1670182e-13
1.6547305e-13
-4.21882e-05
-7.0628189e-14
4.3516708e-11
-4.2188216e-05
1.6858267e-13
1.2549573e-11
-4.2186185e-05
3.1695561e-13
1.2808839e-10
-4.2192723e-05
2.3045751e-13
-5.586842e-11
-4.218596e-05
5.5310219e-14
-4.2177087e-05
-8.8322588e-14
8.5607015e-11
-4.2254221e-05
1.3001315e-13
-1.247466e-10
-4.2262471e-05
2.8178655e-14
-1.008619e-11
-4.2269719e-05
-2.7281112e-14
-4.1834998e-11
-4.2262991e-05
-1.3086636e-13
1.3874685e-13
-4.226516e-05
-8.3410987e-14
4.2437495e-11
-4.2265179e-05
1.839361e-13
1.0825697e-11
-4.2263037e-05
3.5111118e-13
1.2462346e-10
-4.2269788e-05
2.5502364e-13
-8.6514904e-11
-4.226255e-05
4.7012624e-14
-4.2254279e-05
-1.1838609e-13
7.2346273e-11
-4.2333703e-05
1.2652533e-13
-1.2116995e-10
-4.2341388e-05
2.4588154e-14
-7.9546591e-12
-4.2349084e-05
-2.9047794e-14
-4.0993287e-11
-4.2342157e-05
-1.4595191e-13
1.1015562e-13
-4.2344436e-05
-9.5620701e-14
4.1537523e-11
-4.2344457e-05
1.9829288e-13
8.6734442e-12
-4.2342209e-05
3.8273028e-13
1.2102901e-10
-4.2349157e-05
2.7679952e-13
-7.3250021e-11
-4.234147e-05
3.8285916e-14
-4.2333759e-05
-1.4607695e-13
1.3631757e-10
-4.2413414e-05
1.2665983e-13
-1.1737232e-10
-4.2420422e-05
2.3882397e-14
-6.5088642e-12
-4.2428618e-05
-3.085125e-14
-3.9798985e-11
-4.2421508e-05
-1.5855972e-13
6.9450955e-14
-4.242389e-05
-1.0679008e-13
4.0279119e-11
-4.2423914e-05
2.1144095e-13
7.157216e-12
-4.2421563e-05
4.1212572e-13
1.1723992e-10
-4.2428693e-05
2.9523884e-13
-1.3720393e-10
-4.2420505e-05
2.71079e-14
-4.2413468e-05
-1.7299395e-13
7.5875208e-11
-4.2496168e-05
1.2231652e-13
-1.142943e-10
-4.2502648e-05
1.9750995e-14
-4.0664232e-12
-4.2511266e-05
-3.5297798e-14
-3.9301758e-11
-4.2503991e-05
-1.7150202e-13
3.3375057e-14
-4.2506471e-05
-1.1639992e-13
3.9698745e-11
-4.2506497e-05
2.2344687e-13
4.7174122e-12
-4.2504049e-05
4.3788758e-13
1.1414178e-10
-4.2511343e-05
3.1275577e-13
-7.6739221e-11
-4.2502732e-05
1.8117422e-14
-4.2496221e-05
-1.9732752e-13
2.1759844e-10
-4.2578167e-05
1.1864766e-13
-1.0895562e-10
-4.2583856e-05
1.4447432e-14
-3.2736116e-12
-4.259302e-05
-3.6635368e-14
-3.7539361e-11
-4.2585597e-05
-1.8268206e-13
-2.4620218e-14
-4.2588168e-05
-1.2671702e-13
3.7867565e-11
-4.2588196e-05
2.3236093e-13
3.8157963e-12
-4.2585657e-05
4.5898683e-13
1.0883354e-10
-4.2593097e-05
3.2686781e-13
-2.18409e-10
-4.258394e-05
7.7034696e-15
-4.2578218e-05
-2.2099951e-13
4.9528666e-11
-4.2664259e-05
1.131557e-13
-1.0853961e-10
-4.2669527e-05
1.0631682e-14
5.513242e-13
-4.2679055e-05
-4.0337851e-14
-3.8074469e-11
-4.2671495e-05
-1.8984634e-13
-6.3325687e-14
-4.2674155e-05
-1.3221026e-13
3.8293247e-11
-4.2674183e-05
2.4215529e-13
-1.5732063e-13
-4.2671556e-05
4.7778528e-13
1.0839183e-10
-4.2679132e-05
3.3667444e-13
-5.029493e-11
-4.266961e-05
-1.6041795e-15
-4.2664308e-05
-2.4066709e-13
3.4980001e-10
-4.2748394e-05
1.0640938e-13
-9.8024566e-11
-4.2752666e-05
6.6602009e-15
-9.4735757e-13
-4.276283e-05
-4.5910661e-14
-3.4700459e-11
-4.2755157e-05
-1.9986735e-13
-1.3617758e-13
-4.2757894e-05
-1.3649335e-13
3.4859226e-11
-4.2757923e-05
2.5009595e-13
1.3482969e-12
-4.2755218e-05
4.9187598e-13
9.7924473e-11
-4.2762905e-05
3.4417388e-13
-3.5050597e-10
-4.2752748e-05
-7.431495e-15
-4.2748441e-05
-2.5808264e-13
-2.7120976e-11
-4.2837862e-05
9.7477651e-14
-1.0598858e-10
-4.2841924e-05
1.4400093e-15
4.837409e-12
-4.2852348e-05
-5.1933299e-14
-3.7669601e-11
-4.2844557e-05
-2.0488594e-13
-1.7298871e-13
-4.2847376e-05
-1.4007258e-13
3.7689627e-11
-4.2847405e-05
2.5437176e-13
-4.46043e-12
-4.2844615e-05
4.9922461e-13
1.0585388e-10
-4.2852421e-05
3.4636406e-13
2.6458028e-11
-4.2842003e-05
-1.6352024e-14
-4.2837906e-05
-2.7514645e-13
5.5687719e-10
-4.292407e-05
8.7593936e-14
-8.2145997e-11
-4.2926788e-05
-3.9636452e-15
5.3617395e-13
-4.2938001e-05
-5.5722073e-14
-3.0755297e-11
-4.2930131e-05
-2.0705858e-13
-2.6039946e-13
-4.2933014e-05
-1.3738004e-13
3.0742968e-11
-4.2933042e-05
2.6067646e-13
8.0898007e-15
-4.2930188e-05
5.0417611e-13
8.2075553e-11
-4.293807e-05
3.4557397e-13
-5.5746502e-10
-4.2926864e-05
-2.167643e-14
-4.2924111e-05
-2.8615062e-13
-1.7971791e-10
-4.3017023e-05
7.29348e-14
-1.0932706e-10
-4.3019891e-05
-9.1063956e-15
9.2908564e-12
-4.3031196e-05
-6.271826e-14
-3.8538186e-11
-4.302321e-05
-2.0600013e-13
-2.8911844e-13
-4.3026174e-05
-1.3592733e-13
3.834956e-11
-4.30262e-05
2.6296785e-13
-9.0143794e-12
-4.3023263e-05
5.0246761e-13
1.0920039e-10
-4.303126e-05
3.3836289e-13
1.7913337e-10
-4.3019963e-05
-3.2145527e-14
-4.3017061e-05
-2.9800311e-13
8.6415481e-10
-4.310525e-05
5.9884192e-14
-5.7744371e-11
-4.3106232e-05
-1.3981145e-14
3.6209911e-13
-4.3118563e-05
-6.6358724e-14
-2.5064665e-11
-4.3110536e-05
-2.0326982e-13
-3.8797767e-13
-4.3113548e-05
-1.2595486e-13
2.4890328e-11
-4.3113573e-05
2.6527695e-13
5.8163127e-14
-4.3110585e-05
4.967424e-13
5.7707137e-11
-4.3118622e-05
3.2900521e-13
-8.6461495e-10
-4.3106299e-05
-3.8656219e-14
-4.3105284e-05
-3.0345197e-13
-4.3068969e-10
-4.3202029e-05
3.7737555e-14
-1.2163659e-10
-4.3203709e-05
-2.2365278e-14
1.3857559e-11
-4.3215882e-05
-7.1247046e-14
-4.1158247e-11
-4.3207724e-05
-1.947721e-13
-4.0287971e-13
-4.3210821e-05
-1.1956167e-13
4.0761044e-11
-4.3210843e-05
2.6544193e-13
-1.3691393e-11
-4.3207767e-05
4.8555078e-13
1.2150887e-10
-4.3215935e-05
3.1450005e-13
4.3019862e-10
-4.3203769e-05
-5.0158747e-14
-4.3202058e-05
-3.1140463e-13
1.2985178e-09
-4.3292106e-05
2.4862101e-14
-1.868187e-11
-4.3291111e-05
-3.0638726e-14
-1.8370908e-12
-4.3304647e-05
-7.5136718e-14
-1.6784663e-11
-4.3296497e-05
-1.8627725e-13
-5.0822448e-13
-4.3299624e-05
-1.0137619e-13
1.6467875e-11
-4.3299644e-05
2.6316493e-13
2.0947835e-12
-4.3296535e-05
4.7030914e-13
1.8681675e-11
-4.3304695e-05
2.9645412e-13
-1.2988463e-09
-4.3291166e-05
-5.5587246e-14
-4.329213e-05
-3.0879845e-13
-8.0690956e-10
-4.3393438e-05
5.2168663e-15
-1.4634153e-10
-4.3393925e-05
-4.0919131e-14
1.8724277e-11
-4.3406954e-05
-7.8028732e-14
-4.6028541e-11
-4.3398634e-05
-1.7114876e-13
-5.0482269e-13
-4.3401859e-05
-9.2289791e-14
4.543429e-11
-4.3401875e-05
2.6243697e-13
-1.8672282e-11
-4.3398665e-05
4.5117668e-13
1.4620387e-10
-4.3406994e-05
2.7297456e-13
8.0651097e-10
-4.3393972e-05
-7.1917686e-14
-4.3393457e-05
-3.1882383e-13
1.8902434e-09
-4.3484945e-05
-8.6752367e-15
3.1089621e-11
-4.3481648e-05
-5.0706496e-14
-6.2797866e-12
-4.3496519e-05
-8.1410169e-14
-4.2335738e-12
-4.3488266e-05
-1.5696302e-13
-6.1074145e-13
-4.3491495e-05
-6.4727021e-14
3.7397472e-12
-4.3491508e-05
2.5489838e-13
6.5888012e-12
-4.3488289e-05
4.278938e-13
-3.1063049e-11
-4.3496553e-05
2.486194e-13
-1.8904392e-09
-4.3481688e-05
-7.5857872e-14
-4.3484957e-05
-3.0614556e-13
-1.3395506e-09
-4.3592084e-05
-2.6533269e-14
-1.8724982e-10
-4.3591335e-05
-6.3645712e-14
2.4428849e-11
-4.3605232e-05
-8.1141138e-14
-5.3721775e-11
-4.3596744e-05
-1.3598919e-13
-5.849853e-13
-4.3600092e-05
-5.5741609e-14
5.2951598e-11
-4.3600102e-05
2.5405896e-13
-2.4491446e-11
-4.3596761e-05
4.0238665e-13
1.870957e-10
-4.3605258e-05
2.2250005e-13
1.3392389e-09
-4.3591367e-05
-9.1709032e-14
-4.359209e-05
-3.1603767e-13
2.6761753e-09
-4.3684209e-05
-3.5173337e-14
9.5222264e-11
-4.3678168e-05
-7.5935157e-14
-1.4757157e-11
-4.369456e-05
-8.1675014e-14
9.7270233e-12
-4.3686213e-05
-1.1575664e-13
-6.860301e-13
-4.3689537e-05
-1.68304e-14
-1.0085805e-11
-4.3689543e-05
2.4133568e-13
1.5091646e-11
-4.3686223e-05
3.7352603e-13
-9.5160657e-11
-4.369458e-05
1.8877332e-13
-2.6762376e-09
-4.3678193e-05
-9.8875111e-14
-4.3684208e-05
-2.9703935e-13
-2.0677485e-09
-4.3799031e-05
-6.0057115e-14
-2.4858832e-10
-4.3796957e-05
-8.7970338e-14
3.2068997e-11
-4.3811761e-05
-8.4926105e-14
-6.4911866e-11
-4.3803085e-05
-9.9399125e-14
-6.3556428e-13
-4.380656e-05
-1.4281665e-14
6.3996432e-11
-4.3806562e-05
2.4162438e-13
-3.224119e-11
-4.3803087e-05
3.4197354e-13
2.4841642e-10
-4.3811775e-05
1.639835e-13
2.0675207e-09
-4.3796974e-05
-1.1123161e-13
-4.3799022e-05
-3.0852986e-13
3.7034963e-09
-4.389047e-05
-6.6919747e-14
1.8357453e-10
-4.3881108e-05
-1.0251704e-13
-2.9534546e-11
-4.3899261e-05
-8.3819131e-14
2.6797759e-11
-4.3890833e-05
-7.4039433e-14