/*--------------------------------*- C++ -*----------------------------------*\
  =========                 |
  \\      /  F ield         | OpenFOAM: The Open Source CFD Toolbox
   \\    /   O peration     | Website:  https://openfoam.org
    \\  /    A nd           | Version:  8
     \\/     M anipulation  |
\*---------------------------------------------------------------------------*/
FoamFile
{
    version     2.0;
    format      ascii;
    class       volVectorField;
    location    "0.2";
    object      U;
}
// * * * * * * * * * * * * * * * * * * * * * * * * * * * * * * * * * * * * * //

dimensions      [0 1 -1 0 0 0 0];

internalField   nonuniform List<vector> 
2000
(
(-7.1201003e-07 -0.00049158055 -1.3004261e-06)
(-1.4122963e-07 -0.0004915936 -1.3008864e-06)
(-3.6408917e-08 -0.00049159027 -1.3009461e-06)
(4.9171009e-09 -0.00049158993 -1.3009229e-06)
(-3.8635567e-08 -0.0004915898 -1.3009233e-06)
(3.8259458e-08 -0.0004915898 -1.3009895e-06)
(-4.6456262e-09 -0.00049158992 -1.3010382e-06)
(3.7240785e-08 -0.00049159025 -1.3009911e-06)
(1.4205584e-07 -0.00049159359 -1.3008613e-06)
(7.1241791e-07 -0.00049158059 -1.3003538e-06)
(-6.3857625e-07 -0.0006930268 -1.0617105e-06)
(-2.0966813e-07 -0.0006930659 -1.0622104e-06)
(-5.5072193e-08 -0.00069304933 -1.0622588e-06)
(-1.4296591e-09 -0.00069304712 -1.0622309e-06)
(-4.8821949e-08 -0.00069304694 -1.062231e-06)
(4.8451191e-08 -0.00069304692 -1.0622955e-06)
(1.7382069e-09 -0.00069304706 -1.0623423e-06)
(5.593693e-08 -0.00069304928 -1.0623006e-06)
(2.1054796e-07 -0.00069306589 -1.0621853e-06)
(6.3899915e-07 -0.00069302692 -1.0616412e-06)
(-1.6462557e-07 -0.00061760777 -9.9210581e-08)
(-2.2035192e-07 -0.00061766343 -9.9406774e-08)
(-5.8359731e-08 -0.00061764411 -9.9448607e-08)
(-3.096806e-09 -0.00061763975 -9.9420223e-08)
(-5.0301157e-08 -0.0006176396 -9.9419877e-08)
(4.9929072e-08 -0.00061763957 -9.948438e-08)
(3.4082254e-09 -0.00061763966 -9.9531464e-08)
(5.9214557e-08 -0.00061764402 -9.9489977e-08)
(2.2123028e-07 -0.00061766343 -9.9381593e-08)
(1.6504191e-07 -0.00061760797 -9.914154e-08)
(-1.6505925e-07 -0.00068268399 -1.0582312e-07)
(-2.1774389e-07 -0.00068275208 -1.0596055e-07)
(-5.8680808e-08 -0.00068273036 -1.0600575e-07)
(-3.3459266e-09 -0.00068272385 -1.0597727e-07)
(-5.0468753e-08 -0.00068272374 -1.0597694e-07)
(5.0097467e-08 -0.00068272369 -1.0604136e-07)
(3.6586159e-09 -0.00068272372 -1.0608818e-07)
(5.9531754e-08 -0.00068273023 -1.0604686e-07)
(2.1861816e-07 -0.00068275207 -1.0593554e-07)
(1.6547156e-07 -0.00068268428 -1.0575427e-07)
(-7.90808e-08 -0.00063176156 5.9232639e-08)
(-2.1402469e-07 -0.00063183965 5.914221e-08)
(-5.8295005e-08 -0.00063181624 5.9101369e-08)
(-3.2960573e-09 -0.00063180754 5.9129626e-08)
(-5.0483108e-08 -0.00063180751 5.913001e-08)
(5.0114066e-08 -0.00063180745 5.9065984e-08)
(3.6099683e-09 -0.00063180737 5.9019175e-08)
(5.9143786e-08 -0.00063181607 5.9060494e-08)
(2.1489319e-07 -0.00063183964 5.9166997e-08)
(7.9488952e-08 -0.00063176192 5.9301014e-08)
(-1.2857671e-07 -0.00067346801 -4.8148728e-08)
(-2.0959507e-07 -0.00067355845 -4.8259085e-08)
(-5.7972214e-08 -0.00067353413 -4.8304235e-08)
(-3.1810792e-09 -0.00067352323 -4.8276035e-08)
(-5.0483758e-08 -0.00067352332 -4.8275568e-08)
(5.0117836e-08 -0.00067352325 -4.8339224e-08)
(3.4964052e-09 -0.00067352303 -4.8385938e-08)
(5.8818819e-08 -0.00067353392 -4.8344797e-08)
(2.104564e-07 -0.00067355845 -4.823431e-08)
(1.2897971e-07 -0.00067346845 -4.8080814e-08)
(-8.0647006e-08 -0.00064111278 4.0298431e-08)
(-2.0551617e-07 -0.00064121137 4.0210214e-08)
(-5.7426205e-08 -0.00064118543 4.0169275e-08)
(-3.0336342e-09 -0.00064117229 4.0197239e-08)
(-5.0484868e-08 -0.00064117255 4.0197696e-08)
(5.0122798e-08 -0.00064117246 4.0134505e-08)
(3.350835e-09 -0.00064117204 4.0087972e-08)
(5.8270219e-08 -0.00064118518 4.0129037e-08)
(2.0636876e-07 -0.00064121136 4.0234899e-08)
(8.1043591e-08 -0.0006411133 4.0365781e-08)
(-1.1166608e-07 -0.00066802687 -2.9617217e-08)
(-2.0130549e-07 -0.00066813689 -2.9721146e-08)
(-5.6992863e-08 -0.00066811094 -2.976591e-08)
(-2.8583828e-09 -0.00066809553 -2.9738122e-08)
(-5.0488487e-08 -0.00066809603 -2.9737433e-08)
(5.0130889e-08 -0.00066809592 -2.9800301e-08)
(3.1776679e-09 -0.00066809525 -2.984659e-08)
(5.7833605e-08 -0.00066811065 -2.9805584e-08)
(2.0214758e-07 -0.00066813688 -2.9696625e-08)
(1.1205577e-07 -0.00066802747 -2.955046e-08)
(-8.0283815e-08 -0.00064753118 2.5791354e-08)
(-1.9723082e-07 -0.00064764786 2.5703315e-08)
(-5.6369618e-08 -0.00064762089 2.5662035e-08)
(-2.6539781e-09 -0.00064760317 2.5689716e-08)
(-5.0495181e-08 -0.00064760397 2.5690273e-08)
(5.0142828e-08 -0.00064760385 2.5628018e-08)
(2.975853e-09 -0.00064760286 2.5582112e-08)
(5.7206581e-08 -0.00064762057 2.5622707e-08)
(1.9806067e-07 -0.00064764785 2.5727668e-08)
(8.066536e-08 -0.00064753186 2.5857314e-08)
(-9.8435097e-08 -0.00066499982 -1.8007819e-08)
(-1.9318645e-07 -0.00066512615 -1.8106462e-08)
(-5.5840215e-08 -0.00066510004 -1.8150756e-08)
(-2.4213407e-09 -0.00066507996 -1.8123482e-08)
(-5.0506234e-08 -0.00066508113 -1.8122856e-08)
(5.0159727e-08 -0.000665081 -1.8184256e-08)
(2.7458935e-09 -0.00066507961 -1.8229918e-08)
(5.6673108e-08 -0.00066509969 -1.8189276e-08)
(1.9400261e-07 -0.00066512615 -1.8082318e-08)
(9.8807407e-08 -0.00066500057 -1.794271e-08)
(-7.7539798e-08 -0.00065210957 1.6519096e-08)
(-1.8916108e-07 -0.00065224101 1.6431863e-08)
(-5.5157193e-08 -0.00065221487 1.639021e-08)
(-2.158957e-09 -0.00065219238 1.6417239e-08)
(-5.0522441e-08 -0.000652194 1.6417927e-08)
(5.0182634e-08 -0.00065219386 1.6357287e-08)
(2.486607e-09 -0.000652192 1.6312022e-08)
(5.598528e-08 -0.00065221448 1.6352284e-08)
(1.8996196e-07 -0.00065224101 1.6455843e-08)
(7.7901741e-08 -0.00065211039 1.6583371e-08)
(-8.7487602e-08 -0.0006635273 -1.0643267e-08)
(-1.8522983e-07 -0.00066366613 -1.0737281e-08)
(-5.4549589e-08 -0.00066364177 -1.0781058e-08)
(-1.8672797e-09 -0.00066361684 -1.0754477e-08)
(-5.0545482e-08 -0.00066361898 -1.0753713e-08)
(5.0212898e-08 -0.00066361883 -1.0813489e-08)
(2.1984896e-09 -0.00066361643 -1.085838e-08)
(5.5372291e-08 -0.00066364135 -1.0818286e-08)
(1.860138e-07 -0.00066366614 -1.0713444e-08)
(8.7838214e-08 -0.00066352819 -1.0579977e-08)
(-7.3239085e-08 -0.00065553717 1.0650434e-08)
(-1.8126597e-07 -0.00065567942 1.0564657e-08)
(-5.3827417e-08 -0.00065565621 1.0522818e-08)
(-1.5453823e-09 -0.00065562878 1.0549356e-08)
(-5.0576282e-08 -0.00065563154 1.0550095e-08)
(5.025178e-08 -0.00065563137 1.0491088e-08)
(1.8803025e-09 -0.00065562834 1.0446589e-08)
(5.4644428e-08 -0.00065565575 1.0486329e-08)
(1.8203151e-07 -0.00065567943 1.0588046e-08)
(7.3576999e-08 -0.00065553812 1.0712681e-08)
(-7.7981089e-08 -0.00066306951 -6.0073084e-09)
(-1.7740825e-07 -0.00066321673 -6.0969905e-09)
(-5.3166731e-08 -0.00066319626 -6.1404007e-09)
(-1.1939604e-09 -0.00066316632 -6.1143533e-09)
(-5.0616279e-08 -0.00066316976 -6.11349e-09)
(5.030043e-08 -0.00066316958 -6.171535e-09)
(1.5327498e-09 -0.00066316585 -6.2155355e-09)
(5.3977377e-08 -0.00066319578 -6.1760118e-09)
(1.7815375e-07 -0.00066321674 -6.0740094e-09)
(7.8305801e-08 -0.00066307053 -5.9464322e-09)
(-6.788627e-08 -0.00065824868 6.9651618e-09)
(-1.7350067e-07 -0.00065839758 6.8812074e-09)
(-5.242966e-08 -0.00065837949 6.839504e-09)
(-8.1191408e-10 -0.00065834701 6.8651516e-09)
(-5.0666652e-08 -0.00065835121 6.8659638e-09)
(5.0360196e-08 -0.00065835101 6.8090667e-09)
(1.1549901e-09 -0.00065834651 6.7654793e-09)
(5.3232898e-08 -0.00065837897 6.8047347e-09)
(1.7422458e-07 -0.0006583976 6.9040417e-09)
(6.8196964e-08 -0.00065824975 7.0247955e-09)
(-6.9321618e-08 -0.00066328622 -3.1167191e-09)
(-1.696863e-07 -0.00066343774 -3.2025571e-09)
(-5.1746671e-08 -0.00066342335 -3.2452103e-09)
(-4.0015177e-10 -0.00066338834 -3.2196653e-09)
(-5.072888e-08 -0.00066339336 -3.2187541e-09)
(5.0432449e-08 -0.00066339315 -3.2747325e-09)
(7.478616e-10 -0.00066338782 -3.3176772e-09)
(5.2542787e-08 -0.00066342281 -3.2791341e-09)
(1.7038712e-07 -0.00066343777 -3.1801681e-09)
(6.9616652e-08 -0.00066328736 -3.0583959e-09)
(-6.1764496e-08 -0.0006605195 4.6727255e-09)
(-1.6582018e-07 -0.00066067105 4.5911087e-09)
(-5.1021085e-08 -0.00066066018 4.5493918e-09)
(4.1886954e-11 -0.00066062265 4.5742401e-09)
(-5.0803873e-08 -0.00066062854 4.575427e-09)
(5.0518086e-08 -0.00066062832 4.5206744e-09)
(3.1068608e-10 -0.0006606221 4.4783344e-09)
(5.1809215e-08 -0.00066065962 4.5167288e-09)
(1.6649621e-07 -0.00066067109 4.6133692e-09)
(6.2043401e-08 -0.00066052068 4.729699e-09)
(-6.1084438e-08 -0.00066396095 -1.3360156e-09)
(-1.6202507e-07 -0.00066411306 -1.4182474e-09)
(-5.034817e-08 -0.00066410675 -1.4604508e-09)
(5.1302059e-10 -0.00066406674 -1.4356121e-09)
(-5.0892782e-08 -0.00066407355 -1.4345603e-09)
(5.0618487e-08 -0.00066407332 -1.4879925e-09)
(-1.5540545e-10 -0.00066406617 -1.5299109e-09)
(5.1127499e-08 -0.00066410617 -1.4922515e-09)
(1.6267552e-07 -0.00066411311 -1.3965223e-09)
(6.1346027e-08 -0.00066396219 -1.280657e-09)
(-5.5018471e-08 -0.00066252509 3.2629747e-09)
(-1.5818272e-07 -0.00066267588 3.1840851e-09)
(-4.9663172e-08 -0.00066267402 3.1425516e-09)
(1.0136199e-09 -0.00066263159 3.1667683e-09)
(-5.0996641e-08 -0.00066263935 3.1681396e-09)
(5.0734306e-08 -0.0006626391 3.1158668e-09)
(-6.5090967e-10 -0.000662631 3.0746877e-09)
(5.0432913e-08 -0.00066267341 3.1120668e-09)
(1.5880596e-07 -0.00066267593 3.2054359e-09)
(5.5262726e-08 -0.00066252637 3.3169004e-09)
(-5.2963614e-08 -0.00066495385 -2.5634751e-10)
(-1.5438866e-07 -0.00066510367 -3.3472434e-10)
(-4.9032623e-08 -0.00066510698 -3.7612055e-10)
(1.542342e-09 -0.00066506223 -3.5176242e-10)
(-5.1115946e-08 -0.00066507093 -3.507403e-10)
(5.0866455e-08 -0.00066507068 -4.0149261e-10)
(-1.1740893e-09 -0.00066506162 -4.421222e-10)
(4.9792675e-08 -0.00066510636 -4.0589466e-10)
(1.5498309e-07 -0.00066510373 -3.136576e-10)
(5.3189035e-08 -0.00066495517 -2.0384242e-10)
(-4.7719863e-08 -0.00066437769 2.4074009e-09)
(-1.5055453e-07 -0.00066452534 2.3317219e-09)
(-4.8414027e-08 -0.00066453371 2.290986e-09)
(2.0989919e-09 -0.00066448674 2.3147019e-09)
(-5.1251201e-08 -0.00066449638 2.3159998e-09)
(5.101503e-08 -0.00066449611 2.2665786e-09)
(-1.7252102e-09 -0.00066448611 2.226589e-09)
(4.9163538e-08 -0.00066453307 2.2624455e-09)
(1.5111926e-07 -0.00066452541 2.3523063e-09)
(4.7926127e-08 -0.00066437904 2.4582805e-09)
(-4.4750383e-08 -0.00066617277 3.8578657e-10)
(-1.4675094e-07 -0.00066631864 3.1119703e-10)
(-4.7852792e-08 -0.00066633246 2.706542e-10)
(2.681857e-09 -0.00066628342 2.941884e-10)
(-5.140223e-08 -0.00066629397 2.9565048e-10)
(5.1180278e-08 -0.00066629368 2.4752105e-10)
(-2.3024808e-09 -0.00066628277 2.0844082e-10)
(4.8591071e-08 -0.00066633181 2.4332844e-10)
(1.4728478e-07 -0.00066631872 3.313956e-10)
(4.4936696e-08 -0.00066617416 4.351679e-10)
(-3.9911782e-08 -0.00066614901 1.8954219e-09)
(-1.4291681e-07 -0.00066629255 1.823467e-09)
(-4.7321803e-08 -0.00066631159 1.7835649e-09)
(3.290617e-09 -0.00066626065 1.8067793e-09)
(-5.1569146e-08 -0.00066627205 1.8082658e-09)
(5.1361887e-08 -0.00066627176 1.7616287e-09)
(-2.9054834e-09 -0.00066625998 1.7234346e-09)
(4.8048638e-08 -0.00066631094 1.7573121e-09)
(1.4341856e-07 -0.00066629264 1.8431589e-09)
(4.0077362e-08 -0.00066615043 1.9431253e-09)
(-3.6318467e-08 -0.00066755572 7.5823106e-10)
(-1.3910254e-07 -0.00066769748 6.8770713e-10)
(-4.6849554e-08 -0.00066772182 6.4857728e-10)
(3.9233903e-09 -0.00066766916 6.7138699e-10)
(-5.1751101e-08 -0.00066768134 6.7284667e-10)
(5.1559509e-08 -0.00066768103 6.2776566e-10)
(-3.5327571e-09 -0.00066766847 5.9032112e-10)
(4.7564161e-08 -0.00066772116 6.2345772e-10)
(1.395712e-07 -0.00066769759 7.0733785e-10)
(3.6462948e-08 -0.00066755717 8.0423535e-10)
(-3.1642263e-08 -0.00066788462 1.5931288e-09)
(-1.352698e-07 -0.00066802464 1.5251019e-09)
(-4.6418189e-08 -0.0006680539 1.4866825e-09)
(4.5794367e-09 -0.00066799971 1.5091575e-09)
(-5.1947365e-08 -0.00066801259 1.5108453e-09)
(5.1772015e-08 -0.00066801227 1.467321e-09)
(-4.1831842e-09 -0.000667999 1.4308045e-09)
(4.7119821e-08 -0.00066805323 1.4625997e-09)
(1.3570473e-07 -0.00066802475 1.5442923e-09)
(3.176488e-08 -0.00066788608 1.6376196e-09)
(-2.7622058e-08 -0.0006690603 9.6739083e-10)
(-1.3145436e-07 -0.00066919936 9.0142036e-10)
(-4.6043073e-08 -0.00066923331 8.6359282e-10)
(5.2571961e-09 -0.00066917782 8.8545246e-10)
(-5.2156706e-08 -0.00066919129 8.8741601e-10)
(5.1998245e-08 -0.00066919096 8.455351e-10)
(-4.8553637e-09 -0.0006691771 8.0987071e-10)
(4.6730996e-08 -0.00066923265 8.4087431e-10)
(1.318545e-07 -0.00066919949 9.2020391e-10)
(2.7722734e-08 -0.00066906178 1.0101185e-09)
(-2.2985271e-08 -0.00066961311 1.4162615e-09)
(-1.276356e-07 -0.00066975173 1.3529313e-09)
(-4.5711091e-08 -0.00066978984 1.3160094e-09)
(5.955245e-09 -0.00066973327 1.3377434e-09)
(-5.2377537e-08 -0.00066974721 1.3396087e-09)
(5.2236823e-08 -0.00066974687 1.2994755e-09)
(-5.5480305e-09 -0.00066973252 1.2649311e-09)
(4.6384501e-08 -0.00066978917 1.2945006e-09)
(1.2800004e-07 -0.00066975187 1.3713274e-09)
(2.306389e-08 -0.00066961461 1.4573151e-09)
(-1.8685297e-08 -0.00067065741 1.0794084e-09)
(-1.2383872e-07 -0.00067079657 1.0183169e-09)
(-4.5428039e-08 -0.00067083837 9.8226092e-10)
(6.6725903e-09 -0.00067078093 1.003537e-09)
(-5.2608408e-08 -0.00067079524 1.0056174e-09)
(5.2486083e-08 -0.00067079488 9.6705759e-10)
(-6.2601759e-09 -0.00067078018 9.335566e-10)
(4.6086603e-08 -0.00067083772 9.6197437e-10)
(1.2416688e-07 -0.00067079673 1.0361246e-09)
(1.8741172e-08 -0.00067065892 1.1185143e-09)
(-1.4049359e-08 -0.00067135248 1.3130607e-09)
(-1.2005511e-07 -0.00067149299 1.2546391e-09)
(-4.5182323e-08 -0.00067153785 1.21957e-09)
(7.4079003e-09 -0.00067147974 1.2404856e-09)
(-5.2847574e-08 -0.00067149428 1.242878e-09)
(5.2744185e-08 -0.00067149391 1.2062854e-09)
(-6.9905299e-09 -0.00067147896 1.1738083e-09)
(4.5825572e-08 -0.00067153721 1.2005925e-09)
(1.2034659e-07 -0.00067149316 1.2723042e-09)
(1.4082158e-08 -0.000671354 1.3504878e-09)
(-9.5913497e-09 -0.0006723277 1.1347279e-09)
(-1.1630423e-07 -0.00067247061 1.0791722e-09)
(-4.4973483e-08 -0.00067251795 1.0451182e-09)
(8.160589e-09 -0.00067245933 1.0656436e-09)
(-5.3092844e-08 -0.000672474 1.0680367e-09)
(5.3009214e-08 -0.00067247363 1.0332836e-09)
(-7.7385424e-09 -0.00067245855 1.0023635e-09)
(4.5600056e-08 -0.00067251732 1.0275374e-09)
(1.1655858e-07 -0.00067247079 1.0964799e-09)
(9.6012993e-09 -0.00067232922 1.1705183e-09)
(-4.9700679e-09 -0.00067311458 1.2515361e-09)
(-1.125839e-07 -0.00067326078 1.1987066e-09)
(-4.4789862e-08 -0.00067330997 1.165763e-09)
(8.9299029e-09 -0.00067325097 1.1857027e-09)
(-5.3342821e-08 -0.00067326567 1.1883253e-09)
(5.3279241e-08 -0.00067326529 1.1557024e-09)
(-8.5036054e-09 -0.00067325018 1.1260665e-09)
(4.5399422e-08 -0.00067330936 1.149913e-09)
(1.1280124e-07 -0.00067326097 1.2158009e-09)
(4.9569222e-09 -0.0006731161 1.2853853e-09)
(-4.5846519e-10 -0.00067405938 1.1582041e-09)
(-1.0890956e-07 -0.00067420979 1.1083393e-09)
(-4.4626839e-08 -0.00067426027 1.07686e-09)
(9.7156605e-09 -0.00067420098 1.0962457e-09)
(-5.3595789e-08 -0.00067421564 1.0989417e-09)
(5.3553303e-08 -0.00067421526 1.0684224e-09)
(-9.2858092e-09 -0.00067420019 1.0403098e-09)
(4.5218701e-08 -0.00067425969 1.0622801e-09)
(1.0908946e-07 -0.00067421 1.1249626e-09)
(4.2196942e-10 -0.0006740609 1.1902853e-09)
(4.109379e-09 -0.00067490834 1.2131836e-09)
(-1.0528239e-07 -0.00067506368 1.166294e-09)
(-4.4473705e-08 -0.00067511493 1.1360614e-09)
(1.0518863e-08 -0.00067505537 1.1545614e-09)
(-5.3851123e-08 -0.00067506995 1.1573132e-09)
(5.3829726e-08 -0.00067506956 1.1291662e-09)
(-1.0085607e-08 -0.00067505458 1.1027515e-09)
(4.5047264e-08 -0.00067511438 1.1231318e-09)
(1.0542503e-07 -0.00067506392 1.1822248e-09)
(-4.1689944e-09 -0.00067490985 1.2428412e-09)
(8.5915682e-09 -0.000675847 1.1641044e-09)
(-1.0171252e-07 -0.00067600788 1.1205139e-09)
(-4.4324173e-08 -0.0006760595 1.0912846e-09)
(1.1340036e-08 -0.00067599963 1.109169e-09)
(-5.4108278e-08 -0.00067601411 1.1126039e-09)
(5.4108188e-08 -0.00067601372 1.086748e-09)
(-1.0904532e-08 -0.00067599885 1.0622345e-09)
(4.4878903e-08 -0.000676059 1.0805831e-09)
(1.0181831e-07 -0.00067600814 1.136306e-09)
(-8.6739538e-09 -0.0006758485 1.191915e-09)
(1.3066798e-08 -0.00067674186 1.1872393e-09)
(-9.8202168e-08 -0.00067690862 1.1468983e-09)
(-4.4168902e-08 -0.00067696034 1.1192493e-09)
(1.2181314e-08 -0.00067690004 1.1361499e-09)
(-5.436712e-08 -0.00067691444 1.1394228e-09)
(5.4388642e-08 -0.00067691405 1.1163595e-09)
(-1.1743842e-08 -0.00067689927 1.0937077e-09)
(4.4704379e-08 -0.00067695988 1.1099102e-09)
(9.8271159e-08 -0.00067690892 1.1619703e-09)
(-1.3171695e-08 -0.00067674334 1.2125834e-09)
(1.7466609e-08 -0.00067769046 1.1608364e-09)
(-9.4756202e-08 -0.00067786325 1.1237136e-09)
(-4.4002687e-08 -0.00067791493 1.0976904e-09)
(1.3044744e-08 -0.00067785402 1.1138143e-09)
(-5.4628667e-08 -0.0006778684 1.1171607e-09)
(5.4671619e-08 -0.00067786802 1.0969423e-09)
(-1.2606545e-08 -0.00067785328 1.0764382e-09)
(4.4518058e-08 -0.00067791452 1.090666e-09)
(9.4789534e-08 -0.00067786357 1.1385232e-09)
(-1.7593254e-08 -0.00067769193 1.1837093e-09)
(2.1830911e-08 -0.00067862343 1.1679009e-09)
(-9.1374222e-08 -0.00067880207 1.1340752e-09)
(-4.3818611e-08 -0.00067885374 1.1091269e-09)
(1.3933561e-08 -0.00067879197 1.123918e-09)
(-5.4894835e-08 -0.00067880644 1.1279984e-09)
(5.4958496e-08 -0.00067880607 1.1107698e-09)
(-1.3495276e-08 -0.00067879127 1.0925048e-09)
(4.4314004e-08 -0.0006788534 1.1042498e-09)
(9.1372761e-08 -0.00067880243 1.1482292e-09)
(-2.1978851e-08 -0.00067862488 1.1880239e-09)
(2.6135303e-08 -0.00067959441 1.1535003e-09)
(-8.8056824e-08 -0.00067977848 1.1229466e-09)
(-4.3614268e-08 -0.00067983033 1.0998693e-09)
(1.485141e-08 -0.0006797674 1.1135533e-09)
(-5.5167231e-08 -0.00067978209 1.1173955e-09)
(5.5251441e-08 -0.00067978173 1.103614e-09)
(-1.441417e-08 -0.00067976674 1.0876159e-09)
(4.4088796e-08 -0.00067983006 1.0973182e-09)
(8.8021568e-08 -0.00067977888 1.1368107e-09)
(-2.6303477e-08 -0.00067959583 1.1709204e-09)
(3.0405017e-08 -0.00068056108 1.1510867e-09)
(-8.4799671e-08 -0.00068074986 1.1239778e-09)
(-4.3386782e-08 -0.00068080226 1.1022065e-09)
(1.5802239e-08 -0.0006807378 1.1144438e-09)
(-5.5449865e-08 -0.00068075287 1.118794e-09)
(5.5553162e-08 -0.00068075254 1.1082522e-09)
(-1.5367236e-08 -0.00068073719 1.0950126e-09)
(4.3840743e-08 -0.00068080206 1.1024315e-09)
(8.4732374e-08 -0.00068075031 1.1371773e-09)
(-3.0592452e-08 -0.00068056248 1.1654168e-09)
(3.4648868e-08 -0.00068156873 1.146438e-09)
(-8.1597221e-08 -0.00068176132 1.1227619e-09)
(-4.3137716e-08 -0.00068181473 1.1024973e-09)
(1.6791084e-08 -0.00068174838 1.1130476e-09)
(-5.5746331e-08 -0.00068176402 1.1175997e-09)
(5.5867613e-08 -0.00068176371 1.1109026e-09)
(-1.6359489e-08 -0.00068174783 1.1001041e-09)
(4.3570684e-08 -0.00068181462 1.1051112e-09)
(8.1499501e-08 -0.00068176182 1.1354315e-09)
(-3.4854265e-08 -0.0006815701 1.1576644e-09)
(3.8879103e-08 -0.00068255861 1.1319385e-09)
(-7.8442962e-08 -0.00068275374 1.1115411e-09)
(-4.2868624e-08 -0.00068280884 1.0929008e-09)
(1.7822272e-08 -0.00068274016 1.1019087e-09)
(-5.6060438e-08 -0.00068275659 1.1064289e-09)
(5.6198078e-08 -0.00068275631 1.1036366e-09)
(-1.7395361e-08 -0.00068273969 1.095764e-09)
(4.3280721e-08 -0.00068280882 1.0983579e-09)
(7.8316819e-08 -0.0006827543 1.1234618e-09)
(-3.9100944e-08 -0.00068255994 1.1394706e-09)
(4.3148764e-08 -0.00068363404 1.1487052e-09)
(-7.5323411e-08 -0.00068383064 1.1315185e-09)
(-4.2586183e-08 -0.00068388798 1.1138296e-09)
(1.8901862e-08 -0.00068381665 1.1209621e-09)
(-5.6398731e-08 -0.00068383404 1.1261914e-09)
(5.6550323e-08 -0.0006838338 1.1274616e-09)
(-1.8481135e-08 -0.00068381627 1.1223678e-09)
(4.2977614e-08 -0.00068388807 1.1229233e-09)
(7.5171145e-08 -0.00068383126 1.1431401e-09)
(-4.3385433e-08 -0.00068363534 1.1527632e-09)
(4.7417876e-08 -0.00068460167 1.0956434e-09)
(-7.2234448e-08 -0.00068479785 1.0815146e-09)
(-4.2292755e-08 -0.00068485847 1.0655835e-09)
(2.0031807e-08 -0.00068478397 1.070868e-09)
(-5.6763019e-08 -0.00068480259 1.0758704e-09)
(5.6926476e-08 -0.00068480239 1.0813086e-09)
(-1.9618651e-08 -0.00068478368 1.0793501e-09)
(4.2663766e-08 -0.00068485866 1.077571e-09)
(7.2058528e-08 -0.00068479854 1.0921521e-09)
(-4.7667505e-08 -0.00068460293 1.0956112e-09)
(5.186177e-08 -0.00068584464 1.1889026e-09)
(-6.9148e-08 -0.00068603989 1.1783448e-09)
(-4.2006475e-08 -0.00068610398 1.1634083e-09)
(2.1223204e-08 -0.00068602627 1.1664947e-09)
(-5.7164105e-08 -0.0006860462 1.1717675e-09)
(5.7336281e-08 -0.00068604604 1.1814937e-09)
(-2.0818865e-08 -0.00068602608 1.1828101e-09)
(4.2357477e-08 -0.00068610428 1.1784283e-09)
(6.8951129e-08 -0.00068604064 1.1881665e-09)
(-5.2122494e-08 -0.00068584586 1.1849187e-09)
(5.6217777e-08 -0.00068661222 9.8952847e-10)
(-6.6080614e-08 -0.0006868033 9.8100846e-10)
(-4.1716074e-08 -0.00068687269 9.6763674e-10)
(2.2466028e-08 -0.00068679091 9.685325e-10)
(-5.7596739e-08 -0.00068681257 9.7437001e-10)
(5.7774441e-08 -0.00068681246 9.8844986e-10)
(-2.2072214e-08 -0.00068679084 9.9301588e-10)
(4.204732e-08 -0.00068687311 9.8669498e-10)
(6.5865917e-08 -0.00068680413 9.9035787e-10)
(-5.6487203e-08 -0.00068661341 9.8129196e-10)
(6.1104152e-08 -0.00068836625 1.3649021e-09)
(-6.2957785e-08 -0.00068855535 1.3607532e-09)
(-4.1474731e-08 -0.00068862861 1.3476372e-09)
(2.3792116e-08 -0.00068854367 1.34677e-09)
(-5.8085318e-08 -0.00068856674 1.352218e-09)
(5.8265275e-08 -0.00068856669 1.3708591e-09)
(-2.3409981e-08 -0.00068854372 1.378852e-09)
(4.178721e-08 -0.00068862914 1.3697634e-09)
(6.2727954e-08 -0.00068855625 1.3689436e-09)
(-6.1380184e-08 -0.0006883674 1.3518428e-09)
(6.5407208e-08 -0.00068831114 6.365876e-10)
(-5.9886984e-08 -0.00068849032 6.3248693e-10)
(-4.120706e-08 -0.00068857208 6.2198453e-10)
(2.5146526e-08 -0.00068848169 6.1825594e-10)
(-5.8593627e-08 -0.00068850718 6.2419819e-10)
(5.8772026e-08 -0.00068850718 6.4725845e-10)
(-2.4777851e-08 -0.00068848185 6.5816272e-10)
(4.1500998e-08 -0.00068857272 6.4783372e-10)
(5.964512e-08 -0.0006884913 6.4012019e-10)
(-6.5687241e-08 -0.00068831225 6.1922527e-10)
(7.1352361e-08 -0.00069170448 1.9928101e-09)
(-5.6616041e-08 -0.00069188511 1.9960826e-09)
(-4.1093582e-08 -0.00069196841 1.9832702e-09)
(2.6644353e-08 -0.00069187658 1.9786395e-09)
(-5.9206257e-08 -0.00069190287 1.9844887e-09)
(5.9378621e-08 -0.00069190293 2.0119729e-09)
(-2.6289933e-08 -0.00069187686 2.0267334e-09)
(4.1370235e-08 -0.00069196915 2.0128007e-09)
(5.6365683e-08 -0.00069188615 2.0026041e-09)
(-7.1634024e-08 -0.00069170555 1.9702109e-09)
(7.4835601e-08 -0.00068884591 -5.1156791e-10)
(-5.3590959e-08 -0.00068900413 -5.1494192e-10)
(-4.0822851e-08 -0.00068910313 -5.2135914e-10)
(2.806583e-08 -0.00068900236 -5.3101757e-10)
(-5.9767337e-08 -0.00068903265 -5.2412533e-10)
(5.9930307e-08 -0.00068903277 -4.9238759e-10)
(-2.7727644e-08 -0.00068900276 -4.7558192e-10)
(4.1082798e-08 -0.00068910398 -4.8837968e-10)
(5.3334313e-08 -0.00068900525 -5.0916512e-10)
(-7.5116879e-08 -0.00068884695 -5.3893764e-10)
(8.3518212e-08 -0.00069728498 3.998508e-09)
(-4.9931043e-08 -0.000697461 4.0141203e-09)
(-4.1013718e-08 -0.0006975515 3.9980616e-09)
(2.9831269e-08 -0.00069745544 3.9917661e-09)
(-6.0582368e-08 -0.00069748405 3.9966878e-09)
(6.0730897e-08 -0.00069748422 4.0326245e-09)
(-2.9509491e-08 -0.00069745596 4.0546523e-09)
(4.1258308e-08 -0.00069755245 4.0348168e-09)
(4.9672099e-08 -0.00069746218 4.0185359e-09)
(-8.3796521e-08 -0.000697286 3.9658508e-09)
(8.3592615e-08 -0.00068592784 -3.9690245e-09)
(-4.7238093e-08 -0.00068604952 -3.9799948e-09)
(-4.0560004e-08 -0.00068617452 -3.9779971e-09)
(3.115301e-08 -0.00068605944 -3.9958701e-09)
(-6.1083605e-08 -0.00068609639 -3.9869128e-09)
(6.1214823e-08 -0.00068609664 -3.9470351e-09)
(-3.0850482e-08 -0.00068606006 -3.9260555e-09)
(4.0789617e-08 -0.00068617555 -3.938354e-09)
(4.6978279e-08 -0.00068605074 -3.976044e-09)
(-8.3866399e-08 -0.00068592881 -4.0058862e-09)
(9.9586063e-08 -0.00070865524 9.7621402e-09)
(-4.2573774e-08 -0.00070884377 9.802381e-09)
(-4.1481934e-08 -0.00070893086 9.7756182e-09)
(3.3468876e-08 -0.00070883786 9.772131e-09)
(-6.2316402e-08 -0.00070886586 9.7743009e-09)
(6.2424486e-08 -0.00070886612 9.8180127e-09)
(-3.3183391e-08 -0.00070883859 9.8484773e-09)
(4.1698192e-08 -0.00070893198 9.8187031e-09)
(4.2317648e-08 -0.00070884507 9.8051781e-09)
(-9.9852474e-08 -0.00070865621 9.7204852e-09)
(8.9090616e-08 -0.00067430025 -1.3309466e-08)
(-4.1132483e-08 -0.00067435444 -1.3347358e-08)
(-4.026151e-08 -0.0006745232 -1.3326298e-08)
(3.4203543e-08 -0.00067438454 -1.3358032e-08)
(-6.240688e-08 -0.00067443226 -1.3344514e-08)
(6.2490729e-08 -0.00067443263 -1.3297315e-08)
(-3.3941253e-08 -0.00067438533 -1.3275564e-08)
(4.0464853e-08 -0.00067452436 -1.328028e-08)
(4.0879283e-08 -0.00067435575 -1.3345615e-08)
(-8.934919e-08 -0.00067430115 -1.3354866e-08)
(1.2369814e-07 -0.00073320249 2.4358998e-08)
(-3.3890139e-08 -0.00073344327 2.445153e-08)
(-4.2946728e-08 -0.0007335034 2.4397772e-08)
(3.7836357e-08 -0.00073342864 2.4406731e-08)
(-6.4630976e-08 -0.00073344967 2.4402414e-08)
(6.4683042e-08 -0.00073345 2.4452698e-08)
(-3.7588365e-08 -0.00073342955 2.4494578e-08)
(4.3138528e-08 -0.00073350464 2.4446056e-08)
(3.3646379e-08 -0.00073344466 2.4451895e-08)
(-1.2394535e-07 -0.00073320345 2.4309705e-08)
(8.5971408e-08 -0.00064418321 -3.5287994e-08)
(-3.6061531e-08 -0.00064411428 -3.5388708e-08)
(-3.950186e-08 -0.0006443584 -3.532892e-08)
(3.6770862e-08 -0.00064417831 -3.53854e-08)
(-6.3415603e-08 -0.0006442446 -3.5362102e-08)
(6.3439307e-08 -0.00064424509 -3.5309119e-08)
(-3.6552644e-08 -0.00064417921 -3.5292894e-08)
(3.9681858e-08 -0.00064435963 -3.527809e-08)
(3.5822325e-08 -0.00064411561 -3.5389053e-08)
(-8.620869e-08 -0.00064418403 -3.5340228e-08)
(1.6299431e-07 -0.00078302656 5.6133591e-08)
(-2.2658888e-08 -0.00078338693 5.6322458e-08)
(-4.6167691e-08 -0.00078338172 5.6218019e-08)
(4.3487841e-08 -0.00078334976 5.6254205e-08)
(-6.7956743e-08 -0.0007833533 5.623746e-08)
(6.7940308e-08 -0.00078335365 5.6292566e-08)
(-4.3276635e-08 -0.0007833508 5.6350453e-08)
(4.6338434e-08 -0.00078338302 5.6270421e-08)
(2.2435549e-08 -0.00078338838 5.6321292e-08)
(-1.6321625e-07 -0.00078302751 5.607867e-08)
(6.5946549e-08 -0.0005816084 -7.9396703e-08)
(-3.3483723e-08 -0.00058133534 -7.9610377e-08)
(-3.7526731e-08 -0.00058169926 -7.9485102e-08)
(3.8093404e-08 -0.00058145153 -7.9580583e-08)
(-6.3540359e-08 -0.0005815479 -7.9541333e-08)
(6.3494766e-08 -0.00058154849 -7.9484532e-08)
(-3.7922869e-08 -0.00058145245 -7.9481915e-08)
(3.7686136e-08 -0.0005817005 -7.9431532e-08)
(3.3262427e-08 -0.00058133664 -7.961263e-08)
(-6.615808e-08 -0.00058160912 -7.9453728e-08)
(2.2691604e-07 -0.00087317698 1.1495272e-07)
(-6.973504e-09 -0.00087374624 1.1529154e-07)
(-5.2218484e-08 -0.00087362735 1.1511011e-07)
(5.1281058e-08 -0.00087366933 1.1519042e-07)
(-7.2963772e-08 -0.00087364181 1.1515489e-07)
(7.2870666e-08 -0.00087364214 1.1521259e-07)
(-5.1102059e-08 -0.00087367044 1.1529153e-07)
(5.237042e-08 -0.00087362866 1.1516471e-07)
(6.7764989e-09 -0.00087374773 1.1528888e-07)
(-2.27109e-07 -0.00087317791 1.148947e-07)
(1.9397137e-08 -0.00047131949 -1.5494119e-07)
(-3.5520997e-08 -0.00047074416 -1.5531939e-07)
(-3.3316622e-08 -0.00047127892 -1.5510618e-07)
(3.7139577e-08 -0.0004709327 -1.552531e-07)
(-6.198814e-08 -0.00047107283 -1.5519116e-07)
(6.1869003e-08 -0.0004710735 -1.5513288e-07)
(-3.7019944e-08 -0.00047093355 -1.5515174e-07)
(3.3456684e-08 -0.00047128008 -1.5505119e-07)
(3.5318927e-08 -0.00047074534 -1.5532333e-07)
(-1.9580199e-08 -0.00047132008 -1.5500021e-07)
(3.2515033e-07 -0.0010183611 2.0868731e-07)
(1.5676385e-08 -0.0010192413 2.0922559e-07)
(-6.2393947e-08 -0.0010189566 2.0894849e-07)
(6.2298686e-08 -0.0010191062 2.0908588e-07)
(-8.0511123e-08 -0.0010190327 2.0902614e-07)
(8.0339107e-08 -0.0010190329 2.0908377e-07)
(-6.2144499e-08 -0.0010191074 2.0918715e-07)
(6.2528678e-08 -0.0010189579 2.0900315e-07)
(-1.5843483e-08 -0.0010192427 2.0922181e-07)
(-3.2531265e-07 -0.001018362 2.086286e-07)
(-6.2603589e-08 -0.0002996241 -2.6775661e-07)
(-4.4817131e-08 -0.00029863751 -2.6834313e-07)
(-2.567093e-08 -0.00029939683 -2.6802738e-07)
(3.2699755e-08 -0.00029891938 -2.682326e-07)
(-5.780275e-08 -0.00029911802 -2.6814418e-07)
(5.7611347e-08 -0.00029911873 -2.6808669e-07)
(-3.2633799e-08 -0.00029892007 -2.6813328e-07)
(2.5792701e-08 -0.00029939784 -2.6797374e-07)
(4.4632429e-08 -0.0002986385 -2.6834804e-07)
(6.2450141e-08 -0.00029962452 -2.6781493e-07)
(4.6621068e-07 -0.0012310853 3.4089232e-07)
(4.8287348e-08 -0.0012323882 3.4166954e-07)
(-7.8170574e-08 -0.0012318834 3.4128842e-07)
(7.7788479e-08 -0.0012321754 3.4149003e-07)
(-9.161034e-08 -0.0012320401 3.4140349e-07)
(9.1363136e-08 -0.0012320403 3.4145869e-07)
(-7.7649471e-08 -0.0012321764 3.4158707e-07)
(7.8289661e-08 -0.0012318845 3.4134063e-07)
(-4.8422755e-08 -0.0012323896 3.4166481e-07)
(-4.6634279e-07 -0.0012310861 3.4083574e-07)
(-1.8767323e-07 -5.5147745e-05 -4.1918669e-07)
(-6.4453872e-08 -5.3629722e-05 -4.2001475e-07)
(-1.3183943e-08 -5.4670797e-05 -4.1959189e-07)
(2.341616e-08 -5.4027633e-05 -4.1985701e-07)
(-4.9883048e-08 -5.430051e-05 -4.1974064e-07)
(4.9626146e-08 -5.4301219e-05 -4.1968641e-07)
(-2.3405751e-08 -5.4028103e-05 -4.1976451e-07)
(1.3288149e-08 -5.4671614e-05 -4.1954201e-07)
(6.4282816e-08 -5.3630471e-05 -4.2002029e-07)
(1.8754958e-07 -5.5147983e-05 -4.1924182e-07)
(6.5757811e-07 -0.0015217985 5.1094609e-07)
(9.4319837e-08 -0.0015236481 5.1199226e-07)
(-1.0127932e-07 -0.001522864 5.1150793e-07)
(9.9174547e-08 -0.001523335 5.1177619e-07)
(-1.0743461e-07 -0.0015231213 5.1166187e-07)
(1.0712218e-07 -0.0015231213 5.1171201e-07)
(-9.9039394e-08 -0.001523336 5.1186467e-07)
(1.0138299e-07 -0.001522865 5.1155534e-07)
(-9.4422679e-08 -0.0015236493 5.119877e-07)
(-6.57682e-07 -0.0015217993 5.1089451e-07)
(-3.6274614e-07 0.0002718721 -6.0696992e-07)
(-9.7959878e-08 0.00027405698 -6.0806508e-07)
(5.8589356e-09 0.0002726704 -6.0753733e-07)
(7.7444299e-09 0.00027351665 -6.078608e-07)
(-3.6950592e-08 0.00027315231 -6.0771601e-07)