/*--------------------------------*- C++ -*----------------------------------*\
  =========                 |
  \\      /  F ield         | OpenFOAM: The Open Source CFD Toolbox
   \\    /   O peration     | Website:  https://openfoam.org
    \\  /    A nd           | Version:  8
     \\/     M anipulation  |
\*---------------------------------------------------------------------------*/
FoamFile
{
    version     2.0;
    format      ascii;
    class       volScalarField;
    location    "1";
    object      N;
}
// * * * * * * * * * * * * * * * * * * * * * * * * * * * * * * * * * * * * * //

dimensions      [0 -3 0 0 0 0 0];

internalField   nonuniform List<scalar> 
800
(
1920011.4
1919802.7
1919908.3
1919899.1
1919906
1919904.3
1919905.5
1919905.1
1919905.4
1919905.5
1919905.5
1919905.4
1919905.1
1919905.5
1919904.3
1919906
1919899.1
1919908.3
1919802.7
1920011.4
648.68487
624.18981
636.79942
635.1539
635.90357
635.50739
635.6478
635.60371
635.59459
635.51611
635.51611
635.59459
635.60371
635.64779
635.50738
635.90356
635.1539
636.79942
624.18979
648.68481
0.62127094
0.60151097
0.61186939
0.61019541
0.61097526
0.6105778
0.61067737
0.61065594
0.61062758
0.61057064
0.61057064
0.61062758
0.61065594
0.61067736
0.61057779
0.61097526
0.61019541
0.61186939
0.60151097
0.6212709
0.10041169
0.10039481
0.10040373
0.10040207
0.10040288
0.10040248
0.10040258
0.10040257
0.10040254
0.1004025
0.1004025
0.10040254
0.10040257
0.10040258
0.10040248
0.10040288
0.10040207
0.10040373
0.10039481
0.10041169
0.10001399
0.100014
0.100014
0.100014
0.100014
0.100014
0.100014
0.100014
0.100014
0.100014
0.100014
0.100014
0.100014
0.100014
0.100014
0.100014
0.100014
0.100014
0.100014
0.10001399
0.099927146
0.099927146
0.099927153
0.099927145
0.09992715
0.099927147
0.099927149
0.099927151
0.099927151
0.099927151
0.099927151
0.099927151
0.099927151
0.099927149
0.099927147
0.09992715
0.099927145
0.099927153
0.099927146
0.099927146
0.10005941
0.10005941
0.10005941
0.10005942
0.10005942
0.10005942
0.10005942
0.10005942
0.10005942
0.10005942
0.10005942
0.10005942
0.10005942
0.10005942
0.10005942
0.10005942
0.10005942
0.10005941
0.10005941
0.10005941
0.099889572
0.099889576
0.099889577
0.099889579
0.099889581
0.099889582
0.099889584
0.099889585
0.099889586
0.099889587
0.099889587
0.099889586
0.099889585
0.099889584
0.099889582
0.099889581
0.099889579
0.099889577
0.099889576
0.099889572
0.10013816
0.10013816
0.10013816
0.10013816
0.10013815
0.10013815
0.10013815
0.10013815
0.10013815
0.10013815
0.10013815
0.10013815
0.10013815
0.10013815
0.10013815
0.10013815
0.10013816
0.10013816
0.10013816
0.10013816
0.099769404
0.099769414
0.099769417
0.099769415
0.099769417
0.099769414
0.099769415
0.099769413
0.099769414
0.099769413
0.099769413
0.099769414
0.099769413
0.099769415
0.099769414
0.099769417
0.099769415
0.099769417
0.099769414
0.099769404
1919360.3
1919149.3
1919255.9
1919246.7
1919253.6
1919251.9
1919253.1
1919252.7
1919253
1919253.1
1919253.1
1919253
1919252.7
1919253.1
1919251.9
1919253.6
1919246.7
1919255.9
1919149.3
1919360.3
567.3039
543.98126
555.9696
554.39671
555.10618
554.72946
554.86369
554.82231
554.81308
554.73692
554.73692
554.81308
554.82231
554.86368
554.72946
555.10617
554.3967
555.9696
543.98124
567.30386
0.56033769
0.54179995
0.5514893
0.54993087
0.55065122
0.55028169
0.55037208
0.55035392
0.55032614
0.55027244
0.55027244
0.55032614
0.55035392
0.55037208
0.55028169
0.55065122
0.54993087
0.5514893
0.54179994
0.56033767
0.10036282
0.10034698
0.10035532
0.10035378
0.10035453
0.10035417
0.10035425
0.10035424
0.10035422
0.10035418
0.10035418
0.10035422
0.10035424
0.10035425
0.10035417
0.10035453
0.10035378
0.10035532
0.10034698
0.10036282
0.10001398
0.10001399
0.10001398
0.10001399
0.10001398
0.10001399
0.10001399
0.10001399
0.10001399
0.10001399
0.10001399
0.10001399
0.10001399
0.10001399
0.10001399
0.10001398
0.10001399
0.10001398
0.10001399
0.10001398
0.099927166
0.099927166
0.099927173
0.099927165
0.09992717
0.099927167
0.099927169
0.099927171
0.099927171
0.099927171
0.099927171
0.099927171
0.099927171
0.099927169
0.099927167
0.09992717
0.099927165
0.099927173
0.099927166
0.099927166
0.10005942
0.10005942
0.10005942
0.10005943
0.10005943
0.10005943
0.10005943
0.10005943
0.10005943
0.10005943
0.10005943
0.10005943
0.10005943
0.10005943
0.10005943
0.10005943
0.10005943
0.10005942
0.10005942
0.10005942
0.099889591
0.099889595
0.099889596
0.099889597
0.099889599
0.099889601
0.099889602
0.099889604
0.099889605
0.099889606
0.099889606
0.099889605
0.099889604
0.099889602
0.099889601
0.099889599
0.099889597
0.099889596
0.099889595
0.099889591
0.10013818
0.10013818
0.10013818
0.10013818
0.10013818
0.10013818
0.10013817
0.10013818
0.10013817
0.10013817
0.10013817
0.10013817
0.10013818
0.10013817
0.10013818
0.10013818
0.10013818
0.10013818
0.10013818
0.10013818
0.099769447
0.099769456
0.09976946
0.099769458
0.09976946
0.099769457
0.099769458
0.099769455
0.099769457
0.099769456
0.099769456
0.099769457
0.099769455
0.099769458
0.099769457
0.09976946
0.099769458
0.09976946
0.099769456
0.099769447
1919360.3
1919149.3
1919255.9
1919246.7
1919253.6
1919251.9
1919253.1
1919252.7
1919253
1919253.1
1919253.1
1919253
1919252.7
1919253.1
1919251.9
1919253.6
1919246.7
1919255.9
1919149.3
1919360.3
567.30391
543.98126
555.9696
554.3967
555.10618
554.72946
554.86368
554.82231
554.81308
554.73692
554.73692
554.81308
554.82231
554.86368
554.72946
555.10617
554.3967
555.9696
543.98125
567.30389
0.56033769
0.54179994
0.55148929
0.54993086
0.55065121
0.55028168
0.55037207
0.55035391
0.55032613
0.55027243
0.55027243
0.55032613
0.55035391
0.55037207
0.55028167
0.5506512
0.54993085
0.55148929
0.54179994
0.56033769
0.10036282
0.10034698
0.10035532
0.10035378
0.10035453
0.10035417
0.10035425
0.10035424
0.10035422
0.10035418
0.10035418
0.10035422
0.10035424
0.10035425
0.10035417
0.10035453
0.10035378
0.10035532
0.10034698
0.10036282
0.10001398
0.10001399
0.10001398
0.10001399
0.10001398
0.10001399
0.10001399
0.10001399
0.10001399
0.10001399
0.10001399
0.10001399
0.10001399
0.10001399
0.10001399
0.10001398
0.10001399
0.10001398
0.10001399
0.10001398
0.099927166
0.099927166
0.099927173
0.099927165
0.09992717
0.099927167
0.099927169
0.099927171
0.099927171
0.099927171
0.099927171
0.099927171
0.099927171
0.099927169
0.099927167
0.09992717
0.099927165
0.099927173
0.099927166
0.099927166
0.10005942
0.10005942
0.10005942
0.10005943
0.10005943
0.10005943
0.10005943
0.10005943
0.10005943
0.10005943
0.10005943
0.10005943
0.10005943
0.10005943
0.10005943
0.10005943
0.10005943
0.10005942
0.10005942
0.10005942
0.099889591
0.099889595
0.099889596
0.099889597
0.099889599
0.099889601
0.099889602
0.099889604
0.099889605
0.099889606
0.099889606
0.099889605
0.099889604
0.099889602
0.099889601
0.099889599
0.099889597
0.099889596
0.099889595
0.099889591
0.10013818
0.10013818
0.10013818
0.10013818
0.10013818
0.10013818
0.10013817
0.10013818
0.10013817
0.10013817
0.10013817
0.10013817
0.10013818
0.10013817
0.10013818
0.10013818
0.10013818
0.10013818
0.10013818
0.10013818
0.099769447
0.099769456
0.09976946
0.099769458
0.09976946
0.099769457
0.099769458
0.099769455
0.099769457
0.099769456
0.099769456
0.099769457
0.099769455
0.099769458
0.099769457
0.09976946
0.099769458
0.09976946
0.099769456
0.099769447
1920011.4
1919802.7
1919908.3
1919899.1
1919906
1919904.3
1919905.5
1919905.1
1919905.4
1919905.5
1919905.5
1919905.4
1919905.1
1919905.5
1919904.3
1919906
1919899.1
1919908.3
1919802.7
1920011.4
648.68482
624.18975
636.79937
635.15385
635.90352
635.50734
635.64774
635.60366
635.59454
635.51606
635.51606
635.59454
635.60366
635.64774
635.50733
635.90351
635.15385
636.79937
624.18975
648.68481
0.62127087
0.60151091
0.61186932
0.61019534
0.6109752
0.61057773
0.6106773
0.61065587
0.61062751
0.61057057
0.61057057
0.61062751
0.61065587
0.6106773
0.61057773
0.61097519
0.61019534
0.61186932
0.60151091
0.62127089
0.10041169
0.10039481
0.10040373
0.10040207
0.10040288
0.10040248
0.10040258
0.10040257
0.10040254
0.1004025
0.1004025
0.10040254
0.10040257
0.10040258
0.10040248
0.10040288
0.10040207
0.10040373
0.10039481
0.10041169
0.10001399
0.100014
0.100014
0.100014
0.100014
0.100014
0.100014
0.100014
0.100014
0.100014
0.100014
0.100014
0.100014
0.100014
0.100014
0.100014
0.100014
0.100014
0.100014
0.10001399
0.099927146
0.099927146
0.099927153
0.099927145
0.09992715
0.099927147
0.099927149
0.099927151
0.099927151
0.099927151
0.099927151
0.099927151
0.099927151
0.099927149
0.099927147
0.09992715
0.099927145
0.099927153
0.099927146
0.099927146
0.10005941
0.10005941
0.10005941
0.10005942
0.10005942
0.10005942
0.10005942
0.10005942
0.10005942
0.10005942
0.10005942
0.10005942
0.10005942
0.10005942
0.10005942
0.10005942
0.10005942
0.10005941
0.10005941
0.10005941
0.099889572
0.099889576
0.099889577
0.099889579
0.099889581
0.099889582
0.099889584
0.099889585
0.099889586
0.099889587
0.099889587
0.099889586
0.099889585
0.099889584
0.099889582
0.099889581
0.099889579
0.099889577
0.099889576
0.099889572
0.10013816
0.10013816
0.10013816
0.10013816
0.10013815
0.10013815
0.10013815
0.10013815
0.10013815
0.10013815
0.10013815
0.10013815
0.10013815
0.10013815
0.10013815
0.10013815
0.10013816
0.10013816
0.10013816
0.10013816
0.099769404
0.099769414
0.099769417
0.099769415
0.099769417
0.099769414
0.099769415
0.099769413
0.099769414
0.099769413
0.099769413
0.099769414
0.099769413
0.099769415
0.099769414
0.099769417
0.099769415
0.099769417
0.099769414
0.099769404
)
;

boundaryField
{
    left
    {
        type            zeroGradient;
    }
    right
    {
        type            zeroGradient;
    }
    walls
    {
        type            zeroGradient;
    }
    centreline
    {
        type            zeroGradient;
    }
    frontAndBack
    {
        type            zeroGradient;
    }
}


// ************************************************************************* //
