/*--------------------------------*- C++ -*----------------------------------*\
  =========                 |
  \\      /  F ield         | OpenFOAM: The Open Source CFD Toolbox
   \\    /   O peration     | Website:  https://openfoam.org
    \\  /    A nd           | Version:  8
     \\/     M anipulation  |
\*---------------------------------------------------------------------------*/
FoamFile
{
    version     2.0;
    format      ascii;
    class       surfaceScalarField;
    location    "1";
    object      phi;
}
// * * * * * * * * * * * * * * * * * * * * * * * * * * * * * * * * * * * * * //

dimensions      [1 0 -1 0 0 0 0];

internalField   nonuniform List<scalar> 
2080
(
-6.5689065e-05
0.0024756093
-0.00022398394
-3.2281125e-06
0.0023467484
-0.00022393637
-4.2432514e-06
0.0024121448
-0.00022395092
-1.2228492e-08
0.0024056032
-0.00022395148
-5.691043e-08
0.0024086617
-0.00022396263
7.9969856e-07
0.0024059303
-0.00022397056
3.1602152e-07
0.0024066915
-0.00022397653
4.4452971e-07
0.0024063208
-0.00022397717
2.3105175e-07
0.0024069105
-0.00022397696
-1.3138853e-11
0.0024068101
-0.00022397646
-2.3106881e-07
0.0024068101
-0.00022397646
-4.4452885e-07
0.0024069105
-0.00022397696
-3.1600156e-07
0.0024063208
-0.00022397717
-7.9966592e-07
0.0024066915
-0.00022397653
5.6938996e-08
0.0024059303
-0.00022397056
1.2249998e-08
0.0024086617
-0.00022396263
4.2432884e-06
0.0024056032
-0.00022395148
3.2281357e-06
0.0024121447
-0.00022395092
6.5689044e-05
0.0023467482
-0.00022393636
0.0024756089
-0.00022398398
2.5514432e-05
0.017898265
0.00013180146
-4.422225e-07
0.017822521
0.00013206862
-3.8260086e-06
0.017864548
0.000131989
1.4643968e-07
0.017850885
0.00013204478
-1.1620158e-07
0.017857014
0.00013200781
9.79072e-07
0.017851942
0.00013200645
6.3626473e-07
0.017853217
0.00013199346
7.3737939e-07
0.017852476
0.00013199466
4.3317918e-07
0.017853354
0.00013199187
-1.4577796e-11
0.017853194
0.00013199251
-4.3319871e-07
0.017853194
0.00013199251
-7.3737636e-07
0.017853354
0.00013199187
-6.3623742e-07
0.017852476
0.00013199466
-9.7903029e-07
0.017853217
0.00013199346
1.1623243e-07
0.017851941
0.00013200645
-1.4642204e-07
0.017857014
0.00013200781
3.8260099e-06
0.017850885
0.00013204479
4.4217491e-07
0.017864548
0.000131989
-2.5514506e-05
0.017822521
0.00013206862
0.017898265
0.00013180149
2.8603132e-06
0.033312452
5.5263386e-05
-4.59384e-06
0.033262775
5.4691159e-05
-5.2519677e-06
0.033290897
5.4969456e-05
-1.8073152e-06
0.033276091
5.4878137e-05
-1.2019007e-06
0.033284362
5.4966414e-05
2.6794937e-08
0.033277084
5.4962871e-05
8.2223475e-08
0.03327896
5.4998159e-05
3.3794127e-07
0.033277652
5.4995105e-05
1.3956191e-07
0.033279148
5.500253e-05
-2.2035758e-11
0.033279056
5.4998785e-05
-1.3959517e-07
0.033279056
5.4998785e-05
-3.3795321e-07
0.033279148
5.500253e-05
-8.2207846e-08
0.033277652
5.4995106e-05
-2.6753883e-08
0.03327896
5.499816e-05
1.2019469e-06
0.033277084
5.4962873e-05
1.8073479e-06
0.033284362
5.4966416e-05
5.251989e-06
0.033276091
5.4878137e-05
4.5938374e-06
0.033290897
5.4969448e-05
-2.860335e-06
0.033262775
5.4691135e-05
0.033312452
5.5263342e-05
1.710243e-05
0.029597689
7.5090808e-06
1.3498953e-06
0.029566363
7.5506674e-06
1.180642e-06
0.029582654
7.502506e-06
-4.7707765e-07
0.029572386
7.5003981e-06
-1.8505896e-07
0.029578563
7.4978907e-06
8.2963472e-07
0.029573407
7.5045353e-06
1.83574e-06
0.029575055
7.5024237e-06
1.8787024e-06
0.029573694
7.506913e-06
1.3007952e-06
0.029574279
7.5068858e-06
-2.2676159e-11
0.029573938
7.5087316e-06
-1.3008307e-06
0.029573938
7.508732e-06
-1.8787109e-06
0.029574279
7.506887e-06
-1.8357159e-06
0.029573694
7.506915e-06
-8.2958518e-07
0.029575055
7.5024255e-06
1.8510373e-07
0.029573407
7.5045359e-06
4.7712487e-07
0.029578563
7.4978887e-06
-1.1806152e-06
0.029572386
7.5003958e-06
-1.3498834e-06
0.029582654
7.5025048e-06
-1.7102425e-05
0.029566363
7.5506701e-06
0.029597689
7.5091091e-06
-4.0194546e-06
0.025704553
-1.2025953e-05
-6.8258334e-06
0.02566951
-1.22082e-05
-8.9941671e-06
0.025684358
-1.2026027e-05
-5.6006504e-06
0.025671824
-1.2127117e-05
-5.5852654e-06
0.025681938
-1.206662e-05
-2.3707037e-06
0.025676899
-1.2114131e-05
-1.2724189e-06
0.025680372
-1.2089229e-05
-5.9615185e-08
0.025677049
-1.2109762e-05
-2.7256364e-08
0.025677098
-1.209853e-05
-3.4693821e-11
0.025675853
-1.2103614e-05
2.7209033e-08
0.025675854
-1.2103613e-05
5.9588126e-08
0.025677098
-1.2098527e-05
1.2724239e-06
0.02567705
-1.2109757e-05
2.3707439e-06
0.025680372
-1.2089226e-05
5.5853157e-06
0.025676899
-1.2114129e-05
5.6006744e-06
0.025681938
-1.206662e-05
8.9941603e-06
0.025671824
-1.2127117e-05
6.8258101e-06
0.025684358
-1.2026022e-05
4.0194327e-06
0.02566951
-1.2208188e-05
0.025704553
-1.2025922e-05
5.6879687e-06
-0.00054666468
1.1798338e-05
1.5465355e-06
-0.00056801949
1.2149066e-05
7.7139126e-06
-0.00056232953
1.1577434e-05
1.0123385e-06
-0.00056714879
1.1932077e-05
3.0971312e-06
-0.00056618839
1.1693846e-05
1.890124e-06
-0.00056528167
1.1875149e-05
3.9415319e-06
-0.00056695941
1.1782306e-05
2.6257982e-06
-0.00056746452
1.1861105e-05
1.9891491e-06
-0.00056935994
1.1816437e-05
-1.0884045e-11
-0.00056971106
1.1836743e-05
-1.9891647e-06
-0.00056971105
1.1836743e-05
-2.625796e-06
-0.00056935993
1.1816438e-05
-3.9415075e-06
-0.0005674645
1.1861104e-05
-1.8900864e-06
-0.00056695939
1.1782305e-05
-3.0970952e-06
-0.00056528169
1.1875146e-05
-1.0123394e-06
-0.00056618844
1.1693841e-05
-7.7139547e-06
-0.00056714885
1.1932075e-05
-1.5465734e-06
-0.00056232959
1.1577435e-05
-5.687986e-06
-0.00056801953
1.2149072e-05
-0.00054666472
1.1798344e-05
-1.2757988e-05
-0.050265808
-2.774913e-05
-8.2661018e-06
-0.050310835
-2.7092706e-05
-1.2608549e-05
-0.050292536
-2.7862206e-05
-9.2129965e-06
-0.050304712
-2.7338975e-05
-8.410562e-06
-0.050298052
-2.7662386e-05
-6.9984915e-06
-0.050301975
-2.7421692e-05
-7.2438495e-06
-0.050300035
-2.7559834e-05
-5.1135085e-06
-0.050301471
-2.7480372e-05
-3.0712195e-06
-0.050301057
-2.7549948e-05
-3.6303967e-11
-0.050301422
-2.7533235e-05
3.0711547e-06
-0.050301422
-2.7533236e-05
5.1134579e-06
-0.050301057
-2.754995e-05
7.2438218e-06
-0.050301471
-2.7480379e-05
6.9984823e-06
-0.050300035
-2.7559841e-05
8.4105602e-06
-0.050301975
-2.7421698e-05
9.2130006e-06
-0.050298051
-2.7662393e-05
1.2608544e-05
-0.050304712
-2.7338981e-05
8.2660803e-06
-0.050292536
-2.7862214e-05
1.2757967e-05
-0.050310835
-2.7092713e-05
-0.050265808
-2.774914e-05
6.7028708e-06
-0.056042556
-1.4303134e-05
-1.0747733e-05
-0.056052869
-1.3205524e-05
6.6418664e-06
-0.056063066
-1.4375572e-05
1.3258588e-07
-0.056048136
-1.3260418e-05
7.3762373e-06
-0.056053962
-1.4122375e-05
3.6308046e-06
-0.056046854
-1.3521508e-05
6.512233e-06
-0.056051312
-1.3889733e-05
3.3512672e-06
-0.056047662
-1.365863e-05
2.7140766e-06
-0.056050015
-1.3850701e-05
2.2135693e-12
-0.056049034
-1.38002e-05
-2.7140689e-06
-0.056049034
-1.3800198e-05
-3.3512538e-06
-0.056050015
-1.3850695e-05
-6.5122203e-06
-0.056047662
-1.3658624e-05
-3.6308037e-06
-0.056051312
-1.3889724e-05
-7.3762507e-06
-0.056046854
-1.3521496e-05
-1.3260338e-07
-0.056053962
-1.4122364e-05
-6.6418884e-06
-0.056048136
-1.3260403e-05
1.0747703e-05
-0.056063066
-1.4375558e-05
-6.7028908e-06
-0.056052868
-1.3205522e-05
-0.056042556
-1.4303138e-05
-1.8643853e-05
-0.0090806382
-4.6029525e-05
-2.7727695e-06
-0.0091359307
-4.6410803e-05
-1.6890279e-05
-0.0091256276
-4.60727e-05
-8.6476612e-06
-0.0091335236
-4.638461e-05
-1.7039883e-05
-0.0091243921
-4.6130423e-05
-1.0542863e-05
-0.0091300328
-4.6262257e-05
-1.355575e-05
-0.0091244789
-4.6143525e-05
-7.697736e-06
-0.0091275243
-4.6195913e-05
-5.5233632e-06
-0.0091248115
-4.6150923e-05
3.2516859e-11
-0.0091257776
-4.6167529e-05
5.5234225e-06
-0.0091257776
-4.6167527e-05
7.6977792e-06
-0.0091248115
-4.6150921e-05
1.3555768e-05
-0.0091275243
-4.6195908e-05
1.0542847e-05
-0.009124479
-4.6143521e-05
1.7039816e-05
-0.0091300329
-4.6262251e-05
8.6475578e-06
-0.0091243921
-4.6130415e-05
1.6890155e-05
-0.0091335236
-4.6384602e-05
2.7726609e-06
-0.0091256276
-4.6072691e-05
1.8643782e-05
-0.0091359307
-4.6410799e-05
-0.0090806382
-4.6029523e-05
4.1946873e-05
0.00010611638
3.4942054e-05
0.00010484839
3.5798681e-05
0.00010667405
2.6013018e-05
0.00010519147
2.261119e-05
0.00010621356
1.2833768e-05
0.0001054099
9.0193015e-06
0.00010584906
3.5771808e-06
0.00010554831
1.8225983e-06
0.00010579344
1.1281464e-12
0.00010573248
-1.8225967e-06
0.00010573247
-3.5771607e-06
0.00010579343
-9.0192574e-06
0.00010554831
-1.2833715e-05
0.00010584905
-2.2611129e-05
0.0001054099
-2.6012971e-05
0.00010621355
-3.5798654e-05
0.00010519147
-3.4942041e-05
0.00010667404
-4.1946876e-05
0.00010484839
0.00010611639
-6.5737852e-05
0.0020260978
-1.2481514e-09
-3.2244958e-06
0.0018963883
-1.2747936e-09
-4.2417089e-06
0.0019620462
-1.2811637e-09
-1.4410984e-08
0.0019555083
-1.2866708e-09
-5.9819464e-08
0.0019585861
-1.2886042e-09
7.9776656e-07
0.0019558527
-1.2900956e-09
3.1529033e-07
0.0019566258
-1.2920968e-09
4.4441073e-07
0.0019562525
-1.292738e-09
2.3106781e-07
0.0019568446
-1.2927984e-09
-1.3249634e-11
0.0019567422
-1.2929652e-09
-2.3108488e-07
0.0019567422
-1.2933102e-09
-4.4440968e-07
0.0019568446
-1.2942229e-09
-3.1527054e-07
0.0019562525
-1.293676e-09
-7.9773328e-07
0.0019566258
-1.2938143e-09
5.9848609e-08
0.0019558527
-1.2893553e-09
1.4433418e-08
0.0019585861
-1.2859339e-09
4.2417467e-06
0.0019555083
-1.2807304e-09
3.224514e-06
0.0019620461
-1.269816e-09
6.5737823e-05
0.0018963882
-1.2620698e-09
0.0020260975
-1.2691114e-09
2.557348e-05
0.017741947
-1.3259513e-09
-4.0977977e-07
0.017665797
-1.3809215e-09
-3.8428671e-06
0.017707975
-1.3811635e-09
1.4312759e-07
0.017694274
-1.390461e-09
-1.231229e-07
0.017700444
-1.3914648e-09
9.7549063e-07
0.017695376
-1.3932967e-09
6.3383396e-07
0.017696669
-1.395206e-09
7.3707294e-07
0.017695928
-1.395832e-09
4.330087e-07
0.01769681
-1.3956979e-09
-1.4687038e-11
0.017696648
-1.3955449e-09
-4.3302839e-07
0.017696648
-1.3958052e-09
-7.3706998e-07
0.01769681
-1.396627e-09
-6.3380661e-07
0.017695928
-1.3980239e-09
-9.754486e-07
0.017696669
-1.3962701e-09
1.2315423e-07
0.017695376
-1.3929834e-09
-1.4310982e-07
0.017700444
-1.3871255e-09
3.8428677e-06
0.017694274
-1.3843946e-09
4.0973092e-07
0.017707975
-1.3689149e-09
-2.5573555e-05
0.017665797
-1.3725342e-09
0.017741947
-1.2424308e-09
2.7781356e-06
0.033267188
-8.4869386e-10
-4.6145543e-06
0.03321741
-8.6136897e-10
-5.2265825e-06
0.033245659
-8.6388955e-10
-1.7982399e-06
0.033230782
-8.6269727e-10
-1.189933e-06
0.033239103
-8.6207481e-10
3.3394166e-08
0.033231805
-8.6173189e-10
8.5185456e-08
0.033233697
-8.6274269e-10
3.3828581e-07
0.033232384
-8.6291422e-10
1.3922507e-07
0.033233886
-8.6315097e-10
-2.1956938e-11
0.033233791
-8.6335995e-10
-1.3925819e-07
0.033233791
-8.6356694e-10
-3.3829759e-07
0.033233886
-8.6354968e-10
-8.5169811e-08
0.033232384
-8.6354903e-10
-3.3352942e-08
0.033233697
-8.6303233e-10
1.1899792e-06
0.033231805
-8.6114042e-10
1.7982715e-06
0.033239103
-8.594941e-10
5.2266014e-06
0.033230782
-8.6401066e-10
4.6145482e-06
0.033245659
-8.7597398e-10
-2.7781601e-06
0.03321741
-9.0139822e-10
0.033267188
-8.9474421e-10
1.7121192e-05
0.029560738
-5.7789082e-10
1.3393883e-06
0.029529502
-6.2389053e-10
1.1805334e-06
0.029545777
-6.2638031e-10
-4.7674297e-07
0.029535504
-6.2561082e-10
-1.8264372e-07
0.029541673
-6.2534974e-10
8.304122e-07
0.029536516
-6.2410569e-10
1.8380316e-06
0.029538159
-6.2361249e-10
1.8793333e-06
0.029536799
-6.2386554e-10
1.3015073e-06
0.029537383
-6.238272e-10
-2.2536033e-11
0.029537041
-6.2402752e-10
-1.3015427e-06
0.029537041
-6.2304053e-10
-1.8793418e-06
0.029537383
-6.2173371e-10
-1.8380076e-06
0.029536799
-6.2073273e-10
-8.3036283e-07
0.029538159
-6.2028618e-10
1.8268795e-07
0.029536516
-6.2284856e-10
4.7678973e-07
0.029541673
-6.276281e-10
-1.1805061e-06
0.029535504
-6.2782114e-10
-1.3393746e-06
0.029545777
-6.256861e-10
-1.7121183e-05
0.029529502
-6.1512427e-10
0.029560738
-5.2278562e-10
-4.0408444e-06
0.025652933
-5.860157e-10
-6.8142769e-06
0.025617614
-5.8342638e-10
-8.9935014e-06
0.025632877
-5.806244e-10
-5.6081248e-06
0.025620073
-5.7934952e-10
-5.5886791e-06
0.025630325
-5.8265549e-10
-2.3754027e-06
0.025625186
-5.858251e-10
-1.2739464e-06
0.025628715
-5.8643223e-10
-6.0345733e-08
0.025625353
-5.8697916e-10
-2.7301298e-08
0.025625426
-5.8829391e-10
-3.4686762e-11
0.02562417
-5.8757493e-10
2.7254419e-08
0.02562417
-5.8632175e-10
6.0318703e-08
0.025625426
-5.843985e-10
1.2739514e-06
0.025625353
-5.8214905e-10
2.375443e-06
0.025628715
-5.8160477e-10
5.5887289e-06
0.025625186
-5.8382303e-10
5.6081484e-06
0.025630325
-5.8603018e-10
8.993496e-06
0.025620073
-5.8098107e-10
6.8142559e-06
0.025632877
-5.7237074e-10
4.0408252e-06
0.025617614
-5.6634151e-10
0.025652932
-5.4262471e-10
5.7094723e-06
-0.00058722518
-4.4496907e-10
1.497765e-06
-0.00060795001
-4.403288e-10
7.7050078e-06
-0.00060315009
-4.3379535e-10
1.0198248e-06
-0.00060735715
-4.3833944e-10
3.1046794e-06
-0.00060677988
-4.4245087e-10
1.9002488e-06
-0.00060558481
-4.4384028e-10
3.9454715e-06
-0.00060741767
-4.4399481e-10
2.6276959e-06
-0.00060781788
-4.4403429e-10
1.9892767e-06
-0.0006097991
-4.4548161e-10
-1.1122429e-11
-0.00061012851
-4.4700704e-10
-1.9892923e-06
-0.00061012851
-4.4731688e-10
-2.6276939e-06
-0.00060979909
-4.4424839e-10
-3.945448e-06
-0.00060781786
-4.42512e-10
-1.9002115e-06
-0.00060741766
-4.4468099e-10
-3.1046438e-06
-0.00060558484
-4.4500632e-10
-1.0198259e-06
-0.00060677994
-4.4181151e-10
-7.7050484e-06
-0.00060735722
-4.3584715e-10
-1.4978013e-06
-0.00060315014
-4.2564149e-10
-5.7094892e-06
-0.00060795006
-4.255016e-10
-0.00058722523
-4.2998601e-10
-1.2692654e-05
-0.050342815
-3.7310902e-10
-8.328268e-06
-0.050386254
-3.7169881e-10
-1.2620482e-05
-0.050370369
-3.7111965e-10
-9.2111184e-06
-0.050380936
-3.7527355e-10
-8.4080926e-06
-0.050375224
-3.7483371e-10
-6.9961652e-06
-0.050378439
-3.7368066e-10
-7.2496101e-06
-0.050376879
-3.7155315e-10
-5.1193648e-06
-0.05037805
-3.7267863e-10
-3.0754928e-06
-0.050377839
-3.7302312e-10
-3.6812938e-11
-0.050378145
-3.7438366e-10
3.0754269e-06
-0.050378145
-3.7518107e-10
5.1193132e-06
-0.050377839
-3.748685e-10
7.2495813e-06
-0.05037805
-3.7506362e-10
6.9961556e-06
-0.050376879
-3.7452916e-10
8.4080909e-06
-0.050378439
-3.7239539e-10
9.2111219e-06
-0.050375224
-3.6961404e-10
1.2620477e-05
-0.050380936
-3.6827165e-10
8.3282472e-06
-0.050370369
-3.6800004e-10
1.2692633e-05
-0.050386254
-3.7397032e-10
-0.050342815
-3.7754046e-10
6.8078129e-06
-0.056182137
-1.1050994e-10
-1.0697255e-05
-0.056187972
-1.1510086e-10
6.6230305e-06
-0.056204221
-1.1760905e-10
1.3598755e-07
-0.056185094
-1.1659662e-10
7.362107e-06
-0.056193598
-1.0993585e-10
3.6625406e-06
-0.056184392
-1.1317135e-10
6.4955051e-06
-0.056189935
-1.1001268e-10
3.3462364e-06
-0.056185514
-1.1381416e-10
2.7009313e-06
-0.056188496
-1.13968e-10
2.9695024e-12
-0.056187363
-1.1266361e-10
-2.700922e-06
-0.056187363
-1.1290641e-10
-3.3462219e-06
-0.056188496
-1.1318992e-10
-6.4954921e-06
-0.056185514
-1.1450698e-10
-3.6625388e-06
-0.056189935
-1.1092266e-10
-7.3621183e-06
-0.056184392
-1.1227823e-10
-1.3600628e-07
-0.056193597
-1.1016285e-10
-6.6230554e-06
-0.056185094
-1.1627898e-10
1.0697223e-05
-0.056204221
-1.1653993e-10
-6.8078353e-06
-0.056187972
-1.1352737e-10
-0.056182137
-1.0677636e-10
-1.8650996e-05
-0.0092953738
-1.5733513e-10
-2.7885502e-06
-0.0093473292
-1.5600707e-10
-1.6838024e-05
-0.0093413817
-1.5607247e-10
-8.6723961e-06
-0.009346178
-1.5622137e-10
-1.7014967e-05
-0.0093390934
-1.5695768e-10
-1.0560394e-05
-0.0093431174
-1.5608124e-10
-1.3545807e-05
-0.0093383982
-1.5747388e-10
-7.7056923e-06
-0.0093408572
-1.5738063e-10
-5.5204078e-06
-0.0093386384
-1.5942224e-10
3.2349115e-11
-0.0093394946
-1.60193e-10
5.5204682e-06
-0.0093394946
-1.6070169e-10
7.7057365e-06
-0.0093386384
-1.5912916e-10
1.3545825e-05
-0.0093408573
-1.5625782e-10
1.0560378e-05
-0.0093383983
-1.5599983e-10
1.7014901e-05
-0.0093431174
-1.555682e-10
8.6722929e-06
-0.0093390934
-1.5659799e-10
1.6837899e-05
-0.009346178
-1.5584004e-10
2.7884396e-06
-0.0093413817
-1.5352981e-10
1.8650925e-05
-0.0093473292
-1.51815e-10
-0.0092953738
-1.5328412e-10
4.1639798e-05
-9.1306279e-11
3.5098216e-05
-8.0398589e-11
3.5791934e-05
-7.9364371e-11
2.5998229e-05
-8.9370842e-11
2.2599624e-05
-9.4950359e-11
1.281388e-05
-8.8583861e-11
9.0334954e-06
-9.1960272e-11
3.5949895e-06
-9.1065696e-11
1.8399536e-06
-9.2590701e-11
4.1672512e-13
-9.2555263e-11
-1.8399534e-06
-9.2229248e-11
-3.5949698e-06
-9.4039219e-11
-9.0334515e-06
-9.0783621e-11
-1.2813828e-05
-9.1995713e-11
-2.2599564e-05
-8.794245e-11
-2.5998182e-05
-9.3659324e-11
-3.5791905e-05
-8.8098166e-11
-3.5098202e-05
-8.1261579e-11
-4.1639797e-05
-8.2190954e-11
-8.9976241e-11
-6.5737851e-05
0.0020260981
0.00022398228
-3.2244961e-06
0.0018963885
0.00022393465
-4.2417105e-06
0.0019620465
0.00022394919
-1.4411548e-08
0.0019555085
0.00022394974
-5.9819841e-08
0.0019585863
0.00022396089
7.9776629e-07
0.0019558529
0.00022396881
3.1529022e-07
0.0019566261
0.00022397478
4.4441068e-07
0.0019562528
0.00022397542
2.3106773e-07
0.0019568449
0.00022397521
-1.3362117e-11
0.0019567424
0.00022397471
-2.3108507e-07
0.0019567424
0.00022397471
-4.4440984e-07
0.0019568449
0.0002239752
-3.1527031e-07
0.0019562527
0.00022397542
-7.9773246e-07
0.001956626
0.00022397478
5.9849759e-08
0.0019558529
0.00022396881
1.4434656e-08
0.0019585863
0.00022396089
4.2417494e-06
0.0019555085
0.00022394975
3.2245102e-06
0.0019620464
0.0002239492
6.5737813e-05
0.0018963884
0.00022393465
0.0020260978
0.0002239823
2.5573471e-05
0.017741948
-0.00013180333
-4.0978735e-07
0.017665798
-0.00013207056
-3.8428691e-06
0.017707976
-0.00013199095
1.4312671e-07
0.017694274
-0.00013204674
-1.2312338e-07
0.017700445
-0.00013200977
9.7549035e-07
0.017695376
-0.00013200842
6.3383373e-07
0.017696669
-0.00013199542
7.37073e-07
0.017695929
-0.00013199663
4.330088e-07
0.01769681
-0.00013199384
-1.4749358e-11
0.017696649
-0.00013199448
-4.3302877e-07
0.017696649
-0.00013199448
-7.3707031e-07
0.01769681
-0.00013199384
-6.3380615e-07
0.017695929
-0.00013199663
-9.7544763e-07
0.017696669
-0.00013199542
1.2315555e-07
0.017695376
-0.00013200841
-1.43108e-07
0.017700445
-0.00013200977
3.8428702e-06
0.017694274
-0.00013204674
4.0974685e-07
0.017707976
-0.00013199094
-2.5573532e-05
0.017665798
-0.00013207055
0.017741948
-0.00013180325
2.7781348e-06
0.033267188
-5.5264508e-05
-4.6145551e-06
0.033217411
-5.469231e-05
-5.2265825e-06
0.033245659
-5.4970611e-05
-1.7982395e-06
0.033230782
-5.487929e-05
-1.1899333e-06
0.033239104
-5.4967567e-05
3.3393985e-08
0.033231806
-5.4964023e-05
8.5185337e-08
0.033233697
-5.4999312e-05
3.3828594e-07
0.033232384
-5.4996259e-05
1.3922521e-07
0.033233886
-5.5003683e-05
-2.2025755e-11
0.033233792
-5.4999939e-05
-1.3925848e-07
0.033233792
-5.499994e-05
-3.3829772e-07
0.033233886
-5.5003684e-05
-8.5169427e-08
0.033232384
-5.499626e-05
-3.3352381e-08
0.033233697
-5.4999313e-05
1.1899795e-06
0.033231805
-5.4964024e-05
1.7982701e-06
0.033239104
-5.4967566e-05
5.2265969e-06
0.033230782
-5.4879291e-05
4.614541e-06
0.033245659
-5.4970615e-05
-2.7781681e-06
0.033217411
-5.4692339e-05
0.033267188
-5.5264495e-05
1.7121184e-05
0.029560738
-7.509864e-06
1.3393856e-06
0.029529503
-7.5515115e-06
1.1805338e-06
0.029545777
-7.5033516e-06
-4.7674259e-07
0.029535504
-7.5012428e-06
-1.8264408e-07
0.029541673
-7.4987335e-06
8.3041214e-07
0.029536517
-7.505377e-06
1.8380316e-06
0.029538159
-7.5032648e-06
1.8793336e-06
0.029536799
-7.5077546e-06
1.3015076e-06
0.029537383
-7.5077272e-06
-2.2264542e-11
0.029537041
-7.509573e-06
-1.3015425e-06
0.029537041
-7.5095726e-06
-1.8793415e-06
0.029537383
-7.5077259e-06
-1.8380076e-06
0.029536799
-7.5077523e-06
-8.3036349e-07
0.029538159
-7.5032626e-06
1.8268739e-07
0.029536517
-7.5053764e-06
4.7678937e-07
0.029541673
-7.4987342e-06
-1.1805051e-06
0.029535504
-7.5012435e-06
-1.3393684e-06
0.029545777
-7.5033504e-06
-1.7121167e-05
0.029529503
-7.5515007e-06
0.029560738
-7.5098236e-06
-4.0408433e-06
0.025652933
1.202515e-05
-6.8142766e-06
0.025617614
1.22074e-05
-8.9935017e-06
0.025632877
1.2025234e-05
-5.6081251e-06
0.025620073
1.2126323e-05
-5.5886797e-06
0.025630325
1.2065823e-05
-2.3754034e-06
0.025625186
1.2113331e-05
-1.2739467e-06
0.025628715
1.2088428e-05
-6.0345537e-08
0.025625353
1.2108961e-05
-2.7300949e-08
0.025625426
1.2097727e-05
-3.399506e-11
0.02562417
1.2102811e-05
2.7254645e-08
0.02562417
1.2102812e-05
6.0319017e-08
0.025625426
1.2097729e-05
1.2739516e-06
0.025625353
1.2108963e-05
2.3754426e-06
0.025628715
1.2088431e-05
5.5887288e-06
0.025625186
1.211333e-05
5.6081496e-06
0.025630325
1.2065819e-05
8.9934982e-06
0.025620073
1.212632e-05
6.8142592e-06
0.025632877
1.2025238e-05
4.0408296e-06
0.025617614
1.2207413e-05
0.025652933
1.2025188e-05
5.7094739e-06
-0.00058722512
-1.1798931e-05
1.4977652e-06
-0.00060794995
-1.2149654e-05
7.7050068e-06
-0.00060315002
-1.1578013e-05
1.0198243e-06
-0.00060735709
-1.1932664e-05
3.1046788e-06
-0.00060677982
-1.1694436e-05
1.9002491e-06
-0.00060558475
-1.1875744e-05
3.9454719e-06
-0.00060741761
-1.1782901e-05
2.6276957e-06
-0.00060781781
-1.18617e-05
1.9892758e-06
-0.00060979904
-1.1817034e-05
-1.0852595e-11
-0.00061012845
-1.1837341e-05
-1.9892917e-06
-0.00061012845
-1.183734e-05
-2.6276939e-06
-0.00060979902
-1.1817033e-05
-3.9454482e-06
-0.0006078178
-1.1861697e-05
-1.9002119e-06
-0.0006074176
-1.1782899e-05
-3.1046428e-06
-0.00060558477
-1.1875741e-05
-1.0198244e-06
-0.00060677987
-1.1694431e-05
-7.7050465e-06
-0.00060735716
-1.1932656e-05
-1.497801e-06
-0.00060315008
-1.1578e-05
-5.7094898e-06
-0.00060795
-1.2149641e-05
-0.00058722517
-1.1798916e-05
-1.2692654e-05
-0.050342815
2.7748601e-05
-8.3282681e-06
-0.050386254
2.7092182e-05
-1.2620482e-05
-0.050370369
2.7861685e-05
-9.2111185e-06
-0.050380936
2.7338449e-05
-8.4080924e-06
-0.050375224
2.7661861e-05
-6.9961651e-06
-0.050378439
2.7421167e-05
-7.2496092e-06
-0.050376879
2.7559312e-05
-5.1193643e-06
-0.05037805
2.7479848e-05
-3.0754938e-06
-0.050377839
2.7549424e-05
-3.6828253e-11
-0.050378145
2.7532709e-05
3.0754267e-06
-0.050378145
2.753271e-05
5.1193131e-06
-0.050377839
2.7549423e-05
7.2495818e-06
-0.05037805
2.7479851e-05
6.9961561e-06
-0.050376879
2.7559316e-05
8.4080915e-06
-0.050378439
2.7421175e-05
9.211122e-06
-0.050375224
2.7661874e-05
1.2620476e-05
-0.050380936
2.7338464e-05
8.3282461e-06
-0.050370369
2.7861699e-05
1.2692634e-05
-0.050386254
2.7092187e-05
-0.050342815
2.7748604e-05
6.8078116e-06
-0.056182137
1.430299e-05
-1.0697255e-05
-0.056187972
1.3205369e-05
6.6230308e-06
-0.056204221
1.437541e-05
1.3598751e-07
-0.056185094
1.3260263e-05
7.3621078e-06
-0.056193598
1.4122231e-05
3.6625407e-06
-0.056184392
1.3521359e-05
6.4955055e-06
-0.056189935
1.3889587e-05
3.3462363e-06
-0.056185514
1.365848e-05
2.7009313e-06
-0.056188496
1.3850553e-05
2.7271599e-12
-0.056187363
1.380005e-05
-2.700922e-06
-0.056187363
1.3800048e-05
-3.3462213e-06
-0.056188496
1.3850547e-05
-6.4954915e-06
-0.056185514
1.3658473e-05
-3.6625381e-06
-0.056189935
1.3889579e-05
-7.3621189e-06
-0.056184392
1.3521349e-05
-1.3600618e-07
-0.056193597
1.412222e-05
-6.6230555e-06
-0.056185094
1.326025e-05
1.0697222e-05
-0.056204221
1.4375398e-05
-6.8078352e-06
-0.056187972
1.3205368e-05
-0.056182137
1.4302997e-05
-1.8650997e-05
-0.0092953738
4.6029295e-05
-2.7885504e-06
-0.0093473292
4.6410574e-05
-1.6838023e-05
-0.0093413817
4.6072472e-05
-8.6723959e-06
-0.009346178
4.6384383e-05
-1.7014967e-05
-0.0093390934
4.6130192e-05
-1.0560394e-05
-0.0093431174
4.626203e-05
-1.3545807e-05
-0.0093383982
4.6143295e-05
-7.7056932e-06
-0.0093408572
4.6195683e-05
-5.520408e-06
-0.0093386384
4.615069e-05
3.2787395e-11
-0.0093394946
4.6167293e-05
5.5204685e-06
-0.0093394946
4.6167292e-05
7.7057369e-06
-0.0093386384
4.6150688e-05
1.3545825e-05
-0.0093408572
4.619568e-05
1.0560379e-05
-0.0093383983
4.6143292e-05
1.7014901e-05
-0.0093431174
4.6262024e-05
8.672293e-06
-0.0093390934
4.6130186e-05
1.6837899e-05
-0.009346178
4.6384375e-05
2.7884403e-06
-0.0093413817
4.6072466e-05
1.8650926e-05
-0.0093473292
4.6410575e-05
-0.0092953738
4.6029297e-05
4.1639795e-05
-0.00010611651
3.5098217e-05
-0.0001048485
3.5791937e-05
-0.00010667416
2.5998228e-05
-0.0001051916
2.2599625e-05
-0.00010621369
1.281388e-05
-0.00010541003
9.0334955e-06
-0.00010584919
3.5949893e-06
-0.00010554844
1.8399532e-06
-0.00010579357
4.0268884e-13
-0.00010573261
-1.839953e-06
-0.0001057326
-3.5949696e-06
-0.00010579357
-9.0334511e-06
-0.00010554844
-1.2813828e-05
-0.00010584919
-2.2599563e-05
-0.00010541002
-2.5998181e-05
-0.00010621369
-3.5791907e-05
-0.00010519159
-3.5098203e-05
-0.00010667415
-4.1639797e-05
-0.00010484851
-0.00010611651
-6.5689082e-05
0.0024756096
-3.2281227e-06
0.0023467487
-4.2432564e-06
0.0024121451
-1.2229914e-08
0.0024056036
-5.6911453e-08
0.002408662
7.9969775e-07
0.0024059306
3.1602106e-07
0.0024066918
4.4452966e-07
0.0024063211
2.310517e-07
0.0024069108
-1.3441729e-11
0.0024068104
-2.3106929e-07
0.0024068104
-4.4452914e-07
0.0024069108
-3.1600127e-07
0.0024063211
-7.9966388e-07
0.0024066918
5.6942013e-08
0.0024059306
1.2253029e-08
0.002408662
4.2432957e-06
0.0024056035
3.2281395e-06
0.002412145
6.5689053e-05
0.0023467485
0.0024756093
2.5514414e-05
0.017898266
-4.4223638e-07
0.017822521
-3.8260125e-06
0.017864549
1.4643784e-07
0.017850886
-1.1620259e-07
0.017857014
9.79071e-07
0.017851942
6.3626428e-07
0.017853218
7.3737936e-07
0.017852477
4.3317918e-07
0.017853355
-1.4784503e-11
0.017853195
-4.3319915e-07
0.017853195
-7.3737666e-07
0.017853355
-6.3623658e-07
0.017852477
-9.7902801e-07
0.017853217
1.16235e-07
0.017851942
-1.4641836e-07
0.017857014
3.8260164e-06
0.017850886
4.4220462e-07
0.017864549
-2.5514466e-05
0.017822521
0.017898266
2.8603065e-06
0.033312453
-4.5938435e-06
0.033262776
-5.2519675e-06
0.033290898
-1.8073147e-06
0.033276092
-1.2019007e-06
0.033284363
2.6794644e-08
0.033277085
8.2223304e-08
0.03327896
3.3794118e-07
0.033277653
1.3956179e-07
0.033279149
-2.2174714e-11
0.033279056
-1.3959513e-07
0.033279056
-3.3795304e-07
0.033279149
-8.2207411e-08
0.033277653
-2.6752977e-08
0.03327896
1.2019471e-06
0.033277085
1.8073452e-06
0.033284363
5.2519799e-06
0.033276092
4.5938331e-06
0.033290898
-2.8603286e-06
0.033262776
0.033312453
1.7102413e-05
0.02959769
1.3498888e-06
0.029566363
1.1806421e-06
0.029582654
-4.7707661e-07
0.029572387
-1.850585e-07
0.029578563
8.2963495e-07
0.029573408
1.8357399e-06
0.029575055
1.8787023e-06
0.029573694
1.3007953e-06
0.02957428
-2.2208346e-11
0.029573938
-1.3008299e-06
0.029573938
-1.8787102e-06
0.02957428
-1.8357161e-06
0.029573694
-8.2958655e-07
0.029575055
1.8510205e-07
0.029573408
4.771237e-07
0.029578563
-1.1806122e-06
0.029572386
-1.3498679e-06
0.029582654
-1.710239e-05
0.029566363
0.029597689
-4.0194527e-06
0.025704553
-6.8258314e-06
0.02566951
-8.9941669e-06
0.025684358
-5.6006516e-06
0.025671824
-5.5852669e-06
0.025681938
-2.3707043e-06
0.025676899
-1.2724193e-06
0.025680372
-5.9615681e-08
0.02567705
-2.7256491e-08
0.025677099
-3.3866223e-11
0.025675854
2.7210318e-08
0.025675854
5.9589164e-08
0.025677099
1.2724237e-06
0.02567705
2.3707426e-06
0.025680372
5.5853154e-06
0.025676899
5.6006766e-06
0.025681938
8.9941658e-06
0.025671824
6.8258182e-06
0.025684358
4.019445e-06
0.02566951
0.025704553
5.687971e-06
-0.00054666453
1.5465371e-06
-0.00056801934
7.7139114e-06
-0.00056232939
1.0123366e-06
-0.00056714864
3.0971293e-06
-0.00056618824
1.8901233e-06
-0.00056528152
3.9415317e-06
-0.00056695926
2.6257977e-06
-0.00056746437
1.9891487e-06
-0.0005693598
-1.0480554e-11
-0.00056971091
-1.9891636e-06
-0.0005697109
-2.6257956e-06
-0.00056935978
-3.941508e-06
-0.00056746436
-1.8900863e-06
-0.00056695925
-3.0970926e-06
-0.00056528154
-1.0123353e-06
-0.00056618829
-7.7139494e-06
-0.0005671487
-1.5465726e-06
-0.00056232945
-5.6879869e-06
-0.00056801939
-0.00054666459
-1.2757986e-05
-0.050265808
-8.2661013e-06
-0.050310835
-1.260855e-05
-0.050292536
-9.2129962e-06
-0.050304712
-8.4105617e-06
-0.050298051
-6.9984906e-06
-0.050301975
-7.2438498e-06
-0.050300034
-5.1135089e-06
-0.050301471
-3.07122e-06
-0.050301057
-3.6589447e-11
-0.050301422
3.0711542e-06
-0.050301422
5.1134578e-06
-0.050301057
7.2438226e-06
-0.050301471
6.9984836e-06
-0.050300034
8.4105625e-06
-0.050301975
9.2130013e-06
-0.050298051
1.2608544e-05
-0.050304712
8.2660766e-06
-0.050292536
1.2757964e-05
-0.050310835
-0.050265808
6.7028675e-06
-0.056042555
-1.0747734e-05
-0.056052868
6.6418674e-06
-0.056063066
1.3258802e-07
-0.056048136
7.3762389e-06
-0.056053962
3.6308042e-06
-0.056046854
6.5122324e-06
-0.056051312
3.3512668e-06
-0.056047662
2.7140766e-06
-0.056050015
2.1424434e-12
-0.056049034
-2.7140689e-06
-0.056049034
-3.3512535e-06
-0.056050015
-6.5122193e-06
-0.056047662
-3.6308029e-06
-0.056051312
-7.3762507e-06
-0.056046854
-1.3260694e-07
-0.056053962
-6.641891e-06
-0.056048136
1.0747707e-05
-0.056063066
-6.7028868e-06
-0.056052868
-0.056042555
-1.8643853e-05
-0.0090806382
-2.7727691e-06
-0.0091359307
-1.6890279e-05
-0.0091256276
-8.6476614e-06
-0.0091335236
-1.7039883e-05
-0.009124392
-1.0542864e-05
-0.0091300328
-1.3555751e-05
-0.0091244789
-7.6977372e-06
-0.0091275243
-5.5233641e-06
-0.0091248114
3.2615988e-11
-0.0091257776
5.5234239e-06
-0.0091257776
7.6977805e-06
-0.0091248115
1.3555768e-05
-0.0091275243
1.0542848e-05
-0.0091244789
1.7039816e-05
-0.0091300328
8.6475581e-06
-0.0091243921
1.6890155e-05
-0.0091335236
2.7726612e-06
-0.0091256276
1.8643782e-05
-0.0091359307
-0.0090806381
4.1946877e-05
3.4942055e-05
3.5798679e-05
2.6013015e-05
2.2611187e-05
1.2833768e-05
9.0193021e-06
3.5771805e-06
1.8225983e-06
8.9341996e-13
-1.8225957e-06
-3.5771615e-06
-9.019258e-06
-1.2833714e-05
-2.2611127e-05
-2.6012968e-05
-3.5798652e-05
-3.4942044e-05
-4.194688e-05
)
;

boundaryField
{
    left
    {
        type            calculated;
        value           uniform 0;
    }
    right
    {
        type            calculated;
        value           uniform 0;
    }
    walls
    {
        type            calculated;
        value           uniform 0;
    }
    centreline
    {
        type            calculated;
        value           nonuniform List<scalar> 