/*--------------------------------*- C++ -*----------------------------------*\
  =========                 |
  \\      /  F ield         | OpenFOAM: The Open Source CFD Toolbox
   \\    /   O peration     | Website:  https://openfoam.org
    \\  /    A nd           | Version:  8
     \\/     M anipulation  |
\*---------------------------------------------------------------------------*/
FoamFile
{
    version     2.0;
    format      ascii;
    class       volVectorField;
    location    "1";
    object      U;
}
// * * * * * * * * * * * * * * * * * * * * * * * * * * * * * * * * * * * * * //

dimensions      [0 1 -1 0 0 0 0];

internalField   nonuniform List<vector> 
800
(
(-0.00077803084 3.9786042 -0.0015598947)
(2.3929586e-05 3.9791226 -0.0015603089)
(-5.9277553e-05 3.9792961 -0.0015603412)
(1.2716406e-05 3.9793012 -0.001560358)
(-1.2994562e-05 3.9792997 -0.0015603728)
(1.2148389e-05 3.9793068 -0.0015603915)
(-3.981633e-06 3.9793008 -0.0015603985)
(8.0429783e-06 3.9793092 -0.0015604022)
(-3.4029652e-06 3.9793059 -0.0015603999)
(6.5635842e-06 3.9793096 -0.0015604003)
(-6.5637336e-06 3.9793096 -0.0015604003)
(3.4029048e-06 3.9793059 -0.0015603999)
(-8.0429055e-06 3.9793092 -0.0015604022)
(3.9818019e-06 3.9793008 -0.0015603985)
(-1.2148198e-05 3.9793068 -0.0015603915)
(1.2994726e-05 3.9792997 -0.0015603728)
(-1.2716211e-05 3.9793012 -0.0015603579)
(5.9277704e-05 3.9792961 -0.0015603412)
(-2.3929516e-05 3.9791226 -0.0015603088)
(0.00077803085 3.9786042 -0.0015598948)
(0.00019816193 -4.631816 0.00035479293)
(5.6278158e-05 -4.6331629 0.00035582517)
(-5.9066021e-05 -4.6329884 0.00035547186)
(1.7381267e-05 -4.6330334 0.0003555803)
(-1.5280776e-05 -4.6330133 0.00035548975)
(1.3620391e-05 -4.6330375 0.0003554811)
(-4.0784166e-06 -4.633026 0.00035544392)
(1.0977708e-05 -4.633038 0.00035544744)
(-3.808728e-06 -4.6330309 0.00035544174)
(8.7428464e-06 -4.6330357 0.00035544471)
(-8.7429955e-06 -4.6330357 0.00035544471)
(3.808672e-06 -4.6330309 0.00035544174)
(-1.0977622e-05 -4.633038 0.00035544744)
(4.0786138e-06 -4.633026 0.00035544392)
(-1.3620168e-05 -4.6330375 0.0003554811)
(1.5280916e-05 -4.6330133 0.00035548975)
(-1.7381194e-05 -4.6330334 0.0003555803)
(5.9065957e-05 -4.6329884 0.00035547186)
(-5.6278509e-05 -4.6331629 0.00035582516)
(-0.00019816222 -4.631816 0.00035479292)
(4.08448e-05 5.5394084 0.0001053089)
(-1.1552165e-05 5.5404857 0.0001040698)
(-3.4634296e-05 5.5405549 0.00010469481)
(-6.0544764e-06 5.5405218 0.0001045315)
(-1.2670937e-05 5.5405362 0.00010470296)
(3.7939565e-06 5.5405322 0.00010469595)
(-3.8550035e-06 5.5405267 0.00010476845)
(4.831893e-06 5.540536 0.00010476096)
(-2.2436029e-06 5.5405335 0.00010477463)
(3.7027136e-06 5.5405381 0.00010476568)
(-3.7029095e-06 5.5405381 0.00010476568)
(2.2434875e-06 5.5405335 0.00010477463)
(-4.8318795e-06 5.540536 0.00010476096)
(3.8551518e-06 5.5405267 0.00010476845)
(-3.793745e-06 5.5405322 0.00010469595)
(1.2671113e-05 5.5405362 0.00010470296)
(6.0546082e-06 5.5405218 0.0001045315)
(3.4634341e-05 5.5405549 0.0001046948)
(1.1552088e-05 5.5404857 0.00010406978)
(-4.0844907e-05 5.5394084 0.00010530884)
(9.7574199e-05 -6.3113937 2.5126955e-05)
(1.9107433e-05 -6.3129304 2.511248e-05)
(-4.3746365e-06 -6.3128516 2.5070296e-05)
(9.722873e-06 -6.3128999 2.5058299e-05)
(-1.1502449e-05 -6.3128681 2.506298e-05)
(9.4488454e-06 -6.3129047 2.5076168e-05)
(-2.5947022e-06 -6.3128873 2.5078164e-05)
(1.6590865e-05 -6.3129053 2.508668e-05)
(-3.0080203e-06 -6.3128942 2.5087144e-05)
(1.2776445e-05 -6.3129001 2.5089899e-05)
(-1.2776612e-05 -6.3129001 2.5089899e-05)
(3.0079309e-06 -6.3128942 2.5087144e-05)
(-1.6590841e-05 -6.3129053 2.5086682e-05)
(2.5948555e-06 -6.3128873 2.5078166e-05)
(-9.4486172e-06 -6.3129047 2.507617e-05)
(1.1502625e-05 -6.3128681 2.5062977e-05)
(-9.7227655e-06 -6.3128999 2.5058294e-05)
(4.3746926e-06 -6.3128516 2.5070291e-05)
(-1.9107384e-05 -6.3129304 2.5112481e-05)
(-9.7574162e-05 -6.3113937 2.5126983e-05)
(-2.5940164e-06 7.5939294 -3.0716164e-05)
(-1.7285423e-05 7.5955212 -3.0962494e-05)
(-3.3948795e-05 7.5955333 -3.067245e-05)
(-1.9176905e-05 7.5955254 -3.0848004e-05)
(-2.0993344e-05 7.5955271 -3.0746448e-05)
(-1.160202e-05 7.5955369 -3.0832512e-05)
(-5.1386217e-06 7.5955272 -3.0790722e-05)
(-2.2970616e-06 7.5955392 -3.082532e-05)
(1.6736393e-06 7.5955301 -3.0804985e-05)
(-1.9910645e-06 7.5955343 -3.0812978e-05)
(1.990844e-06 7.5955343 -3.0812976e-05)
(-1.6737997e-06 7.5955301 -3.0804983e-05)
(2.2970031e-06 7.5955392 -3.0825315e-05)
(5.1387074e-06 7.5955272 -3.0790721e-05)
(1.16022e-05 7.5955369 -3.0832508e-05)
(2.0993471e-05 7.5955271 -3.0746444e-05)
(1.9176946e-05 7.5955254 -3.0848002e-05)
(3.3948714e-05 7.5955333 -3.0672454e-05)
(1.728534e-05 7.5955212 -3.0962483e-05)
(2.5939724e-06 7.5939294 -3.0716138e-05)
(4.1709436e-05 -8.7661671 2.777253e-05)
(-1.4571469e-05 -8.7682077 2.8264681e-05)
(2.6884471e-05 -8.7681417 2.7437709e-05)
(8.3353564e-06 -8.7682004 2.7951319e-05)
(3.4894602e-08 -8.7681487 2.7608391e-05)
(1.373599e-05 -8.7681878 2.7871017e-05)
(-1.3463869e-06 -8.7681583 2.7736506e-05)
(2.2999869e-05 -8.768189 2.785087e-05)
(-8.7429113e-06 -8.768178 2.7787261e-05)
(1.9679497e-05 -8.7681891 2.781673e-05)
(-1.9679556e-05 -8.7681891 2.7816731e-05)
(8.7428941e-06 -8.768178 2.7787263e-05)
(-2.299984e-05 -8.768189 2.7850868e-05)
(1.3464806e-06 -8.7681583 2.7736505e-05)
(-1.3735863e-05 -8.7681878 2.7871013e-05)
(-3.4839856e-08 -8.7681487 2.7608381e-05)
(-8.3354165e-06 -8.7682004 2.7951316e-05)
(-2.6884623e-05 -8.7681417 2.7437711e-05)
(1.4571372e-05 -8.7682077 2.8264684e-05)
(-4.1709452e-05 -8.7661671 2.7772534e-05)
(-4.5972935e-05 10.259211 -4.252477e-05)
(-1.220185e-05 10.261468 -4.1835226e-05)
(-3.0804523e-05 10.261422 -4.2748358e-05)
(-2.5346556e-05 10.261465 -4.2152753e-05)
(-1.9311812e-05 10.261409 -4.2524996e-05)
(-2.1226748e-05 10.261461 -4.2245409e-05)
(-1.1392485e-05 10.261416 -4.2399634e-05)
(-2.4219378e-05 10.261449 -4.2303457e-05)
(8.6222882e-07 10.261424 -4.2381937e-05)
(-1.5277363e-05 10.261435 -4.2361377e-05)
(1.5277194e-05 10.261435 -4.2361378e-05)
(-8.6236974e-07 10.261424 -4.2381939e-05)
(2.4219284e-05 10.261449 -4.2303464e-05)
(1.1392448e-05 10.261416 -4.2399641e-05)
(2.122674e-05 10.261461 -4.2245417e-05)
(1.9311805e-05 10.261409 -4.2525007e-05)
(2.5346579e-05 10.261465 -4.2152762e-05)
(3.0804482e-05 10.261422 -4.2748367e-05)
(1.2201791e-05 10.261468 -4.1835232e-05)
(4.5972891e-05 10.259211 -4.2524782e-05)
(9.0696519e-05 -12.353218 -8.4235802e-06)
(-6.5185325e-05 -12.356136 -7.1810224e-06)
(2.3093059e-05 -12.355963 -8.518584e-06)
(3.3168498e-06 -12.356092 -7.2989471e-06)
(-2.4759639e-06 -12.355983 -8.2501628e-06)
(3.2236664e-05 -12.356069 -7.5793394e-06)
(-1.7371548e-05 -12.356004 -7.9787166e-06)
(4.3850134e-05 -12.356051 -7.7168241e-06)
(-2.9912339e-05 -12.35602 -7.9258682e-06)
(4.1240742e-05 -12.356035 -7.8674564e-06)
(-4.1240731e-05 -12.356035 -7.8674479e-06)
(2.9912365e-05 -12.35602 -7.9258694e-06)
(-4.3850104e-05 -12.356051 -7.7168177e-06)
(1.7371568e-05 -12.356004 -7.9787084e-06)
(-3.223668e-05 -12.356069 -7.5793244e-06)
(2.4759151e-06 -12.355983 -8.2501476e-06)
(-3.3168841e-06 -12.356092 -7.2989282e-06)
(-2.3093122e-05 -12.355963 -8.5185662e-06)
(6.518527e-05 -12.356136 -7.1810218e-06)
(-9.0696532e-05 -12.353218 -8.4235842e-06)
(-9.466319e-05 14.207161 -5.1225157e-05)
(2.9330996e-05 14.210518 -5.1593822e-05)
(-4.0206897e-05 14.210268 -5.1183614e-05)
(-1.6758388e-05 14.210488 -5.1504111e-05)
(-1.5707482e-05 14.210333 -5.1246246e-05)
(-4.0916501e-05 14.210466 -5.1399023e-05)
(2.4010047e-06 14.210369 -5.1288959e-05)
(-4.7966374e-05 14.21044 -5.1352944e-05)
(1.9829002e-05 14.210393 -5.1309471e-05)
(-3.8668735e-05 14.210415 -5.1328972e-05)
(3.8668846e-05 14.210415 -5.132897e-05)
(-1.9828908e-05 14.210393 -5.1309469e-05)
(4.7966429e-05 14.21044 -5.1352941e-05)
(-2.4009963e-06 14.210369 -5.1288956e-05)
(4.0916435e-05 14.210466 -5.1399018e-05)
(1.5707323e-05 14.210333 -5.1246238e-05)
(1.6758179e-05 14.210488 -5.1504108e-05)
(4.0206673e-05 14.210268 -5.1183608e-05)
(-2.9331165e-05 14.210518 -5.1593819e-05)
(9.4663114e-05 14.207161 -5.1225155e-05)
(-4.1776365e-05 -16.685699 -0.00094563716)
(0.0001629952 -16.689897 -0.00094695739)
(-5.1643699e-05 -16.68955 -0.00094559125)
(0.00015312232 -16.689848 -0.00094669864)
(-6.968981e-05 -16.689618 -0.00094592814)
(0.00013239289 -16.689803 -0.00094653201)
(-9.0056131e-05 -16.68966 -0.00094620097)
(0.00011412609 -16.689759 -0.00094642921)
(-0.0001015603 -16.689689 -0.00094624528)
(0.00010611754 -16.689719 -0.00094629238)
(-0.00010611754 -16.689719 -0.00094629238)
(0.00010156031 -16.689689 -0.00094624529)
(-0.00011412602 -16.689759 -0.00094642922)
(9.0056198e-05 -16.68966 -0.00094620098)
(-0.00013239281 -16.689803 -0.00094653201)
(6.9689906e-05 -16.689618 -0.00094592815)
(-0.00015312228 -16.689848 -0.00094669864)
(5.164374e-05 -16.68955 -0.00094559126)
(-0.0001629952 -16.689897 -0.00094695738)
(4.1776358e-05 -16.685699 -0.00094563715)
(-0.00077901981 3.9807035 0.00028119668)
(2.40151e-05 3.9812214 0.00028131726)
(-5.9298204e-05 3.9813953 0.00028137776)
(1.2707623e-05 3.9814005 0.00028135782)
(-1.3022316e-05 3.9813989 0.00028134548)
(1.214026e-05 3.981406 0.00028132961)
(-3.9943706e-06 3.9814 0.00028132068)
(8.0470214e-06 3.9814084 0.00028131959)
(-3.4079215e-06 3.9814051 0.00028132041)
(6.5687217e-06 3.9814088 0.00028132108)
(-6.568872e-06 3.9814088 0.00028132108)
(3.4078622e-06 3.9814051 0.00028132041)
(-8.0469503e-06 3.9814084 0.00028131959)
(3.994539e-06 3.9814 0.00028132067)
(-1.2140064e-05 3.981406 0.00028132961)
(1.3022482e-05 3.9813989 0.00028134549)
(-1.2707426e-05 3.9814005 0.00028135784)
(5.929836e-05 3.9813953 0.00028137778)
(-2.4015079e-05 3.9812214 0.0002813173)
(0.00077901976 3.9807035 0.00028119652)
(0.00019887393 -4.636844 0.00033696341)
(5.659059e-05 -4.6381949 0.00033789835)
(-5.9201958e-05 -4.6380194 0.00033757665)
(1.7398574e-05 -4.6380646 0.00033768212)
(-1.5342602e-05 -4.6380443 0.00033759376)
(1.3602912e-05 -4.6380686 0.00033758443)
(-4.103226e-06 -4.638057 0.00033754778)
(1.0981881e-05 -4.6380689 0.00033755105)
(-3.8166397e-06 -4.6380618 0.00033754549)
(8.7501507e-06 -4.6380667 0.0003375484)
(-8.7503009e-06 -4.6380667 0.0003375484)
(3.8165831e-06 -4.6380618 0.00033754549)
(-1.0981795e-05 -4.6380689 0.00033755104)
(4.1034238e-06 -4.638057 0.00033754777)
(-1.3602687e-05 -4.6380686 0.00033758443)
(1.5342743e-05 -4.6380443 0.00033759377)
(-1.73985e-05 -4.6380646 0.00033768213)
(5.9201887e-05 -4.6380194 0.00033757667)
(-5.6590947e-05 -4.6381949 0.00033789834)
(-0.00019887422 -4.636844 0.00033696356)
(4.0275868e-05 5.5442283 0.00011986732)
(-1.1869675e-05 5.5453065 0.00011862233)
(-3.4427297e-05 5.5453762 0.00011924536)
(-6.0490255e-06 5.5453429 0.00011908229)
(-1.2601238e-05 5.5453574 0.00011925345)
(3.8277105e-06 5.5453535 0.00011924633)
(-3.8298095e-06 5.545348 0.00011931877)
(4.8368984e-06 5.5453573 0.00011931127)
(-2.2459786e-06 5.5453548 0.00011932494)
(3.7013707e-06 5.5453594 0.00011931598)
(-3.7015661e-06 5.5453594 0.00011931598)
(2.2458644e-06 5.5453548 0.00011932494)
(-4.836885e-06 5.5453573 0.00011931127)
(3.8299578e-06 5.545348 0.00011931878)
(-3.8274976e-06 5.5453535 0.00011924634)
(1.2601412e-05 5.5453574 0.00011925345)
(6.0491495e-06 5.5453429 0.00011908229)
(3.442733e-05 5.5453762 0.00011924534)
(1.1869578e-05 5.5453065 0.00011862225)
(-4.0275986e-05 5.5442283 0.00011986716)
(9.7612592e-05 -6.3172439 8.2412977e-06)
(1.9070072e-05 -6.3187821 8.2077227e-06)
(-4.3950687e-06 -6.3187032 8.1670235e-06)
(9.7250009e-06 -6.3187516 8.1546308e-06)
(-1.149777e-05 -6.3187198 8.159733e-06)
(9.4637578e-06 -6.3187565 8.1728877e-06)
(-2.5960723e-06 -6.318739 8.175053e-06)
(1.6603251e-05 -6.3187571 8.1835164e-06)
(-3.0140159e-06 -6.318746 8.1840585e-06)
(1.2785845e-05 -6.3187519 8.186796e-06)
(-1.2786012e-05 -6.3187519 8.1867974e-06)
(3.0139273e-06 -6.318746 8.1840627e-06)
(-1.6603228e-05 -6.3187571 8.1835224e-06)
(2.5962263e-06 -6.318739 8.175059e-06)
(-9.4635319e-06 -6.3187565 8.1728879e-06)
(1.1497944e-05 -6.3187198 8.1597289e-06)
(-9.7248951e-06 -6.3187516 8.1546256e-06)
(4.3951292e-06 -6.3187032 8.1670221e-06)
(-1.9070011e-05 -6.3187821 8.2077295e-06)
(-9.761254e-05 -6.3172439 8.2413812e-06)
(-2.7102361e-06 7.6004973 -1.3429216e-05)
(-1.7269502e-05 7.6020914 -1.367256e-05)
(-3.3906667e-05 7.6021033 -1.3383323e-05)
(-1.9217645e-05 7.6020956 -1.3558577e-05)
(-2.0996216e-05 7.6020971 -1.3457258e-05)
(-1.1627402e-05 7.602107 -1.3543324e-05)
(-5.140749e-06 7.6020972 -1.350161e-05)
(-2.3062744e-06 7.6021093 -1.3536258e-05)
(1.6774011e-06 7.6021001 -1.3516003e-05)
(-1.995202e-06 7.6021044 -1.3524021e-05)
(1.9949815e-06 7.6021044 -1.3524019e-05)
(-1.6775581e-06 7.6021001 -1.3515997e-05)
(2.3062132e-06 7.6021093 -1.3536249e-05)
(5.1408372e-06 7.6020972 -1.3501602e-05)
(1.162758e-05 7.602107 -1.3543322e-05)
(2.0996343e-05 7.6020971 -1.3457261e-05)
(1.9217684e-05 7.6020956 -1.3558576e-05)
(3.3906596e-05 7.6021033 -1.3383303e-05)
(1.7269427e-05 7.6020914 -1.3672534e-05)
(2.7102005e-06 7.6004973 -1.3429147e-05)
(4.1988976e-05 -8.7740819 1.10633e-05)
(-1.4755115e-05 -8.7761266 1.1540707e-05)
(2.6748633e-05 -8.7760582 1.0714373e-05)
(8.4245104e-06 -8.7761185 1.1227623e-05)
(-2.0759954e-09 -8.7760659 1.088488e-05)
(1.3811424e-05 -8.7761056 1.1147556e-05)
(-1.3626051e-06 -8.7760758 1.1013095e-05)
(2.3039231e-05 -8.7761068 1.1127605e-05)
(-8.7710794e-06 -8.7760955 1.1064011e-05)
(1.970772e-05 -8.7761067 1.1093503e-05)
(-1.9707779e-05 -8.7761067 1.1093502e-05)
(8.7710634e-06 -8.7760955 1.1064012e-05)
(-2.3039204e-05 -8.7761068 1.1127604e-05)
(1.3626975e-06 -8.7760758 1.1013092e-05)
(-1.3811298e-05 -8.7761056 1.114755e-05)
(2.1294503e-09 -8.7760659 1.0884874e-05)
(-8.4245706e-06 -8.7761185 1.1227619e-05)
(-2.6748776e-05 -8.7760582 1.0714375e-05)
(1.4755019e-05 -8.7761266 1.1540721e-05)
(-4.1988992e-05 -8.7740819 1.1063314e-05)
(-4.5654956e-05 10.268202 -2.584218e-05)
(-1.2312706e-05 10.270468 -2.5139769e-05)
(-3.0978585e-05 10.270414 -2.6053761e-05)
(-2.5243903e-05 10.270462 -2.5457654e-05)
(-1.9366886e-05 10.270403 -2.5830254e-05)
(-2.1173912e-05 10.270457 -2.5550502e-05)
(-1.1423651e-05 10.270411 -2.5704839e-05)
(-2.4219591e-05 10.270444 -2.5608669e-05)
(8.3652421e-07 10.27042 -2.5687161e-05)
(-1.5273913e-05 10.270431 -2.5666599e-05)
(1.527374e-05 10.270431 -2.56666e-05)
(-8.3666737e-07 10.27042 -2.5687165e-05)
(2.4219494e-05 10.270444 -2.5608677e-05)
(1.1423612e-05 10.270411 -2.5704848e-05)
(2.1173903e-05 10.270457 -2.555051e-05)
(1.9366879e-05 10.270403 -2.583026e-05)
(2.5243923e-05 10.270462 -2.5457658e-05)
(3.0978546e-05 10.270414 -2.605377e-05)
(1.2312648e-05 10.270468 -2.5139778e-05)
(4.565491e-05 10.268202 -2.5842193e-05)
(9.1405194e-05 -12.364179 -2.555217e-05)
(-6.5266355e-05 -12.367097 -2.4336513e-05)
(2.306312e-05 -12.36693 -2.5675025e-05)
(3.4659262e-06 -12.367056 -2.4454903e-05)
(-2.6166804e-06 -12.366949 -2.5406221e-05)
(3.2398766e-05 -12.367033 -2.4735374e-05)
(-1.7455646e-05 -12.366969 -2.5134615e-05)
(4.3905271e-05 -12.367015 -2.4872868e-05)
(-3.0010895e-05 -12.366984 -2.5081813e-05)
(4.1297247e-05 -12.366999 -2.5023449e-05)
(-4.1297233e-05 -12.366999 -2.5023454e-05)
(3.0010924e-05 -12.366984 -2.5081799e-05)
(-4.3905241e-05 -12.367015 -2.4872861e-05)
(1.7455667e-05 -12.366969 -2.5134605e-05)
(-3.239878e-05 -12.367033 -2.4735364e-05)
(2.6166402e-06 -12.366949 -2.5406211e-05)
(-3.4659739e-06 -12.367056 -2.445489e-05)
(-2.3063182e-05 -12.36693 -2.5675012e-05)
(6.5266292e-05 -12.367097 -2.433651e-05)
(-9.1405209e-05 -12.364179 -2.5552174e-05)
(-9.4921133e-05 14.219312 -2.4491655e-05)
(2.9382733e-05 14.222689 -2.482039e-05)
(-4.0196008e-05 14.22242 -2.4409022e-05)
(-1.6800716e-05 14.222653 -2.4729747e-05)
(-1.5663977e-05 14.222489 -2.4472785e-05)
(-4.0958097e-05 14.22263 -2.4624769e-05)
(2.4297608e-06 14.222529 -2.4515774e-05)
(-4.7998563e-05 14.222603 -2.4579059e-05)
(1.9855717e-05 14.222553 -2.4536147e-05)
(-3.8698336e-05 14.222575 -2.455539e-05)
(3.8698447e-05 14.222575 -2.455539e-05)
(-1.9855621e-05 14.222553 -2.4536145e-05)
(4.7998619e-05 14.222603 -2.4579055e-05)
(-2.4297517e-06 14.222529 -2.451577e-05)
(4.0958032e-05 14.22263 -2.4624764e-05)
(1.5663819e-05 14.222489 -2.4472778e-05)
(1.6800507e-05 14.222653 -2.4729737e-05)
(4.0195781e-05 14.22242 -2.4409013e-05)
(-2.9382905e-05 14.222689 -2.4820385e-05)
(9.4921057e-05 14.219312 -2.4491651e-05)
(-4.3080203e-05 -16.700973 0.0011004134)
(0.00016338544 -16.705176 0.0010998319)
(-5.1570919e-05 -16.70483 0.0011011702)
(0.00015304394 -16.705127 0.0011000845)
(-6.9663247e-05 -16.704897 0.0011008378)
(0.00013233617 -16.705083 0.0011002471)
(-9.0063569e-05 -16.704939 0.001100568)
(0.00011417583 -16.705038 0.0011003469)
(-0.00010155388 -16.704968 0.0011005261)
(0.0001061602 -16.704999 0.0011004813)
(-0.0001061602 -16.704999 0.0011004813)
(0.00010155388 -16.704968 0.0011005261)
(-0.00011417577 -16.705038 0.0011003469)
(9.0063635e-05 -16.704939 0.001100568)
(-0.00013233608 -16.705083 0.0011002471)
(6.9663339e-05 -16.704897 0.0011008378)
(-0.00015304389 -16.705127 0.0011000845)
(5.1570962e-05 -16.70483 0.0011011702)
(-0.00016338543 -16.705176 0.0010998319)
(4.3080204e-05 -16.700973 0.0011004134)
(-0.0007790198 3.9807035 -0.00028120364)
(2.4015102e-05 3.9812214 -0.00028132436)
(-5.9298211e-05 3.9813953 -0.00028138489)
(1.2707617e-05 3.9814005 -0.00028136499)
(-1.3022319e-05 3.9813989 -0.00028135266)
(1.2140258e-05 3.981406 -0.00028133679)
(-3.9943715e-06 3.9814 -0.00028132788)
(8.047021e-06 3.9814084 -0.00028132679)
(-3.4079218e-06 3.9814051 -0.00028132761)
(6.5687211e-06 3.9814088 -0.00028132828)
(-6.5688728e-06 3.9814088 -0.00028132828)
(3.4078607e-06 3.9814051 -0.00028132762)
(-8.0469505e-06 3.9814084 -0.0002813268)
(3.9945416e-06 3.9814 -0.00028132787)
(-1.2140057e-05 3.981406 -0.0002813368)
(1.302249e-05 3.9813989 -0.00028135265)
(-1.2707413e-05 3.9814005 -0.00028136498)
(5.9298375e-05 3.9813953 -0.00028138486)
(-2.4015127e-05 3.9812214 -0.00028132434)
(0.00077901971 3.9807035 -0.00028120363)
(0.00019887387 -4.636844 -0.00033697011)
(5.6590538e-05 -4.6381949 -0.00033790534)
(-5.9201969e-05 -4.6380194 -0.00033758365)
(1.7398567e-05 -4.6380646 -0.00033768917)
(-1.5342607e-05 -4.6380443 -0.00033760082)
(1.3602911e-05 -4.6380686 -0.00033759149)
(-4.1032279e-06 -4.638057 -0.00033755485)
(1.0981881e-05 -4.6380689 -0.00033755813)
(-3.8166389e-06 -4.6380618 -0.00033755256)
(8.750151e-06 -4.6380667 -0.00033755547)
(-8.7503018e-06 -4.6380667 -0.00033755548)
(3.81658e-06 -4.6380618 -0.00033755257)
(-1.0981795e-05 -4.6380689 -0.00033755813)
(4.103428e-06 -4.638057 -0.00033755485)
(-1.3602682e-05 -4.6380686 -0.00033759149)
(1.5342753e-05 -4.6380443 -0.00033760081)
(-1.7398487e-05 -4.6380646 -0.00033768915)
(5.9201896e-05 -4.6380194 -0.00033758362)
(-5.6590823e-05 -4.6381949 -0.00033790529)
(-0.00019887409 -4.636844 -0.00033696982)
(4.0275863e-05 5.5442283 -0.00011987095)
(-1.1869677e-05 5.5453065 -0.00011862602)
(-3.4427302e-05 5.5453762 -0.00011924906)
(-6.0490204e-06 5.5453429 -0.00011908598)
(-1.2601239e-05 5.5453574 -0.00011925714)
(3.8277098e-06 5.5453535 -0.00011925002)
(-3.8298104e-06 5.545348 -0.00011932247)
(4.836898e-06 5.5453573 -0.00011931497)
(-2.2459772e-06 5.5453548 -0.00011932863)
(3.7013705e-06 5.5453594 -0.00011931968)
(-3.7015664e-06 5.5453594 -0.00011931968)
(2.2458621e-06 5.5453548 -0.00011932863)
(-4.836884e-06 5.5453573 -0.00011931497)
(3.8299608e-06 5.545348 -0.00011932247)
(-3.8274958e-06 5.5453535 -0.00011925003)
(1.2601412e-05 5.5453574 -0.00011925713)
(6.0491361e-06 5.5453429 -0.00011908598)
(3.4427307e-05 5.5453762 -0.00011924908)
(1.186953e-05 5.5453065 -0.0001186261)
(-4.0276012e-05 5.5442283 -0.00011987097)
(9.7612566e-05 -6.3172439 -8.2434421e-06)
(1.9070049e-05 -6.3187821 -8.2100284e-06)
(-4.395071e-06 -6.3187032 -8.1693387e-06)
(9.7250056e-06 -6.3187516 -8.1569409e-06)
(-1.1497773e-05 -6.3187198 -8.1620423e-06)
(9.4637573e-06 -6.3187565 -8.1751924e-06)
(-2.5960723e-06 -6.318739 -8.1773561e-06)
(1.6603251e-05 -6.3187571 -8.1858208e-06)
(-3.0140138e-06 -6.318746 -8.1863627e-06)
(1.2785845e-05 -6.3187519 -8.189101e-06)
(-1.278601e-05 -6.3187519 -8.1890993e-06)
(3.0139269e-06 -6.318746 -8.1863592e-06)
(-1.6603225e-05 -6.3187571 -8.1858148e-06)
(2.596224e-06 -6.318739 -8.1773495e-06)
(-9.4635347e-06 -6.3187565 -8.1751874e-06)
(1.1497942e-05 -6.3187198 -8.1620452e-06)
(-9.7248948e-06 -6.3187516 -8.1569429e-06)
(4.3951347e-06 -6.3187032 -8.1693355e-06)
(-1.9069958e-05 -6.3187821 -8.210001e-06)
(-9.7612492e-05 -6.3172439 -8.2433336e-06)
(-2.7102348e-06 7.6004973 1.3427346e-05)
(-1.7269496e-05 7.6020914 1.3670698e-05)
(-3.3906671e-05 7.6021033 1.3381472e-05)
(-1.9217644e-05 7.6020956 1.3556727e-05)
(-2.0996219e-05 7.6020971 1.3455399e-05)
(-1.1627403e-05 7.602107 1.3541454e-05)
(-5.1407518e-06 7.6020972 1.3499739e-05)
(-2.3062734e-06 7.6021093 1.3534384e-05)
(1.6774016e-06 7.6021001 1.3514125e-05)
(-1.9951997e-06 7.6021044 1.3522145e-05)
(1.9949836e-06 7.6021044 1.3522147e-05)
(-1.6775582e-06 7.6021001 1.3514131e-05)
(2.3062159e-06 7.6021093 1.353439e-05)
(5.1408361e-06 7.6020972 1.3499747e-05)
(1.1627579e-05 7.602107 1.354146e-05)
(2.0996344e-05 7.6020971 1.3455392e-05)
(1.921769e-05 7.6020956 1.3556721e-05)
(3.3906604e-05 7.6021033 1.3381478e-05)
(1.7269443e-05 7.6020914 1.3670727e-05)
(2.7102119e-06 7.6004973 1.3427426e-05)
(4.1988979e-05 -8.7740819 -1.1064522e-05)
(-1.4755108e-05 -8.7761266 -1.1541914e-05)
(2.6748626e-05 -8.7760582 -1.0715564e-05)
(8.4245116e-06 -8.7761185 -1.1228827e-05)
(-2.0803553e-09 -8.7760659 -1.0886095e-05)
(1.3811426e-05 -8.7761056 -1.1148776e-05)
(-1.3626047e-06 -8.7760758 -1.1014314e-05)
(2.3039232e-05 -8.7761068 -1.1128824e-05)
(-8.7710819e-06 -8.7760955 -1.1065234e-05)
(1.9707717e-05 -8.7761067 -1.1094731e-05)
(-1.9707775e-05 -8.7761067 -1.1094731e-05)
(8.7710626e-06 -8.7760955 -1.1065232e-05)
(-2.3039202e-05 -8.7761068 -1.112882e-05)
(1.3626951e-06 -8.7760758 -1.1014313e-05)
(-1.3811298e-05 -8.7761056 -1.1148773e-05)
(2.1339907e-09 -8.7760659 -1.0886088e-05)
(-8.4245647e-06 -8.7761185 -1.1228817e-05)
(-2.6748772e-05 -8.7760582 -1.0715544e-05)
(1.4755018e-05 -8.7761266 -1.1541888e-05)
(-4.1988995e-05 -8.7740819 -1.1064495e-05)
(-4.5654956e-05 10.268202 2.5841329e-05)
(-1.2312709e-05 10.270468 2.5138923e-05)
(-3.0978583e-05 10.270414 2.6052916e-05)
(-2.5243905e-05 10.270462 2.54568e-05)
(-1.9366885e-05 10.270403 2.5829402e-05)
(-2.1173912e-05 10.270457 2.5549653e-05)
(-1.1423652e-05 10.270411 2.5703993e-05)
(-2.4219586e-05 10.270444 2.5607821e-05)
(8.3652172e-07 10.27042 2.5686313e-05)
(-1.5273915e-05 10.270431 2.5665747e-05)
(1.5273742e-05 10.270431 2.5665747e-05)
(-8.3666942e-07 10.27042 2.5686312e-05)
(2.4219496e-05 10.270444 2.5607824e-05)
(1.1423612e-05 10.270411 2.5703996e-05)
(2.1173905e-05 10.270457 2.5549662e-05)
(1.936688e-05 10.270403 2.582942e-05)
(2.5243924e-05 10.270462 2.545682e-05)
(3.0978543e-05 10.270414 2.6052933e-05)
(1.2312647e-05 10.270468 2.5138928e-05)
(4.565491e-05 10.268202 2.5841332e-05)
(9.1405191e-05 -12.364179 2.5551949e-05)
(-6.5266359e-05 -12.367097 2.433628e-05)
(2.3063124e-05 -12.36693 2.5674786e-05)
(3.4659254e-06 -12.367056 2.4454668e-05)
(-2.6166797e-06 -12.366949 2.5406001e-05)
(3.2398767e-05 -12.367033 2.4735147e-05)
(-1.7455646e-05 -12.366969 2.5134394e-05)
(4.3905273e-05 -12.367015 2.4872638e-05)
(-3.0010896e-05 -12.366984 2.5081584e-05)
(4.1297248e-05 -12.366999 2.5023223e-05)
(-4.1297234e-05 -12.366999 2.5023228e-05)
(3.0010925e-05 -12.366984 2.5081572e-05)
(-4.390524e-05 -12.367015 2.4872631e-05)
(1.745567e-05 -12.366969 2.5134382e-05)
(-3.239878e-05 -12.367033 2.4735138e-05)
(2.616639e-06 -12.366949 2.540599e-05)
(-3.4659722e-06 -12.367056 2.4454656e-05)
(-2.3063186e-05 -12.36693 2.5674776e-05)
(6.5266293e-05 -12.367097 2.433628e-05)
(-9.1405208e-05 -12.364179 2.555196e-05)
(-9.4921132e-05 14.219312 2.4491383e-05)
(2.9382731e-05 14.222689 2.4820121e-05)
(-4.0196006e-05 14.22242 2.4408752e-05)
(-1.6800715e-05 14.222653 2.4729478e-05)
(-1.5663977e-05 14.222489 2.4472514e-05)
(-4.0958097e-05 14.22263 2.4624499e-05)
(2.4297606e-06 14.222529 2.4515502e-05)
(-4.7998564e-05 14.222603 2.4578787e-05)
(1.9855715e-05 14.222553 2.4535871e-05)
(-3.8698334e-05 14.222575 2.4555113e-05)
(3.8698447e-05 14.222575 2.4555112e-05)
(-1.985562e-05 14.222553 2.4535869e-05)
(4.799862e-05 14.222603 2.4578784e-05)
(-2.4297513e-06 14.222529 2.45155e-05)
(4.0958032e-05 14.22263 2.4624495e-05)
(1.5663819e-05 14.222489 2.4472508e-05)
(1.6800508e-05 14.222653 2.4729468e-05)
(4.0195781e-05 14.22242 2.4408748e-05)
(-2.9382902e-05 14.222689 2.4820123e-05)
(9.4921056e-05 14.219312 2.4491386e-05)
(-4.3080204e-05 -16.700973 -0.0011004135)
(0.00016338543 -16.705176 -0.001099832)
(-5.1570908e-05 -16.70483 -0.0011011703)
(0.00015304393 -16.705127 -0.0011000846)
(-6.9663246e-05 -16.704897 -0.0011008379)
(0.00013233617 -16.705083 -0.0011002472)
(-9.0063569e-05 -16.704939 -0.0011005681)
(0.00011417583 -16.705038 -0.001100347)
(-0.00010155388 -16.704968 -0.0011005262)
(0.0001061602 -16.704999 -0.0011004814)
(-0.0001061602 -16.704999 -0.0011004814)
(0.00010155388 -16.704968 -0.0011005262)
(-0.00011417577 -16.705038 -0.001100347)
(9.0063636e-05 -16.704939 -0.0011005681)
(-0.00013233608 -16.705083 -0.0011002472)
(6.9663343e-05 -16.704897 -0.0011008379)
(-0.00015304389 -16.705127 -0.0011000846)
(5.1570959e-05 -16.70483 -0.0011011703)
(-0.00016338543 -16.705176 -0.001099832)
(4.3080203e-05 -16.700973 -0.0011004135)
(-0.00077803091 3.9786042 0.0015598923)
(2.3929496e-05 3.9791226 0.0015603063)
(-5.9277581e-05 3.9792961 0.0015603387)
(1.271639e-05 3.9793012 0.0015603554)
(-1.299457e-05 3.9792997 0.0015603702)
(1.2148384e-05 3.9793068 0.001560389)
(-3.9816372e-06 3.9793008 0.0015603959)
(8.0429772e-06 3.9793092 0.0015603997)
(-3.4029649e-06 3.9793059 0.0015603974)
(6.5635836e-06 3.9793096 0.0015603977)
(-6.5637362e-06 3.9793096 0.0015603977)
(3.4029014e-06 3.9793059 0.0015603974)
(-8.0429052e-06 3.9793092 0.0015603997)
(3.9818043e-06 3.9793008 0.0015603959)
(-1.2148178e-05 3.9793068 0.001560389)
(1.2994744e-05 3.9792997 0.0015603702)
(-1.2716178e-05 3.9793012 0.0015603554)
(5.9277738e-05 3.9792961 0.0015603387)
(-2.3929489e-05 3.9791226 0.0015603063)
(0.00077803086 3.9786042 0.0015598924)
(0.00019816183 -4.631816 -0.00035479583)
(5.6278059e-05 -4.6331629 -0.00035582816)
(-5.9066038e-05 -4.6329883 -0.00035547484)
(1.738125e-05 -4.6330334 -0.0003555833)
(-1.5280782e-05 -4.6330133 -0.00035549275)
(1.3620385e-05 -4.6330375 -0.0003554841)
(-4.0784204e-06 -4.633026 -0.00035544693)
(1.0977707e-05 -4.633038 -0.00035545045)
(-3.8087277e-06 -4.6330308 -0.00035544475)
(8.7428462e-06 -4.6330357 -0.00035544772)
(-8.7429972e-06 -4.6330357 -0.00035544772)
(3.808669e-06 -4.6330308 -0.00035544475)
(-1.0977622e-05 -4.633038 -0.00035545045)
(4.0786216e-06 -4.633026 -0.00035544693)
(-1.3620154e-05 -4.6330375 -0.0003554841)
(1.5280931e-05 -4.6330133 -0.00035549275)
(-1.7381163e-05 -4.6330334 -0.00035558329)
(5.9065985e-05 -4.6329883 -0.00035547483)
(-5.627829e-05 -4.6331629 -0.00035582811)
(-0.00019816201 -4.631816 -0.0003547957)
(4.0844772e-05 5.5394084 -0.00010531021)
(-1.1552197e-05 5.5404857 -0.00010407116)
(-3.4634298e-05 5.5405549 -0.00010469617)
(-6.0544731e-06 5.5405218 -0.00010453286)
(-1.2670937e-05 5.5405362 -0.00010470431)
(3.7939556e-06 5.5405322 -0.0001046973)
(-3.8550052e-06 5.5405267 -0.00010476981)
(4.8318929e-06 5.540536 -0.00010476231)
(-2.2436034e-06 5.5405335 -0.00010477598)
(3.7027128e-06 5.5405381 -0.00010476704)
(-3.7029093e-06 5.5405381 -0.00010476704)
(2.2434878e-06 5.5405335 -0.00010477598)
(-4.8318787e-06 5.540536 -0.00010476231)
(3.8551554e-06 5.5405267 -0.0001047698)
(-3.7937409e-06 5.5405322 -0.0001046973)
(1.267111e-05 5.5405362 -0.00010470431)
(6.0545885e-06 5.5405218 -0.00010453286)
(3.4634286e-05 5.5405549 -0.00010469617)
(1.1552099e-05 5.5404857 -0.00010407119)
(-4.0844857e-05 5.5394084 -0.0001053101)
(9.7574143e-05 -6.3113937 -2.5127843e-05)
(1.9107374e-05 -6.3129304 -2.511343e-05)
(-4.3746384e-06 -6.3128516 -2.5071249e-05)
(9.7228759e-06 -6.3128999 -2.5059252e-05)
(-1.1502446e-05 -6.3128681 -2.5063927e-05)
(9.4488469e-06 -6.3129047 -2.5077116e-05)
(-2.5947018e-06 -6.3128873 -2.5079112e-05)
(1.6590865e-05 -6.3129053 -2.5087628e-05)
(-3.0080205e-06 -6.3128942 -2.5088092e-05)
(1.2776446e-05 -6.3129001 -2.5090846e-05)
(-1.277661e-05 -6.3129001 -2.5090846e-05)
(3.0079344e-06 -6.3128942 -2.5088091e-05)
(-1.6590839e-05 -6.3129053 -2.5087626e-05)
(2.594853e-06 -6.3128873 -2.507911e-05)
(-9.448625e-06 -6.3129047 -2.5077117e-05)
(1.1502618e-05 -6.3128681 -2.5063927e-05)
(-9.7227645e-06 -6.3128999 -2.5059252e-05)
(4.3747084e-06 -6.3128516 -2.5071247e-05)
(-1.9107257e-05 -6.3129304 -2.5113414e-05)
(-9.757405e-05 -6.3113937 -2.5127789e-05)
(-2.5940119e-06 7.5939294 3.0715387e-05)
(-1.7285414e-05 7.5955212 3.0961727e-05)
(-3.3948791e-05 7.5955333 3.0671685e-05)
(-1.9176908e-05 7.5955254 3.0847239e-05)
(-2.0993349e-05 7.5955271 3.0745682e-05)
(-1.1602022e-05 7.5955369 3.0831746e-05)
(-5.1386225e-06 7.5955272 3.0789956e-05)
(-2.2970639e-06 7.5955392 3.0824555e-05)
(1.6736374e-06 7.5955301 3.0804217e-05)
(-1.9910638e-06 7.5955343 3.0812206e-05)
(1.9908482e-06 7.5955343 3.0812206e-05)
(-1.6737936e-06 7.5955301 3.0804218e-05)
(2.2970057e-06 7.5955392 3.0824556e-05)
(5.1387041e-06 7.5955272 3.0789956e-05)
(1.1602195e-05 7.5955369 3.0831739e-05)
(2.0993473e-05 7.5955271 3.0745674e-05)
(1.9176958e-05 7.5955254 3.0847234e-05)
(3.3948732e-05 7.5955333 3.0671691e-05)
(1.7285381e-05 7.5955212 3.0961738e-05)
(2.594004e-06 7.5939294 3.0715433e-05)
(4.1709441e-05 -8.7661671 -2.7773017e-05)
(-1.4571459e-05 -8.7682077 -2.8265164e-05)
(2.6884471e-05 -8.7681417 -2.7438189e-05)
(8.3353493e-06 -8.7682004 -2.7951806e-05)
(3.4888928e-08 -8.7681487 -2.7608874e-05)
(1.3735986e-05 -8.7681878 -2.787151e-05)
(-1.3463874e-06 -8.7681583 -2.7736998e-05)
(2.2999867e-05 -8.768189 -2.7851364e-05)
(-8.742913e-06 -8.768178 -2.7787756e-05)
(1.9679497e-05 -8.7681891 -2.7817224e-05)
(-1.9679553e-05 -8.7681891 -2.7817222e-05)
(8.7428972e-06 -8.768178 -2.7787754e-05)
(-2.2999839e-05 -8.768189 -2.785136e-05)