/*--------------------------------*- C++ -*----------------------------------*\
  =========                 |
  \\      /  F ield         | OpenFOAM: The Open Source CFD Toolbox
   \\    /   O peration     | Website:  https://openfoam.org
    \\  /    A nd           | Version:  8
     \\/     M anipulation  |
\*---------------------------------------------------------------------------*/
FoamFile
{
    version     2.0;
    format      ascii;
    class       volScalarField;
    location    "0.8";
    object      N;
}
// * * * * * * * * * * * * * * * * * * * * * * * * * * * * * * * * * * * * * //

dimensions      [0 -3 0 0 0 0 0];

internalField   nonuniform List<scalar> 
800
(
1580885.2
1580726.7
1580809.8
1580797.7
1580805.4
1580803.9
1580804.9
1580804.8
1580804.9
1580804.9
1580804.9
1580804.9
1580804.8
1580804.9
1580803.9
1580805.4
1580797.7
1580809.8
1580726.7
1580885.2
4.1706615
0.80930463
2.4056544
2.1545718
2.3207489
2.2559123
2.2686653
2.2770694
2.299685
2.3132138
2.31183
2.2954109
2.2708304
2.259264
2.2431111
2.307264
2.1361818
2.3844881
0.78911531
4.1393201
0.10003968
0.10000662
0.10002145
0.10001895
0.10002059
0.10001996
0.10002011
0.10002021
0.10002043
0.10002054
0.10002053
0.10002039
0.10002015
0.10002003
0.10001984
0.10002047
0.10001878
0.10002124
0.10000643
0.10003934
0.099996304
0.0999963
0.0999963
0.0999963
0.0999963
0.099996302
0.099996301
0.099996301
0.099996301
0.0999963
0.0999963
0.099996301
0.099996301
0.099996301
0.099996301
0.099996299
0.0999963
0.099996299
0.099996299
0.099996304
0.099999962
0.099999958
0.099999957
0.099999959
0.09999996
0.09999996
0.099999961
0.099999958
0.099999956
0.099999955
0.099999955
0.099999956
0.099999959
0.099999962
0.099999961
0.099999961
0.09999996
0.099999959
0.099999959
0.099999963
0.099993092
0.09999309
0.099993091
0.099993086
0.099993085
0.099993089
0.099993088
0.099993089
0.099993089
0.09999309
0.09999309
0.099993089
0.09999309
0.099993089
0.09999309
0.099993086
0.099993086
0.099993092
0.09999309
0.099993092
0.10000088
0.10000088
0.10000088
0.10000088
0.10000088
0.10000088
0.10000088
0.10000088
0.10000088
0.10000088
0.10000088
0.10000088
0.10000088
0.10000088
0.10000088
0.10000089
0.10000089
0.10000089
0.10000089
0.10000088
0.099990518
0.099990501
0.099990511
0.099990504
0.099990508
0.099990505
0.099990507
0.099990507
0.099990508
0.099990508
0.099990508
0.099990509
0.099990507
0.099990508
0.099990507
0.09999051
0.099990506
0.099990514
0.099990503
0.09999052
0.10001107
0.10001108
0.10001107
0.10001108
0.10001108
0.10001108
0.10001108
0.10001108
0.10001108
0.10001108
0.10001108
0.10001108
0.10001108
0.10001108
0.10001108
0.10001107
0.10001108
0.10001107
0.10001108
0.10001106
0.099982489
0.099982486
0.09998249
0.099982486
0.09998249
0.099982487
0.099982489
0.099982486
0.099982487
0.099982486
0.099982486
0.099982487
0.099982486
0.099982489
0.099982487
0.09998249
0.099982486
0.099982489
0.099982486
0.099982489
1580504.8
1580337.6
1580423.7
1580411.1
1580419.1
1580417.5
1580418.5
1580418.4
1580418.5
1580418.5
1580418.5
1580418.5
1580418.4
1580418.5
1580417.5
1580419.1
1580411.1
1580423.6
1580337.6
1580504.8
0.10002802
0.10000524
0.10001604
0.10001439
0.10001549
0.10001506
0.10001515
0.10001522
0.10001537
0.10001546
0.10001545
0.10001534
0.10001518
0.10001509
0.10001498
0.1000154
0.10001427
0.1000159
0.1000051
0.10002782
0.10000037
0.10000037
0.10000037
0.10000037
0.10000037
0.10000037
0.10000037
0.10000037
0.10000037
0.10000037
0.10000037
0.10000037
0.10000037
0.10000037
0.10000037
0.10000037
0.10000037
0.10000037
0.10000037
0.10000037
0.099996297
0.099996293
0.099996292
0.099996293
0.099996292
0.099996294
0.099996294
0.099996294
0.099996293
0.099996293
0.099996293
0.099996293
0.099996294
0.099996294
0.099996293
0.099996291
0.099996292
0.099996292
0.099996292
0.099996296
0.099999968
0.099999963
0.099999963
0.099999964
0.099999965
0.099999966
0.099999966
0.099999964
0.099999962
0.09999996
0.09999996
0.099999962
0.099999964
0.099999967
0.099999967
0.099999967
0.099999966
0.099999964
0.099999965
0.099999969
0.099993091
0.099993089
0.09999309
0.099993084
0.099993084
0.099993088
0.099993087
0.099993088
0.099993088
0.099993088
0.099993089
0.099993088
0.099993088
0.099993087
0.099993088
0.099993084
0.099993085
0.09999309
0.099993089
0.099993091
0.10000088
0.10000089
0.10000089
0.10000089
0.10000089
0.10000088
0.10000088
0.10000088
0.10000088
0.10000089
0.10000089
0.10000089
0.10000089
0.10000089
0.10000089
0.10000089
0.10000089
0.10000089
0.10000089
0.10000089
0.099990518
0.0999905
0.099990511
0.099990504
0.099990507
0.099990505
0.099990506
0.099990506
0.099990507
0.099990507
0.099990507
0.099990508
0.099990507
0.099990508
0.099990506
0.099990509
0.099990506
0.099990513
0.099990502
0.099990519
0.10001107
0.10001109
0.10001108
0.10001108
0.10001108
0.10001108
0.10001108
0.10001108
0.10001108
0.10001108
0.10001108
0.10001108
0.10001108
0.10001108
0.10001108
0.10001108
0.10001108
0.10001107
0.10001108
0.10001106
0.09998249
0.099982484
0.09998249
0.099982487
0.09998249
0.099982487
0.099982489
0.099982487
0.099982488
0.099982487
0.099982486
0.099982488
0.099982487
0.099982489
0.099982487
0.09998249
0.099982487
0.099982489
0.099982484
0.09998249
1580504.8
1580337.6
1580423.7
1580411.1
1580419.1
1580417.5
1580418.5
1580418.4
1580418.5
1580418.5
1580418.5
1580418.5
1580418.4
1580418.5
1580417.5
1580419.1
1580411.1
1580423.6
1580337.6
1580504.8
0.10002802
0.10000524
0.10001604
0.10001439
0.10001549
0.10001506
0.10001515
0.10001522
0.10001537
0.10001546
0.10001545
0.10001534
0.10001518
0.10001509
0.10001498
0.1000154
0.10001427
0.1000159
0.1000051
0.10002782
0.10000037
0.10000037
0.10000037
0.10000037
0.10000037
0.10000037
0.10000037
0.10000037
0.10000037
0.10000037
0.10000037
0.10000037
0.10000037
0.10000037
0.10000037
0.10000037
0.10000037
0.10000037
0.10000037
0.10000037
0.099996297
0.099996293
0.099996292
0.099996293
0.099996292
0.099996294
0.099996294
0.099996294
0.099996293
0.099996293
0.099996293
0.099996293
0.099996294
0.099996294
0.099996293
0.099996291
0.099996292
0.099996292
0.099996292
0.099996296
0.099999968
0.099999963
0.099999963
0.099999964
0.099999965
0.099999966
0.099999966
0.099999964
0.099999962
0.09999996
0.09999996
0.099999962
0.099999964
0.099999967
0.099999967
0.099999967
0.099999966
0.099999964
0.099999965
0.099999969
0.099993091
0.099993089
0.09999309
0.099993084
0.099993084
0.099993088
0.099993087
0.099993088
0.099993088
0.099993088
0.099993089
0.099993088
0.099993088
0.099993087
0.099993088
0.099993084
0.099993085
0.09999309
0.099993089
0.099993091
0.10000088
0.10000089
0.10000089
0.10000089
0.10000089
0.10000088
0.10000088
0.10000088
0.10000088
0.10000089
0.10000089
0.10000089
0.10000089
0.10000089
0.10000089
0.10000089
0.10000089
0.10000089
0.10000089
0.10000089
0.099990518
0.0999905
0.099990511
0.099990504
0.099990507
0.099990505
0.099990506
0.099990506
0.099990507
0.099990507
0.099990507
0.099990508
0.099990507
0.099990508
0.099990506
0.099990509
0.099990506
0.099990513
0.099990502
0.099990519
0.10001107
0.10001109
0.10001108
0.10001108
0.10001108
0.10001108
0.10001108
0.10001108
0.10001108
0.10001108
0.10001108
0.10001108
0.10001108
0.10001108
0.10001108
0.10001108
0.10001108
0.10001107
0.10001108
0.10001106
0.09998249
0.099982484
0.09998249
0.099982487
0.09998249
0.099982487
0.099982489
0.099982487
0.099982488
0.099982487
0.099982486
0.099982488
0.099982487
0.099982489
0.099982487
0.09998249
0.099982487
0.099982489
0.099982484
0.09998249
1580885.2
1580726.7
1580809.8
1580797.7
1580805.4
1580803.9
1580804.9
1580804.8
1580804.9
1580804.9
1580804.9
1580804.9
1580804.8
1580804.9
1580803.9
1580805.4
1580797.7
1580809.8
1580726.7
1580885.2
4.1706672
0.80930645
2.4056575
2.1545727
2.3207473
2.255906
2.2686568
2.2770645
2.2996898
2.3132262
2.3118447
2.2954196
2.2708354
2.2592768
2.2431345
2.3072871
2.1361991
2.3844985
0.78911773
4.1393217
0.10003968
0.10000662
0.10002145
0.10001895
0.10002059
0.10001996
0.10002011
0.10002021
0.10002043
0.10002054
0.10002053
0.10002039
0.10002015
0.10002003
0.10001985
0.10002047
0.10001878
0.10002124
0.10000643
0.10003934
0.099996304
0.0999963
0.0999963
0.0999963
0.0999963
0.099996302
0.099996301
0.099996301
0.099996301
0.0999963
0.0999963
0.099996301
0.099996301
0.099996301
0.099996301
0.099996299
0.0999963
0.099996299
0.099996299
0.099996304
0.099999962
0.099999958
0.099999957
0.099999959
0.09999996
0.09999996
0.099999961
0.099999958
0.099999956
0.099999955
0.099999955
0.099999956
0.099999959
0.099999962
0.099999961
0.099999961
0.09999996
0.099999959
0.099999959
0.099999963
0.099993092
0.09999309
0.099993091
0.099993086
0.099993085
0.099993089
0.099993088
0.099993089
0.099993089
0.09999309
0.09999309
0.099993089
0.09999309
0.099993089
0.09999309
0.099993086
0.099993086
0.099993092
0.09999309
0.099993092
0.10000088
0.10000088
0.10000088
0.10000088
0.10000088
0.10000088
0.10000088
0.10000088
0.10000088
0.10000088
0.10000088
0.10000088
0.10000088
0.10000088
0.10000088
0.10000089
0.10000089
0.10000089
0.10000089
0.10000088
0.099990518
0.099990501
0.099990511
0.099990504
0.099990508
0.099990505
0.099990507
0.099990507
0.099990508
0.099990508
0.099990508
0.099990509
0.099990507
0.099990508
0.099990507
0.09999051
0.099990506
0.099990514
0.099990503
0.09999052
0.10001107
0.10001108
0.10001107
0.10001108
0.10001108
0.10001108
0.10001108
0.10001108
0.10001108
0.10001108
0.10001108
0.10001108
0.10001108
0.10001108
0.10001108
0.10001107
0.10001108
0.10001107
0.10001108
0.10001106
0.099982489
0.099982486
0.09998249
0.099982486
0.09998249
0.099982487
0.099982489
0.099982486
0.099982487
0.099982486
0.099982486
0.099982487
0.099982486
0.099982489
0.099982487
0.09998249
0.099982486
0.099982489
0.099982486
0.099982489
)
;

boundaryField
{
    left
    {
        type            zeroGradient;
    }
    right
    {
        type            zeroGradient;
    }
    walls
    {
        type            zeroGradient;
    }
    centreline
    {
        type            zeroGradient;
    }
    frontAndBack
    {
        type            zeroGradient;
    }
}


// ************************************************************************* //
