/*--------------------------------*- C++ -*----------------------------------*\
  =========                 |
  \\      /  F ield         | OpenFOAM: The Open Source CFD Toolbox
   \\    /   O peration     | Website:  https://openfoam.org
    \\  /    A nd           | Version:  8
     \\/     M anipulation  |
\*---------------------------------------------------------------------------*/
FoamFile
{
    version     2.0;
    format      ascii;
    class       surfaceScalarField;
    location    "0.8";
    object      phi;
}
// * * * * * * * * * * * * * * * * * * * * * * * * * * * * * * * * * * * * * //

dimensions      [1 0 -1 0 0 0 0];

internalField   nonuniform List<scalar> 
2080
(
-2.6954057e-06
-3.3994502e-07
-6.5678578e-06
-7.5701173e-08
-5.0142617e-06
-6.4319043e-06
-2.4467542e-07
-2.2089339e-06
-6.5350642e-06
-2.9651594e-08
-2.5340137e-06
-6.5154505e-06
-6.4162372e-08
-2.3429032e-06
-6.5227664e-06
-2.3599717e-08
-2.3544116e-06
-6.5233438e-06
-3.2800627e-11
-2.3058621e-06
-6.5258946e-06
2.7275145e-08
-2.305116e-06
-6.5263801e-06
2.6755104e-08
-2.3105924e-06
-6.5260287e-06
-8.023057e-09
-2.3334566e-06
-6.5249478e-06
-4.4976801e-08
-2.3313011e-06
-6.525128e-06
-4.5614839e-08
-2.303288e-06
-6.5265503e-06
-1.3967746e-08
-2.2935336e-06
-6.5272401e-06
9.2528881e-09
-2.2880357e-06
-6.5273728e-06
5.3916253e-08
-2.3316949e-06
-6.5252138e-06
2.0706448e-08
-2.317568e-06
-6.5247978e-06
2.3332341e-07
-2.508781e-06
-6.5174117e-06
6.3545373e-08
-2.1807244e-06
-6.5375278e-06
2.6871837e-06
-4.9559673e-06
-6.4338714e-06
-3.0729784e-07
-6.5702525e-06
8.1217634e-07
2.8712207e-05
3.2379199e-06
-1.3618767e-09
2.5772689e-05
3.0427532e-06
-3.7298441e-08
2.7363067e-05
3.1565915e-06
-1.9815785e-08
2.6906923e-05
3.1349908e-06
-4.3668306e-08
2.7150681e-05
3.1470759e-06
-1.7685774e-08
2.7155893e-05
3.1487259e-06
8.1795026e-09
2.7256061e-05
3.1531119e-06
3.1454156e-08
2.7263937e-05
3.1530403e-06
3.1289105e-08
2.7254684e-05
3.1520424e-06
-7.8782326e-09
2.7208177e-05
3.1499545e-06
-4.9581819e-08
2.7214971e-05
3.1504345e-06
-4.9798005e-08
2.7276617e-05
3.1534084e-06
-2.3151436e-08
2.7300092e-05
3.1551746e-06
3.9816753e-09
2.7309785e-05
3.156194e-06
3.4296105e-08
2.7226481e-05
3.1527556e-06
1.0668243e-08
2.7226006e-05
3.1513166e-06
2.6280923e-08
2.6983716e-05
3.1392948e-06
-1.2516652e-08
2.7447422e-05
3.1608121e-06
-8.2343463e-07
2.586632e-05
3.0498654e-06
2.8813475e-05
3.2428919e-06
6.1174974e-07
3.1379473e-05
1.7835932e-06
-1.3615939e-07
2.7824619e-05
1.9101644e-06
-1.2389589e-07
2.9674992e-05
1.8562567e-06
-5.9491467e-08
2.8749493e-05
1.8720579e-06
-6.5342391e-08
2.9319643e-05
1.8610764e-06
-1.7963265e-08
2.9287194e-05
1.8603866e-06
9.0467876e-10
2.9535316e-05
1.8559132e-06
2.5009783e-08
2.9491844e-05
1.8568212e-06
1.9123586e-08
2.9450649e-05
1.8579181e-06
-1.0531539e-08
2.9317264e-05
1.8604544e-06
-4.0855655e-08
2.9333746e-05
1.8599923e-06
-4.6367897e-08
2.9503502e-05
1.856572e-06
-1.9233761e-08
2.9581071e-05
1.8545514e-06
-6.5690736e-10
2.9666103e-05
1.8524029e-06
5.1660149e-08
2.9458482e-05
1.8559667e-06
4.6252822e-08
2.950957e-05
1.8562028e-06
1.1067e-07
2.894837e-05
1.8662875e-06
1.2211787e-07
2.9896394e-05
1.8506907e-06
-6.1861866e-07
2.8074682e-05
1.9027587e-06
3.1632248e-05
1.7792534e-06
3.6622421e-07
3.9078152e-05
8.3210051e-07
3.2800393e-08
3.8096989e-05
8.0315359e-07
9.1146475e-08
3.8742857e-05
8.355822e-07
3.2286731e-08
3.8398314e-05
8.162743e-07
9.5568857e-08
3.8619449e-05
8.2920097e-07
7.5297423e-08
3.8573817e-05
8.2864113e-07
7.4193498e-08
3.8645412e-05
8.3248053e-07
2.9713799e-08
3.8617217e-05
8.3053192e-07
1.6758217e-08
3.8577317e-05
8.2808551e-07
5.2775179e-09
3.8510032e-05
8.2489077e-07
-7.6088284e-09
3.8512249e-05
8.2520354e-07
-1.9090578e-08
3.8590986e-05
8.2907086e-07
-5.9796084e-08
3.864198e-05
8.3202355e-07
-6.2542119e-08
3.868155e-05
8.3178664e-07
-8.9485891e-08
3.8621502e-05
8.3147456e-07
-3.2308758e-08
3.8676321e-05
8.302967e-07
-9.5357208e-08
3.8455976e-05
8.211879e-07
-4.0978884e-08
3.8815952e-05
8.331059e-07
-3.7421313e-07
3.8184487e-05
8.0792182e-07
3.9169143e-05
8.2988969e-07
9.5433787e-08
1.1943967e-06
-3.5217483e-07
-2.6325931e-07
3.2767275e-07
-3.2566473e-07
-1.4180955e-07
7.9492665e-07
-3.4500418e-07
-6.9959043e-08
5.7111822e-07
-3.4284649e-07
9.9494362e-09
8.3374252e-07
-3.5240456e-07
2.4153932e-08
6.1044054e-07
-3.518325e-07
-3.5124389e-08
6.7375734e-07
-3.5441278e-07
-7.0459543e-08
5.9619153e-07
-3.5180315e-07
-8.0263825e-08
6.085506e-07
-3.5029799e-07
-9.0220382e-09
5.9644205e-07
-3.4867693e-07
6.5519229e-08
6.023272e-07
-3.4891143e-07
5.8735353e-08
6.3137524e-07
-3.5108195e-07
2.571045e-08
6.3614542e-07
-3.5323138e-07
-3.2044448e-08
7.2790611e-07
-3.531422e-07
-2.0462376e-08
6.7724324e-07
-3.5423693e-07
6.2848645e-08
9.1849047e-07
-3.5217878e-07
1.4236614e-07
6.5747745e-07
-3.4608009e-07
2.677804e-07
8.9687323e-07
-3.4127589e-07
-9.3286939e-08
4.4154622e-07
-3.3016714e-07
1.3125495e-06
-3.4970442e-07
6.9740623e-07
-1.1285829e-05
5.8060787e-07
2.6418633e-07
-1.1303451e-05
5.5957671e-07
3.0114973e-07
-1.1452453e-05
5.652715e-07
7.8648762e-08
-1.116191e-05
5.7126803e-07
1.5828494e-07
-1.1315463e-05
5.7251579e-07
8.6753903e-08
-1.1214796e-05
5.7230609e-07
1.2455165e-07
-1.1348291e-05
5.7152054e-07
9.0843861e-09
-1.1319536e-05
5.7077961e-07
-1.1198809e-09
-1.1324723e-05
5.7097283e-07
1.4477081e-08
-1.1255705e-05
5.7212799e-07
3.7270374e-08
-1.124761e-05
5.7235558e-07
3.0167512e-08
-1.130887e-05
5.7175332e-07
-7.9754393e-08
-1.1289677e-05
5.7223389e-07
-3.9800707e-08
-1.1316569e-05
5.7305619e-07
-1.3135528e-07
-1.1176509e-05
5.7528609e-07
-6.5817531e-08
-1.1270168e-05
5.7537201e-07
-2.8573922e-07
-1.1110038e-05
5.7547429e-07
-2.5712173e-07
-1.1395687e-05
5.664448e-07
-7.0436525e-07
-1.1244706e-05
5.6251553e-07
-1.1220588e-05
5.8156686e-07
-3.0812984e-07
-9.998676e-05
-2.9594631e-07
-1.9763506e-07
-0.00010038863
-3.0327969e-07
-5.3804894e-08
-0.00010056959
-3.0722281e-07
-8.8802524e-08
-0.00010044409
-3.0952685e-07
-1.6265551e-07
-0.00010055765
-3.0862091e-07
-1.5059345e-07
-0.00010047938
-3.0729625e-07
-1.8450839e-07
-0.00010055045
-3.0513582e-07
-1.0123708e-07
-0.00010052392
-3.0475769e-07
-5.9918176e-08
-0.00010052938
-3.0476802e-07
1.2457609e-08
-0.00010049766
-3.05749e-07
8.528275e-08
-0.00010049901
-3.0598342e-07
1.2296696e-07
-0.00010054331
-3.053249e-07
1.9629593e-07
-0.0001005424
-3.0563082e-07
1.6431975e-07
-0.00010058077
-3.058703e-07
1.7756314e-07
-0.00010051495
-3.0845908e-07
1.0553022e-07
-0.00010060259
-3.0961773e-07
7.4186578e-08
-0.00010048798
-3.1147329e-07
2.2651401e-07
-0.00010062251
-3.0880353e-07
3.3403653e-07
-0.00010044525
-3.0637583e-07
-0.00010004445
-2.9895846e-07
2.0741344e-06
-0.00013079718
2.3045503e-06
2.4802958e-07
-0.00012756923
2.3422361e-06
7.5619576e-07
-0.00013004212
2.3250988e-06
1.6838467e-07
-0.00012854126
2.3439019e-06
4.3867905e-07
-0.00012970613
2.3394922e-06
1.1144393e-07
-0.00012899722
2.3504953e-06
2.649772e-07
-0.00012952318
2.3510419e-06
1.385177e-07
-0.0001292165
2.3535245e-06
1.5929347e-07
-0.00012944396
2.3526031e-06
2.2244838e-08
-0.00012938364
2.3533836e-06
-1.1431012e-07
-0.00012939103
2.3539229e-06
-8.2961481e-08
-0.00012947284
2.353139e-06
-2.0291445e-07
-0.00012926693
2.3554269e-06
-6.014238e-08
-0.00012959745
2.3534121e-06
-4.0261527e-07
-0.00012909256
2.3542484e-06
-1.5038721e-07
-0.00012981958
2.3438099e-06
-7.3954821e-07
-0.00012865448
2.3456413e-06
-2.4970873e-07
-0.00013017353
2.3251985e-06
-2.0901796e-06
-0.00012770345
2.3386668e-06
-0.00013092959
2.3007193e-06
-1.9095622e-06
-3.4639907e-05
-2.2330646e-06
-3.4853739e-07
-3.843161e-05
-2.2819033e-06
-8.5947834e-07
-3.4789844e-05
-2.2569071e-06
-2.9998061e-07
-3.4711953e-05
-2.2279355e-06
-6.0254592e-07
-3.4756473e-05
-2.2673699e-06
-2.8257496e-07
-3.4739045e-05
-2.2552559e-06
-4.3904514e-07
-3.4741837e-05
-2.2698676e-06
-2.3087018e-07
-3.4741331e-05
-2.2657378e-06
-1.9548035e-07
-3.4739115e-05
-2.2695162e-06
-2.8717442e-08
-3.4743548e-05
-2.2673953e-06
1.3466043e-07
-3.4743879e-05
-2.2680963e-06
1.5696483e-07
-3.4739349e-05
-2.2725251e-06
3.6046374e-07
-3.4742243e-05
-2.268618e-06
2.1658755e-07
-3.4743468e-05
-2.2786865e-06
5.614296e-07
-3.4741451e-05
-2.2613475e-06
2.7235474e-07
-3.4759925e-05
-2.2832593e-06
8.3078494e-07
-3.471472e-05
-2.2229181e-06
3.5339934e-07
-3.4793096e-05
-2.2139394e-06
1.9309535e-06
-3.844846e-05
-2.2689302e-06
-3.4642483e-05
-2.2236861e-06
3.024788e-07
6.8004117e-07
4.8380553e-07
9.1062437e-07
3.292079e-07
7.722458e-07
3.5809459e-07
7.5140985e-07
3.003283e-07
7.8325242e-07
2.3787994e-07
7.6276021e-07
2.2661278e-07
7.7248733e-07
1.2634663e-07
7.6697539e-07
8.7605119e-08
7.70344e-07
1.1608224e-08
7.6842816e-07
-7.440274e-08
7.6865412e-07
-1.117354e-07
7.7316344e-07
-2.1705456e-07
7.683253e-07
-2.3706867e-07
7.7886791e-07
-2.9554025e-07
7.6500846e-07
-3.417376e-07
7.9350544e-07
-3.1137557e-07
7.4639632e-07
-4.8077169e-07
7.3523019e-07
-3.0057562e-07
9.0241309e-07
6.7648941e-07
-2.734271e-06
-1.3325611e-05
-2.1820676e-11
-7.9023273e-08
-1.8910542e-05
-1.2946883e-11
-2.4830179e-07
-1.602955e-05
-3.584997e-12
-3.0713081e-08
-1.6480694e-05
-4.8593451e-12
-6.5522854e-08
-1.6220377e-05
-2.5825524e-11
-2.4489031e-08
-1.623408e-05
-5.7104159e-11
-4.6272077e-10
-1.6166423e-05
-7.1662717e-11
2.7317587e-08
-1.616588e-05
-4.3415519e-11
2.69905e-08
-1.6173525e-05
-3.0683516e-12
-8.0855079e-09
-1.6204966e-05
3.3111739e-11
-4.5338122e-08
-1.6201666e-05
4.5106112e-11
-4.5787925e-08
-1.6162744e-05
3.5987093e-11
-1.3741645e-08
-1.6148785e-05
1.1836121e-11
9.9436898e-09
-1.6140093e-05
-1.3056328e-11
5.5222739e-08
-1.6200457e-05
-2.3736765e-11
2.174949e-08
-1.6183132e-05
-3.8217748e-11
2.3685999e-07
-1.6443672e-05
-7.7387508e-11
6.6099929e-08
-1.5988073e-05
-1.3591271e-10
2.7259374e-06
-1.8862766e-05
-1.8678752e-10
-1.3276313e-05
-2.0911438e-10
7.7179886e-07
2.3340873e-05
-2.3060709e-11
1.4207928e-09
2.0425354e-05
-1.3776366e-11
-3.3960647e-08
2.1981285e-05
-3.5122996e-12
-1.8163169e-08
2.1532873e-05
-7.3242138e-12
-4.2968505e-08
2.1771719e-05
-3.2634128e-11
-1.6711824e-08
2.1775264e-05
-6.3938198e-11
8.2806289e-09
2.1872637e-05
-7.7689409e-11
3.1067264e-08
2.187999e-05
-4.1097394e-11
3.0660761e-08
2.1871074e-05
3.9533883e-12
-7.7181057e-09
2.1826056e-05
4.5735986e-11
-4.8665032e-08
2.1832601e-05
5.6451584e-11
-4.9141167e-08
2.1892202e-05
4.5495584e-11
-2.2927954e-08
2.1914827e-05
1.8227596e-11
3.4130892e-09
2.1923972e-05
-1.0269146e-11
3.3698925e-08
2.1843374e-05
-2.3397302e-11
9.2499217e-09
2.1844068e-05
-3.7157573e-11
2.2563132e-08
2.1606902e-05
-7.7362406e-11
-1.3213588e-08
2.2061793e-05
-1.4881398e-10
-7.8364096e-07
2.0514672e-05
-2.1347393e-10
2.3438296e-05
-2.4406775e-10
6.4659129e-07
2.655849e-05
-2.521076e-11
-1.4473797e-07
2.2810501e-05
-1.6113174e-11
-1.2479065e-07
2.4756391e-05
-7.5823381e-12
-6.2302797e-08
2.3773632e-05
-1.0788811e-11
-6.6952265e-08
2.4379325e-05
-3.3834973e-11
-1.9384115e-08
2.4343251e-05
-6.307091e-11
4.6703787e-10
2.4605108e-05
-6.7877557e-11
2.5154162e-08
2.4558603e-05
-3.4631534e-11
1.9611841e-08
2.451493e-05
7.7355708e-12
-1.0670076e-08
2.4374166e-05
4.6326412e-11
-4.1626809e-08
2.4391444e-05
5.6423577e-11
-4.6784536e-08
2.4570307e-05
4.5995361e-11
-1.9313489e-08
2.4652007e-05
2.0133471e-11
5.7500564e-11
2.4741664e-05
-4.9511721e-12
5.3151975e-08
2.4522692e-05
-1.7758771e-11
4.878391e-08
2.4578151e-05
-3.0822474e-11
1.1162599e-07
2.3982497e-05
-6.6485027e-11
1.3033479e-07
2.4987555e-05
-1.3184183e-10
-6.5283996e-07
2.3073702e-05
-1.9688229e-10
2.6819944e-05
-2.2528676e-10
3.6675849e-07
3.7812569e-05
-1.1270028e-11
3.729426e-08
3.6807628e-05
-5.8523112e-12
9.2381178e-08
3.7459475e-05
-6.8467878e-12
3.4059312e-08
3.7114774e-05
-2.6173254e-11
9.7354573e-08
3.7335312e-05
-5.0923167e-11
7.6177337e-08
3.7289624e-05
-4.9800437e-11
7.3872353e-08
3.7360789e-05
-1.5578227e-11
2.8740514e-08
3.7333309e-05
3.6364657e-11
1.585952e-08
3.7293832e-05
7.9539205e-11
5.4059185e-09
3.7227192e-05
8.8151481e-11
-6.5161532e-09
3.7229396e-05
7.7882511e-11
-1.8147492e-08
3.730745e-05
7.2725929e-11
-5.9777638e-08
3.7357985e-05
5.5769848e-11
-6.2986708e-08
3.7397286e-05
2.188525e-11
-9.1074499e-08
3.733716e-05
1.2229386e-12
-3.4176632e-08
3.7392485e-05
2.0081829e-12
-9.7126312e-08
3.7172238e-05
-4.2814207e-12
-4.5385547e-08
3.7533424e-05
-7.7809079e-11
-3.7564435e-07
3.6895088e-05
-1.831117e-10
3.7904091e-05
-2.5409095e-10
9.9898019e-08
-1.1914754e-06
-2.7595107e-11
-2.6911362e-07
-2.0869127e-06
-2.7144241e-11
-1.4526184e-07
-1.6180643e-06
-3.4905641e-11
-7.4365017e-08
-1.8412096e-06
-5.7988766e-11
7.044838e-09
-1.5770468e-06
-6.4774566e-11
2.3014559e-08
-1.8013384e-06
-3.9971757e-11
-3.5360261e-08
-1.7375046e-06
1.8838852e-11
-7.0095844e-08
-1.8151835e-06
7.58389e-11
-7.9925188e-08
-1.8022898e-06
1.0578365e-10
-9.1486186e-09
-1.8139328e-06
1.075448e-10
6.4902007e-08
-1.8080926e-06
1.0244291e-10
5.8285452e-08
-1.7794502e-06
1.1120708e-10
2.6086028e-08
-1.7751226e-06
1.0749993e-10
-3.1211224e-08
-1.683059e-06
8.1521784e-11
-1.7816798e-08
-1.7343179e-06
4.776652e-11
6.7201105e-08
-1.4920087e-06
5.3180171e-11
1.4678049e-07
-1.75464e-06
4.8117622e-11
2.7284128e-07
-1.515698e-06
-8.4562455e-12
-9.6916187e-08
-1.9730056e-06
-1.1173473e-10
-1.0728498e-06
-1.930088e-10
7.005995e-07
-1.1798095e-05
3.247e-11
2.6742338e-07
-1.1823642e-05
1.0430211e-11
3.0798528e-07
-1.1972796e-05
-2.4147537e-11
8.080976e-08
-1.1679792e-05
-5.2416931e-11
1.6066194e-07
-1.1833618e-05
-3.5266665e-11
8.7248042e-08
-1.1730741e-05
5.6771765e-11
1.2547998e-07
-1.1864606e-05
1.6181736e-10
9.4828395e-09
-1.1835187e-05
1.7462032e-10
-6.1015881e-10
-1.1841219e-05
1.1031882e-10
1.456346e-08
-1.1772378e-05
5.7487594e-11
3.6883411e-08
-1.1764278e-05
3.4191734e-11
3.0001677e-08
-1.1825337e-05
3.7141358e-11
-8.0558673e-08
-1.180516e-05
8.2603519e-11
-4.0086071e-08
-1.183307e-05
8.5611142e-11
-1.3352121e-07
-1.1692114e-05
7.7691443e-11
-6.7855505e-08
-1.1788297e-05
8.3022566e-11
-2.9294645e-07
-1.1627662e-05
1.6052966e-10
-2.6016178e-07
-1.1916823e-05
1.8262361e-10
-7.0790104e-07
-1.1764937e-05
1.6311339e-10
-1.1733819e-05
8.202326e-11
-3.1606011e-07
-0.00010212992
2.6046573e-11
-2.034454e-07
-0.00010255126
-1.9326474e-12
-5.8827925e-08
-0.00010273373
-5.4710748e-11
-9.1505815e-08
-0.00010260546
-1.4569875e-10
-1.6512857e-07
-0.00010272117
-1.3989584e-10
-1.5168702e-07
-0.00010264134
-2.7278928e-11
-1.860702e-07
-0.00010271312
1.7307719e-10
-1.0202174e-07
-0.00010268614
3.0205459e-10
-6.0742107e-08
-0.00010269171
3.2384109e-10
1.2386027e-08
-0.00010265977
2.3923953e-10
8.599166e-08
-0.0001026611
2.0588926e-10
1.2368479e-07
-0.00010270567
2.5581595e-10
1.9786186e-07
-0.00010270456
2.9727852e-10
1.6536329e-07
-0.00010274344
2.8912811e-10
1.7994809e-07
-0.00010267694
2.14188e-10
1.0795864e-07
-0.00010276609
2.3620325e-10
7.9140579e-08
-0.00010264896
2.8677458e-10
2.3189325e-07
-0.00010278596
2.0499285e-10
3.4188365e-07
-0.00010260818
1.4249016e-11
-0.00010218753
-1.4712019e-10
2.1060304e-06
-0.00012865399
2.6215048e-11
2.5171596e-07
-0.00012535845
9.3261367e-11
7.7188385e-07
-0.00012786963
8.5966817e-11
1.7402267e-07
-0.0001263465
1.4696452e-10
4.4734281e-07
-0.00012752814
2.2922467e-11
1.1461124e-07
-0.00012681058
1.0558434e-10
2.6856009e-07
-0.00012734351
4.9615441e-11
1.394509e-07
-0.00012703339
-2.3044385e-10
1.6028982e-07
-0.00012726316
-5.7231455e-10
2.233034e-08
-0.00012720206
-2.6010193e-10
-1.1497268e-07
-0.00012720952
-8.7628349e-11
-8.3629993e-08
-0.00012729247
-3.4643312e-10
-2.0576159e-07
-0.00012708411
-1.3456644e-10
-6.2962459e-08
-0.00012741813
-3.0744589e-10
-4.1084769e-07
-0.00012690687
7.3194815e-11
-1.5660327e-07
-0.00012764284
-2.2832491e-11
-7.5611276e-07
-0.00012645879
7.389861e-11
-2.5432321e-07
-0.00012799885
2.7624161e-10
-2.1225087e-06
-0.00012549162
6.3126397e-10
-0.00012878607
7.9774352e-10
-1.9420662e-06
-4.060053e-05
1.6541008e-10
-3.5015106e-07
-3.8508529e-05
3.1662479e-11
-8.6648588e-07
-4.1084089e-05
-1.0966938e-10
-3.1205269e-07
-4.0816441e-05
-1.8993156e-10
-6.0964883e-07
-4.0971347e-05
-4.7510366e-11
-2.8832983e-07
-4.0903196e-05
2.7880282e-10
-4.4274918e-07
-4.0919383e-05
6.8488247e-10
-2.3286198e-07
-4.0910698e-05
8.7406884e-10
-1.9629104e-07
-4.0909474e-05
8.622484e-10
-2.8890987e-08
-4.0921777e-05
5.2835406e-10
1.347112e-07
-4.092312e-05
3.1330079e-10
1.587888e-07
-4.091316e-05
3.7503995e-10
3.6236579e-07
-4.0917291e-05
3.1229706e-10
2.225474e-07
-4.0928748e-05
2.7456825e-10
5.6620109e-07
-4.0916696e-05
-1.3220055e-12
2.9016933e-07
-4.0987569e-05
-4.8913218e-12
8.4570487e-07
-4.0831742e-05
4.5981732e-11
3.522228e-07
-3.5555297e-05
-2.5561561e-11
1.9611247e-06
-3.5366899e-05
-2.3841132e-10
-4.0615521e-05
-4.1321157e-10
1.1369433e-07
-2.1657092e-10
5.1232407e-07
-1.0637237e-10
3.1306643e-07
-3.3377025e-11
3.7128739e-07
4.1769435e-12
3.01229e-07
9.7243468e-11
2.425119e-07
-5.5794649e-10
2.2844952e-07
-1.4741633e-09
1.2845696e-07
-1.0254009e-09
8.8150593e-08
-8.1221253e-10
1.1813213e-08
-4.3626527e-10
-7.447108e-08
-2.5632017e-10
-1.1385563e-07
-1.8508169e-10
-2.1806735e-07
-1.4395204e-10
-2.4221775e-07
-1.0362482e-10
-2.9496738e-07
1.0013258e-10
-3.5970119e-07
1.38276e-10
-3.0161899e-07
-7.2514621e-11
-5.0462207e-07
-5.811099e-10
-1.0868649e-07
9.9111102e-11
2.1421676e-11
-2.7342686e-06
-1.3325609e-05
6.5678276e-06
-7.9021e-08
-1.8910541e-05
6.4318863e-06
-2.4830284e-07
-1.6029551e-05
6.5350598e-06
-3.0719155e-08
-1.6480696e-05
6.515444e-06
-6.5530547e-08
-1.6220378e-05
6.5227312e-06
-2.4491573e-08
-1.6234076e-05
6.5232663e-06
-4.5705773e-10
-1.6166413e-05
6.5257953e-06
2.7328827e-08
-1.6165869e-05
6.5263186e-06
2.699906e-08
-1.6173517e-05
6.526028e-06
-8.0820927e-09
-1.6204962e-05
6.5249942e-06
-4.5339667e-08
-1.6201665e-05
6.5251897e-06
-4.5793643e-08
-1.6162743e-05
6.5265997e-06
-1.374775e-08
-1.6148782e-05
6.5272575e-06
9.9387386e-09
-1.6140087e-05
6.527355e-06
5.5217632e-08
-1.6200452e-05
6.5251815e-06
2.1738894e-08
-1.6183123e-05
6.5247449e-06
2.3684433e-07
-1.6443656e-05
6.5173035e-06
6.6087065e-08
-1.5988055e-05
6.5373415e-06
2.7259298e-06
-1.886275e-05
6.433617e-06
-1.32763e-05
6.5699688e-06
7.7180143e-07
2.3340876e-05
-3.2379538e-06
1.4230097e-09
2.0425356e-05
-3.0427737e-06
-3.3962114e-08
2.1981284e-05
-3.1565967e-06
-1.8170195e-08
2.1532871e-05
-3.135001e-06
-4.2976622e-08
2.1771719e-05
-3.1471203e-06
-1.6713496e-08
2.1775271e-05
-3.1488136e-06
8.2877836e-09
2.1872654e-05
-3.1532218e-06
3.1080413e-08
2.1880007e-05
-3.1531014e-06
3.0670139e-08
2.1871086e-05
-3.1520336e-06
-7.7148816e-09
2.182606e-05
-3.149893e-06
-4.8667099e-08
2.1832601e-05
-3.1503582e-06
-4.9147718e-08
2.1892203e-05
-3.1533471e-06
-2.2935167e-08
2.1914832e-05
-3.1551502e-06
3.4082006e-09
2.192398e-05
-3.1562094e-06
3.3693625e-08
2.1843382e-05
-3.1527889e-06
9.2387561e-09
2.1844079e-05
-3.151371e-06
2.2546569e-08
2.1606924e-05
-3.1394067e-06
-1.3226282e-08
2.2061819e-05
-3.1610205e-06
-7.8365084e-07
2.0514696e-05
-3.0501591e-06
2.3438316e-05
-3.2432249e-06
6.4659355e-07
2.6558498e-05
-1.7836282e-06
-1.4473581e-07
2.2810504e-05
-1.9101868e-06
-1.2479209e-07
2.4756388e-05
-1.8562672e-06
-6.2308797e-08
2.3773622e-05
-1.872073e-06
-6.6958646e-08
2.437932e-05
-1.8611239e-06
-1.9384873e-08
2.4343266e-05
-1.8604746e-06
4.7492321e-10
2.4605147e-05
-1.8560078e-06
2.5165872e-08
2.4558647e-05
-1.8568685e-06
1.9621027e-08
2.4514963e-05
-1.8579006e-06
-1.0667323e-08
2.437418e-05
-1.8603885e-06
-4.1628902e-08
2.4391448e-05
-1.8599137e-06
-4.6790672e-08
2.4570317e-05
-1.8565077e-06
-1.9320318e-08
2.4652028e-05
-1.854522e-06
5.2587833e-11
2.4741687e-05
-1.8524091e-06
5.3146744e-08
2.4522713e-05
-1.8559903e-06
4.8773309e-08
2.4578181e-05
-1.8562444e-06
1.1160943e-07
2.3982548e-05
-1.8663786e-06
1.3031819e-07
2.4987614e-05
-1.8508714e-06
-6.5284915e-07
2.3073754e-05
-1.9030295e-06
2.6819979e-05
-1.7795642e-06
3.6675924e-07
3.7812574e-05
-8.3211699e-07
3.7293153e-08
3.6807629e-05
-8.0316227e-07
9.2376688e-08
3.7459471e-05
-8.3559217e-07
3.405382e-08
3.7114768e-05
-8.1631177e-07
9.7355393e-08
3.7335311e-05
-8.2927335e-07
7.6186771e-08
3.7289636e-05
-8.2871305e-07
7.3885924e-08
3.7360812e-05
-8.3250205e-07
2.8751134e-08
3.7333331e-05
-8.3048012e-07
1.5862931e-08
3.7293844e-05
-8.2797368e-07
5.4043477e-09
3.7227195e-05
-8.2476646e-07
-6.5186081e-09
3.7229397e-05
-8.2509298e-07
-1.8152758e-08
3.7307453e-05
-8.2896687e-07
-5.9785341e-08
3.7357995e-05
-8.3194392e-07
-6.2992739e-08
3.7397298e-05
-8.3175363e-07
-9.1076446e-08
3.7337172e-05
-8.3147216e-07
-3.4183285e-08
3.7392501e-05
-8.302922e-07
-9.7144477e-08
3.7172265e-05
-8.2119429e-07
-4.5412762e-08
3.753346e-05
-8.332168e-07
-3.7566287e-07
3.6895127e-05
-8.0818431e-07
3.7904125e-05
-8.3025211e-07
9.9897327e-08
-1.1914653e-06
3.5213283e-07
-2.6911659e-07
-2.0869091e-06
3.25625e-07
-1.4526691e-07
-1.6180664e-06
3.4495236e-07
-7.4366304e-08
-1.8412138e-06
3.4275829e-07
7.0531085e-09
-1.5770444e-06
3.5230415e-07
2.3028166e-08
-1.8013224e-06
3.517717e-07
-3.5346238e-08
-1.7374781e-06
3.5444575e-07
-7.0087232e-08
-1.8151613e-06
3.5192389e-07
-7.9922789e-08
-1.8022816e-06
3.5046451e-07
-9.1481135e-09
-1.8139364e-06
3.488445e-07
6.4903103e-08
-1.8080987e-06
3.490696e-07
5.8284089e-08
-1.779453e-06
3.5125265e-07
2.6080175e-08
-1.7751161e-06
3.5339655e-07
-3.1217418e-08
-1.6830451e-06
3.5326515e-07
-1.7819417e-08
-1.7343033e-06
3.5430928e-07
6.719623e-08
-1.491993e-06
3.5225998e-07
1.467635e-07
-1.7546126e-06
3.4615729e-07
2.7281463e-07
-1.5156566e-06
3.4126252e-07
-9.6938551e-08
-1.9729513e-06
3.2999814e-07
-1.0727954e-06
3.4940221e-07
7.0059393e-07
-1.1798091e-05
-5.8055972e-07
2.6741438e-07
-1.1823634e-05
-5.5956535e-07
3.0797956e-07
-1.197279e-05
-5.653087e-07
8.0817144e-08
-1.1679784e-05
-5.7134663e-07
1.6068455e-07
-1.183362e-05
-5.7256284e-07
8.7272979e-08
-1.1730732e-05
-5.7222656e-07
1.2548257e-07
-1.1864594e-05
-5.7129711e-07
9.4676579e-09
-1.1835186e-05
-5.7053545e-07
-6.2323047e-10
-1.184124e-05
-5.7080617e-07
1.4558054e-08
-1.1772384e-05
-5.7204679e-07
3.6883575e-08
-1.1764275e-05
-5.7231138e-07
3.0006906e-08
-1.1825349e-05
-5.716957e-07
-8.0555964e-08
-1.1805162e-05
-5.7211303e-07
-4.0084466e-08
-1.1833091e-05
-5.7291367e-07
-1.3351536e-07
-1.1692107e-05
-5.7517433e-07
-6.7842691e-08
-1.1788296e-05
-5.7525045e-07
-2.9293672e-07
-1.1627656e-05
-5.7524243e-07
-2.6016507e-07
-1.1916804e-05
-5.661903e-07
-7.0791439e-07
-1.1764903e-05
-5.6229572e-07
-1.1733781e-05
-5.8144474e-07
-3.1607095e-07
-0.00010212992
2.9598645e-07
-2.0346267e-07
-0.00010255126
3.0328127e-07
-5.8841034e-08
-0.00010273373
3.0715025e-07
-9.1498747e-08
-0.00010260545
3.0930435e-07
-1.6509629e-07
-0.00010272116
3.0838374e-07
-1.5163881e-07
-0.00010264133
3.0722982e-07
-1.8604278e-07
-0.00010271312
3.0536102e-07
-1.0202053e-07
-0.00010268615
3.0518817e-07
-6.075792e-08
-0.00010269173
3.052476e-07
1.2378873e-08
-0.00010265978
3.0612229e-07
8.6000303e-08
-0.0001026611
3.0631234e-07
1.2369561e-07
-0.00010270568
3.0572569e-07
1.9785932e-07
-0.00010270457
3.0609631e-07
1.6535014e-07
-0.00010274346
3.0631565e-07
1.7994644e-07
-0.00010267694
3.0881195e-07
1.0796196e-07
-0.0001027661
3.1001221e-07
7.9123599e-08
-0.00010264898
3.1194398e-07
2.3185757e-07
-0.00010278597
3.0912875e-07
3.4184985e-07
-0.00010260818
3.0639303e-07
-0.00010218751
2.9869732e-07
2.1060609e-06
-0.00012865409
-2.304461e-06
2.5173202e-07
-0.00012535837
-2.3421411e-06
7.7187365e-07
-0.00012786952
-2.3250197e-06
1.7400368e-07
-0.00012634641
-2.3437425e-06
4.473493e-07
-0.00012752829
-2.3394013e-06
1.1459781e-07
-0.00012681055
-2.3503568e-06
2.6847586e-07
-0.0001273434
-2.3509994e-06
1.3938816e-07
-0.00012703338
-2.3538659e-06
1.6034975e-07
-0.00012726345
-2.3532826e-06
2.2375131e-08
-0.00012720198
-2.3537808e-06
-1.150054e-07
-0.00012720929
-2.3541371e-06
-8.3660026e-08
-0.00012729252
-2.3535881e-06
-2.0576967e-07
-0.0001270841
-2.3556018e-06
-6.2901515e-08
-0.00012741858
-2.3535759e-06
-4.1080848e-07
-0.00012690685
-2.3541627e-06
-1.5658203e-07
-0.00012764287
-2.343822e-06
-7.5603107e-07
-0.00012645882
-2.3454972e-06
-2.5424701e-07
-0.0001279988
-2.3248406e-06
-2.1224715e-06
-0.00012549154
-2.3378533e-06
-0.00012878614
-2.2995933e-06
-1.9421022e-06
-4.0600636e-05
2.2332715e-06
-3.5018721e-07
-3.8506039e-05
2.2819617e-06
-8.6649568e-07
-4.1083974e-05
2.2567789e-06
-3.1201127e-07
-4.0816353e-05
2.227679e-06
-6.0956273e-07
-4.0971508e-05
2.2672942e-06
-2.8823411e-07
-4.0903187e-05
2.2556532e-06
-4.4268813e-07
-4.0919291e-05
2.27084e-06
-2.3286452e-07
-4.0910705e-05
2.2669801e-06
-1.9636282e-07
-4.090977e-05
2.2706989e-06
-2.894594e-08
-4.0921702e-05
2.2681617e-06
1.3470515e-07
-4.0922884e-05
2.2685775e-06
1.587856e-07
-4.0913209e-05
2.2730608e-06
3.6234425e-07
-4.0917273e-05
2.2690455e-06
2.2249522e-07
-4.0929191e-05
2.2789814e-06
5.6617815e-07
-4.0916655e-05
2.2613258e-06
2.9016749e-07
-4.0987573e-05
2.2832298e-06
8.4567246e-07
-4.0831753e-05
2.2229366e-06
3.5217225e-07
-3.5555266e-05
2.2139592e-06
1.9610801e-06
-3.5366865e-05
2.2686148e-06
-4.0615599e-05
2.223104e-06
1.1369506e-07
-6.8038927e-07
5.1234e-07
-9.1075153e-07
3.1309538e-07
-7.722727e-07
3.7126951e-07
-7.5138353e-07
3.0107587e-07
-7.8318058e-07
2.4235732e-07
-7.6355801e-07
2.2846834e-07
-7.7458727e-07
1.2854005e-07
-7.6840619e-07
8.8200685e-08
-7.7155687e-07
1.1857778e-08
-7.6899846e-07
-7.44235e-08
-7.6893535e-07
-1.1381181e-07
-7.7343222e-07
-2.1802524e-07
-7.6849355e-07
-2.4220217e-07
-7.7918583e-07
-2.9497516e-07
-7.6482827e-07
-3.597482e-07
-7.9330092e-07
-3.0165624e-07
-7.4648223e-07
-5.0455443e-07
-7.3609138e-07
-1.0860962e-07
-9.0228875e-07
-6.7659564e-07
-2.6954003e-06
-3.3994168e-07
-7.5696487e-08
-5.0142591e-06
-2.4467798e-07
-2.2089347e-06
-2.9665649e-08
-2.534017e-06
-6.4179747e-08
-2.3429055e-06
-2.360588e-08
-2.3544054e-06
-1.9888162e-11
-2.3058466e-06
2.7300952e-08
-2.3050981e-06
2.6773824e-08
-2.3105792e-06
-8.0155584e-09
-2.3334505e-06
-4.4980212e-08
-2.3312999e-06
-4.562743e-08
-2.3032862e-06
-1.3981515e-08
-2.2935287e-06
9.241925e-09
-2.2880269e-06
5.3905161e-08
-2.3316861e-06
2.0683548e-08
-2.3175536e-06
2.3328847e-07
-2.5087547e-06
6.3518594e-08
-2.1806963e-06
2.6871665e-06
-4.955929e-06
-3.0727797e-07
8.1218215e-07
2.8712216e-05
-1.3567662e-09
2.5772693e-05
-3.7301562e-08
2.7363065e-05
-1.9831376e-08
2.6906916e-05
-4.3686895e-08
2.7150678e-05
-1.7690172e-08
2.7155907e-05
8.1958422e-09
2.7256099e-05
3.1484411e-08
2.7263977e-05
3.1309936e-08
2.7254713e-05
-7.8709628e-09
2.7208188e-05
-4.9586486e-08
2.7214972e-05
-4.9812645e-08
2.7276622e-05
-2.3167694e-08
2.7300105e-05
3.9700307e-09
2.7309803e-05
3.4284094e-08
2.7226498e-05
1.0640061e-08
2.7226034e-05
2.6245549e-08
2.6983766e-05
-1.2541869e-08
2.7447481e-05
-8.2345626e-07
2.586637e-05
2.8813515e-05
6.1175502e-07
3.137949e-05
-1.3615444e-07
2.7824626e-05
-1.238997e-07
2.9674984e-05
-5.9505924e-08
2.8749469e-05
-6.5357618e-08
2.9319629e-05
-1.7965012e-08
2.9287225e-05
9.235911e-10
2.9535402e-05
2.5037247e-08
2.949194e-05
1.914419e-08
2.9450722e-05
-1.0525603e-08
2.9317296e-05
-4.0860492e-08
2.9333757e-05
-4.6381932e-08
2.9503527e-05
-1.9249591e-08
2.9581117e-05
-6.6599431e-10
2.9666154e-05
5.1648751e-08
2.9458526e-05
4.6229374e-08
2.9509636e-05
1.1063123e-07
2.894848e-05
1.2207885e-07
2.9896521e-05
-6.186408e-07
2.8074789e-05
3.1632316e-05
3.6622606e-07
3.9078162e-05
3.2797845e-08
3.8096991e-05
9.1135517e-08
3.8742849e-05
3.2273202e-08
3.8398298e-05
9.5570294e-08
3.8619446e-05
7.5319699e-08
3.8573845e-05
7.4225524e-08
3.8645469e-05
2.9739426e-08
3.8617271e-05
1.6766624e-08
3.8577348e-05
5.2740636e-09
3.851004e-05
-7.6143629e-09
3.8512249e-05
-1.9102635e-08
3.8590994e-05
-5.9813837e-08
3.8642006e-05
-6.255629e-08
3.8681584e-05
-8.9490575e-08
3.8621532e-05
-3.2324904e-08
3.8676359e-05
-9.5401253e-08
3.8456039e-05
-4.1044684e-08
3.8816035e-05
-3.7425806e-07
3.8184578e-05
3.9169221e-05
9.5432796e-08
1.1944173e-06
-2.6326644e-07
3.2768186e-07
-1.4182243e-07
7.9492275e-07
-6.9962995e-08
5.7110455e-07
9.9694529e-09
8.3374142e-07
2.4187537e-08
6.1046855e-07
-3.5090779e-08
6.7381133e-07
-7.04407e-08
5.9624046e-07
-8.0260055e-08
6.0857344e-07
-9.0220452e-09
5.9643901e-07
6.5521512e-08
6.0231892e-07
5.8732072e-08
6.3137556e-07
2.5696156e-08
6.3616825e-07
-3.2059106e-08
7.2794845e-07
-2.046729e-08
6.7728657e-07
6.2839892e-08
9.1853931e-07
1.4232688e-07
6.5755382e-07
2.677191e-07
8.969748e-07
-9.3340515e-08
4.4166817e-07
1.3126681e-06
6.9739001e-07
-1.1285813e-05
2.6416358e-07
-1.1303438e-05
3.0113592e-07
-1.1452444e-05
7.8666576e-08
-1.1161905e-05
1.583353e-07
-1.1315465e-05
8.6811878e-08
-1.1214787e-05
1.2456404e-07
-1.1348277e-05
9.0560752e-09
-1.131954e-05
-1.1531405e-09
-1.1324748e-05
1.4462074e-08
-1.1255719e-05
3.7274791e-08
-1.1247613e-05
3.018578e-08
-1.1308884e-05
-7.9743859e-08
-1.1289669e-05
-3.9802862e-08
-1.131656e-05
-1.313444e-07
-1.1176484e-05
-6.5789146e-08
-1.1270148e-05
-2.8572548e-07
-1.1110003e-05
-2.5713935e-07
-1.1395643e-05
-7.0439885e-07
-1.1244641e-05
-1.1220507e-05
-3.0815113e-07
-9.9986752e-05
-1.9767803e-07
-0.00010038863
-5.3850602e-08
-0.00010056958
-8.880527e-08
-0.00010044407
-1.6258562e-07
-0.00010055763
-1.5047097e-07
-0.00010047937
-1.8442403e-07
-0.00010055046
-1.0121639e-07
-0.00010052395
-5.9943693e-08
-0.00010052942
1.2445543e-08
-0.00010049769
8.5304472e-08
-0.00010049903
1.2299232e-07
-0.00010054334
1.9628975e-07
-0.00010054244
1.6429871e-07
-0.0001005808
1.7756928e-07
-0.00010051498
1.0553567e-07
-0.00010060262
7.4125775e-08
-0.00010048801
2.2639217e-07
-0.00010062254
3.3392684e-07
-0.00010044523
-0.0001000444
2.0741362e-06
-0.00013079718
2.4803552e-07
-0.00012756919
7.5620591e-07
-0.00013004204
1.6838394e-07
-0.0001285412
4.3867274e-07
-0.00012970623
1.113808e-07
-0.00012899719
2.6483054e-07
-0.00012952306
1.3841949e-07
-0.00012921655
1.5935075e-07
-0.00012944417
2.2298354e-08
-0.00012938359
-1.1432148e-07
-0.00012939086
-8.2922743e-08
-0.00012947289
-2.0285592e-07
-0.00012926686
-6.0090304e-08
-0.00012959757
-4.0258995e-07
-0.00012909258
-1.5033836e-07
-0.00012981964
-7.3941854e-07
-0.0001286544
-2.4955138e-07
-0.00013017355
-2.0900452e-06
-0.00012770354
-0.00013092966
-1.9096353e-06
-3.4639913e-05
-3.4861644e-07
-3.8431578e-05
-8.595052e-07
-3.4789816e-05
-2.9988435e-07
-3.4711933e-05