/*--------------------------------*- C++ -*----------------------------------*\
  =========                 |
  \\      /  F ield         | OpenFOAM: The Open Source CFD Toolbox
   \\    /   O peration     | Website:  https://openfoam.org
    \\  /    A nd           | Version:  8
     \\/     M anipulation  |
\*---------------------------------------------------------------------------*/
FoamFile
{
    version     2.0;
    format      ascii;
    class       volVectorField;
    location    "0.8";
    object      U;
}
// * * * * * * * * * * * * * * * * * * * * * * * * * * * * * * * * * * * * * //

dimensions      [0 1 -1 0 0 0 0];

internalField   nonuniform List<vector> 
800
(
(-0.00082834715 0.23507562 -0.0015362194)
(6.0809518e-05 0.23581196 -0.0015365057)
(-8.764424e-05 0.23595279 -0.0015424546)
(1.880626e-05 0.23594317 -0.0015413788)
(-2.7293956e-05 0.23594749 -0.0015418171)
(7.6091143e-06 0.23595779 -0.0015418847)
(-1.4748237e-05 0.23595054 -0.0015419871)
(1.4895159e-05 0.23595975 -0.0015420331)
(-6.7086065e-06 0.23595371 -0.0015419968)
(1.4679936e-05 0.23595656 -0.0015419564)
(-1.7130831e-05 0.2359568 -0.0015419654)
(4.0708773e-06 0.23595424 -0.0015420229)
(-1.7308139e-05 0.23596065 -0.001542075)
(1.2406887e-05 0.23595178 -0.0015420592)
(-9.4821796e-06 0.2359593 -0.0015419756)
(2.6187803e-05 0.23594936 -0.0015419157)
(-2.0173936e-05 0.23594518 -0.0015414755)
(8.5612038e-05 0.23595494 -0.0015425746)
(-6.2561398e-05 0.23581425 -0.0015366036)
(0.00082778219 0.23507759 -0.001536346)
(0.00016049486 -0.27456571 0.00018235324)
(3.0726774e-05 -0.27600366 0.00017444828)
(-2.8555072e-05 -0.27585916 0.00017920361)
(1.6686678e-05 -0.27589548 0.00017829534)
(-2.0797587e-05 -0.27587294 0.00017880417)
(9.3406364e-06 -0.27588629 0.00017888703)
(-1.4085644e-05 -0.27587074 0.00017907204)
(1.6641386e-05 -0.27588119 0.00017907834)
(-8.5206774e-06 -0.27587484 0.0001790376)
(1.6401608e-05 -0.27588145 0.00017895139)
(-1.8470713e-05 -0.27588142 0.00017897188)
(6.2096943e-06 -0.27587442 0.0001790965)
(-1.8705514e-05 -0.27588059 0.00017917003)
(1.204956e-05 -0.27586968 0.00017920405)
(-1.0902441e-05 -0.27588485 0.00017906)
(1.9939442e-05 -0.27587159 0.00017898483)
(-1.7910695e-05 -0.27589432 0.00017848016)
(2.6661321e-05 -0.27585775 0.00017938271)
(-3.2566175e-05 -0.27600168 0.0001747331)
(-0.00016121342 -0.27456339 0.00018258739)
(0.00012221033 0.32594521 9.0939884e-05)
(7.9625484e-06 0.32714131 9.5315146e-05)
(-3.7984676e-05 0.32723279 9.3573945e-05)
(1.1468285e-05 0.32719991 9.405851e-05)
(-2.363165e-05 0.32721403 9.3750239e-05)
(8.7593917e-06 0.32723002 9.3736277e-05)
(-1.2221922e-05 0.32722872 9.3599552e-05)
(1.243518e-05 0.32724197 9.3615865e-05)
(-6.7994268e-06 0.32723295 9.3639324e-05)
(1.0821143e-05 0.32723287 9.3714694e-05)
(-1.3073684e-05 0.32723405 9.3701743e-05)
(4.436668e-06 0.32723629 9.3600236e-05)
(-1.4536154e-05 0.32724764 9.3549478e-05)
(1.031116e-05 0.32723697 9.3496409e-05)
(-1.0518842e-05 0.32724084 9.3607601e-05)
(2.2327362e-05 0.32722585 9.3609013e-05)
(-1.2827494e-05 0.32721225 9.3895432e-05)
(3.6405883e-05 0.32724614 9.3415448e-05)
(-9.1738795e-06 0.32715566 9.5102372e-05)
(-0.00012255873 0.32596013 9.0814287e-05)
(7.4734868e-05 -0.37797193 4.6233105e-05)
(-7.2273144e-06 -0.37974927 4.5499631e-05)
(1.31837e-05 -0.37965797 4.6581924e-05)
(4.9615675e-06 -0.37971802 4.5942216e-05)
(-1.6337624e-07 -0.37967424 4.6387559e-05)
(1.9342424e-05 -0.3796958 4.6385828e-05)
(-6.455584e-06 -0.37966814 4.6502227e-05)
(2.0192599e-05 -0.37968793 4.6429792e-05)
(-1.4964271e-05 -0.3796817 4.6338969e-05)
(1.8097072e-05 -0.37969571 4.623383e-05)
(-1.7104063e-05 -0.3796954 4.6244029e-05)
(1.5670468e-05 -0.37968013 4.6371726e-05)
(-1.8961572e-05 -0.37968534 4.647712e-05)
(7.8457354e-06 -0.37966431 4.6459755e-05)
(-1.8492166e-05 -0.37969084 4.6471309e-05)
(3.9706175e-07 -0.37966854 4.6402381e-05)
(-5.1394808e-06 -0.37971209 4.6091135e-05)
(-1.379103e-05 -0.37965068 4.6446569e-05)
(6.3380813e-06 -0.37974055 4.5655519e-05)
(-7.5129781e-05 -0.37796273 4.6114442e-05)
(3.1261479e-05 0.44944842 -2.2977244e-05)
(-1.8632836e-05 0.45134842 -2.2105215e-05)
(-2.0982142e-05 0.45135618 -2.2768964e-05)
(-1.0525774e-07 0.45136558 -2.2725673e-05)
(-1.0504582e-05 0.45135428 -2.304673e-05)
(1.1748713e-05 0.45137059 -2.3039191e-05)
(-7.1275862e-06 0.45135129 -2.3124606e-05)
(5.3503376e-07 0.45136872 -2.3037399e-05)
(-1.1545111e-05 0.45135406 -2.2980706e-05)
(-1.1022411e-06 0.45135817 -2.2920923e-05)
(-2.2598338e-07 0.45135823 -2.2928881e-05)
(1.0451975e-05 0.45135474 -2.3007653e-05)
(-1.4220659e-06 0.45137027 -2.3087538e-05)
(6.5193045e-06 0.45135357 -2.3085637e-05)
(-1.2483551e-05 0.45137372 -2.3125544e-05)
(9.6971371e-06 0.45135828 -2.3046028e-05)
(-2.0873915e-07 0.45136943 -2.2838883e-05)
(2.1430462e-05 0.45136117 -2.2638555e-05)
(1.8867361e-05 0.45135443 -2.2257544e-05)
(-3.1228274e-05 0.44945428 -2.288329e-05)
(8.4210114e-05 -0.52620261 3.0562855e-05)
(5.8072209e-06 -0.52854278 3.0420849e-05)
(3.3095861e-05 -0.52848467 3.0548011e-05)
(3.8034024e-06 -0.52852927 3.0665009e-05)
(6.3255619e-06 -0.5284792 3.069536e-05)
(1.7878377e-05 -0.52852883 3.0666623e-05)
(-8.0978611e-06 -0.52849763 3.0651921e-05)
(2.6047242e-05 -0.52852808 3.062935e-05)
(-2.5239181e-05 -0.52850885 3.0630424e-05)
(2.5172415e-05 -0.52851496 3.0649256e-05)
(-2.3114451e-05 -0.52851422 3.0652481e-05)
(2.7610223e-05 -0.52850647 3.0643359e-05)
(-2.3010597e-05 -0.52852438 3.0652688e-05)
(1.1258977e-05 -0.52849293 3.0672322e-05)
(-1.5199246e-05 -0.52852342 3.0715798e-05)
(-5.2591263e-06 -0.52847234 3.073613e-05)
(-3.044182e-06 -0.528522 3.0748619e-05)
(-3.1910417e-05 -0.52847656 3.0567446e-05)
(-6.0946733e-06 -0.52853424 3.0485885e-05)
(-8.4814179e-05 -0.52619322 3.0584438e-05)
(-2.4086963e-05 0.61457665 -1.8489967e-05)
(-1.0076281e-05 0.6173055 -1.885103e-05)
(-1.2275174e-05 0.61721567 -1.8958424e-05)
(5.3437805e-06 0.61731106 -1.8957752e-05)
(-1.3459263e-05 0.61723107 -1.8944055e-05)
(-8.710407e-06 0.61730162 -1.8894607e-05)
(-6.5017955e-06 0.61724637 -1.8854267e-05)
(-1.5563232e-05 0.61728548 -1.8839726e-05)
(4.5281471e-06 0.61726238 -1.8837108e-05)
(-1.1121806e-05 0.61727934 -1.8848751e-05)
(1.2547998e-05 0.61727966 -1.8852848e-05)
(-3.0587572e-06 0.61726199 -1.8845886e-05)
(1.6494152e-05 0.6172857 -1.8853059e-05)
(7.0825041e-06 0.61724582 -1.8862041e-05)
(9.6938712e-06 0.61730131 -1.8910263e-05)
(1.432167e-05 0.61723017 -1.8951527e-05)
(-4.5081266e-06 0.6173106 -1.8993208e-05)
(1.3957821e-05 0.61721498 -1.8992658e-05)
(1.1762039e-05 0.61730467 -1.8918038e-05)
(2.5122353e-05 0.61457579 -1.8553283e-05)
(0.00019669821 -0.73716357 6.6393672e-05)
(-1.0043429e-05 -0.74041991 6.7280606e-05)
(4.2677506e-05 -0.74034295 6.7062407e-05)
(2.2598515e-05 -0.74043545 6.7456688e-05)
(-2.1192557e-06 -0.74036082 6.744752e-05)
(4.1415452e-05 -0.74042906 6.7624365e-05)
(-2.8579904e-05 -0.74037638 6.766876e-05)
(5.3013874e-05 -0.74041752 6.7698632e-05)
(-3.8039563e-05 -0.74039148 6.769216e-05)
(5.2843582e-05 -0.74040614 6.7698011e-05)
(-5.0767132e-05 -0.74040677 6.7707228e-05)
(4.0434556e-05 -0.74039342 6.7694809e-05)
(-4.9818765e-05 -0.74042104 6.7735858e-05)
(3.1517295e-05 -0.74038105 6.770712e-05)
(-3.8888761e-05 -0.74043499 6.7710665e-05)
(3.0302118e-06 -0.74036769 6.7532252e-05)
(-2.1585565e-05 -0.74044265 6.7517723e-05)
(-4.20261e-05 -0.74035141 6.7071183e-05)
(9.2049223e-06 -0.74042887 6.7210481e-05)
(-0.00019761763 -0.73717277 6.6319854e-05)
(-0.00014972048 0.84942088 -5.8315302e-05)
(4.2554206e-06 0.85359218 -5.9141962e-05)
(-4.2374571e-05 0.85321812 -5.8826174e-05)
(-2.1421037e-05 0.853499 -5.8560849e-05)
(-8.3223547e-06 0.85327851 -5.9131429e-05)
(-3.8814057e-05 0.85343928 -5.8967587e-05)
(1.2947746e-05 0.85331762 -5.9210128e-05)
(-4.8469646e-05 0.85340076 -5.9145516e-05)
(2.7651004e-05 0.85334417 -5.92036e-05)
(-4.361372e-05 0.85336826 -5.9166786e-05)
(4.122117e-05 0.85336812 -5.917665e-05)
(-3.0512489e-05 0.85334298 -5.9233747e-05)
(4.5084664e-05 0.85339893 -5.9185704e-05)
(-1.6234673e-05 0.85331434 -5.9316989e-05)
(3.6367762e-05 0.85343505 -5.9067826e-05)
(7.361475e-06 0.85327327 -5.9330731e-05)
(1.9908663e-05 0.85349418 -5.8531054e-05)
(4.1647124e-05 0.85321265 -5.8301646e-05)
(-3.2008593e-06 0.85358697 -5.9005322e-05)
(0.0001507486 0.84941624 -5.8165079e-05)
(-0.00013661421 -1.0015206 -0.001173103)
(0.00015451292 -1.0063851 -0.0011776229)
(-0.00011396422 -1.0060181 -0.0011797108)
(0.00013358002 -1.0063094 -0.0011800583)
(-0.00010349446 -1.0060732 -0.0011795077)
(0.00012171121 -1.006252 -0.0011799058)
(-0.00010148923 -1.0061119 -0.0011796749)
(0.00011527989 -1.0062082 -0.0011798214)
(-0.00010449748 -1.0061416 -0.0011797311)
(0.00010996472 -1.0061716 -0.0011797833)
(-0.00010930493 -1.0061716 -0.0011797816)
(0.00010492741 -1.0061406 -0.0011796994)
(-0.00011460109 -1.0062067 -0.0011798089)
(0.000101421 -1.0061092 -0.001179606)
(-0.00012158027 -1.0062486 -0.0011798849)
(0.00010372789 -1.006069 -0.0011794086)
(-0.00013260747 -1.0063055 -0.001180117)
(0.00011412336 -1.0060136 -0.0011801361)
(-0.00015423659 -1.0063809 -0.0011776742)
(0.00013636981 -1.0015168 -0.0011731636)
(-0.00084820049 0.23838382 0.00060884653)
(6.4864008e-05 0.23911664 0.00062203651)
(-9.0713618e-05 0.2392695 0.00061735183)
(1.929928e-05 0.23925777 0.00061831409)
(-2.7817115e-05 0.23926312 0.00061794937)
(7.6597819e-06 0.23927361 0.00061793385)
(-1.5006621e-05 0.23926663 0.00061779245)
(1.502838e-05 0.23927593 0.00061780017)
(-6.8286653e-06 0.23926978 0.00061780578)
(1.4841781e-05 0.23927252 0.00061786749)
(-1.7311082e-05 0.23927278 0.00061785887)
(4.173628e-06 0.2392704 0.00061778233)
(-1.7465406e-05 0.23927696 0.00061776134)
(1.2639702e-05 0.23926807 0.00061772424)
(-9.5470138e-06 0.23927539 0.00061784541)
(2.6707782e-05 0.23926527 0.00061785172)
(-2.0677934e-05 0.23926007 0.00061821566)
(8.8680937e-05 0.23927197 0.00061722813)
(-6.6619377e-05 0.23911932 0.0006219334)
(0.00084762157 0.23838616 0.00060871444)
(0.00015832498 -0.27983381 0.00018604966)
(2.9000206e-05 -0.28131647 0.00017768886)
(-2.6942398e-05 -0.28116615 0.0001824756)
(1.6657475e-05 -0.28120359 0.000181557)
(-2.0737371e-05 -0.2811806 0.00018207274)
(9.6208852e-06 -0.28119414 0.00018215038)
(-1.4175337e-05 -0.2811784 0.00018233854)
(1.677284e-05 -0.28118897 0.00018234297)
(-8.7531409e-06 -0.28118253 0.00018230534)
(1.6526126e-05 -0.28118919 0.00018221923)
(-1.8555916e-05 -0.28118916 0.0001822401)
(6.4773922e-06 -0.28118211 0.00018236575)
(-1.8800967e-05 -0.28118838 0.00018243691)
(1.2179159e-05 -0.28117734 0.00018247292)
(-1.1159054e-05 -0.28119271 0.00018232452)
(1.9885215e-05 -0.28117925 0.00018225278)
(-1.7882335e-05 -0.28120245 0.00018173881)
(2.5099151e-05 -0.28116475 0.00018264907)
(-3.0812036e-05 -0.28131454 0.00017796647)
(-0.00015906836 -0.27983145 0.00018627583)
(0.00012574666 0.33121092 0.00011180869)
(9.1015871e-06 0.33244626 0.00011605298)
(-3.9158486e-05 0.33253511 0.00011424733)
(1.1671144e-05 0.33250238 0.00011474511)
(-2.4113831e-05 0.33251648 0.0001144291)
(8.7750064e-06 0.33253252 0.00011441223)
(-1.2470232e-05 0.33253102 0.0001142758)
(1.2556411e-05 0.33254436 0.00011429295)
(-6.880574e-06 0.33253522 0.00011432036)
(1.0964015e-05 0.33253521 0.00011439783)
(-1.32447e-05 0.33253638 0.00011438511)
(4.488899e-06 0.33253854 0.00011428224)
(-1.469158e-05 0.33254999 0.00011422795)
(1.0526125e-05 0.33253913 0.00011417385)
(-1.0554949e-05 0.33254324 0.00011428411)
(2.2790888e-05 0.33252813 0.0001142868)
(-1.3039929e-05 0.33251465 0.00011457906)
(3.755399e-05 0.33254818 0.0001140837)
(-1.0297275e-05 0.33246045 0.00011583336)
(-0.00012605147 0.33122554 0.00011167566)
(7.5422939e-05 -0.38463651 2.3964057e-05)
(-7.2923985e-06 -0.38646011 2.2761284e-05)
(1.3662215e-05 -0.38636664 2.3894083e-05)
(4.9824465e-06 -0.3864278 2.3232857e-05)
(1.3686015e-08 -0.38638342 2.3690791e-05)
(1.9577587e-05 -0.38640533 2.3683957e-05)
(-6.589938e-06 -0.38637734 2.3805879e-05)
(2.0306465e-05 -0.3863973 2.373085e-05)
(-1.5260818e-05 -0.38639094 2.3641829e-05)
(1.8253438e-05 -0.38640505 2.353492e-05)
(-1.7237077e-05 -0.38640473 2.3544966e-05)
(1.598734e-05 -0.38638936 2.3674748e-05)
(-1.9111573e-05 -0.38639469 2.3779102e-05)
(8.0005694e-06 -0.38637341 2.3764949e-05)
(-1.8697871e-05 -0.38640032 2.377151e-05)
(2.5298666e-07 -0.38637761 2.3707691e-05)
(-5.2347347e-06 -0.38642181 2.3383271e-05)
(-1.4264958e-05 -0.38635917 2.3757754e-05)
(6.4116767e-06 -0.3864513 2.2913426e-05)
(-7.5954117e-05 -0.38462717 2.3839981e-05)
(3.1925413e-05 0.45700358 4.1836242e-07)
(-1.8717306e-05 0.45895185 1.366437e-06)
(-2.1570299e-05 0.4589588 6.808043e-07)
(-2.6566873e-07 0.45896902 7.3096939e-07)
(-1.0910885e-05 0.45895712 4.0709876e-07)
(1.1717222e-05 0.45897379 4.1579889e-07)
(-7.274461e-06 0.4589541 3.33131e-07)
(6.2766141e-07 0.45897186 4.2096677e-07)
(-1.1564918e-05 0.4589571 4.7951376e-07)
(-1.0359986e-06 0.45896139 5.3923296e-07)
(-3.1182763e-07 0.45896145 5.3124131e-07)
(1.0447651e-05 0.45895777 4.5261724e-07)
(-1.4834104e-06 0.45897339 3.7141656e-07)
(6.6455869e-06 0.45895643 3.7337806e-07)
(-1.2472231e-05 0.45897689 3.3122331e-07)
(1.0088166e-05 0.45896113 4.102551e-07)
(1.5606358e-08 0.45897282 6.1971585e-07)
(2.1998038e-05 0.45896391 8.1131848e-07)
(1.8932733e-05 0.45895779 1.2113559e-06)
(-3.1769021e-05 0.45700954 5.0769938e-07)
(8.524546e-05 -0.53535977 6.6846254e-06)
(5.4957104e-06 -0.53776018 6.1237861e-06)
(3.3736098e-05 -0.53770098 6.254509e-06)
(4.0405801e-06 -0.53774641 6.3697007e-06)
(6.390696e-06 -0.53769545 6.3995721e-06)
(1.8141549e-05 -0.53774564 6.3736841e-06)
(-8.2900956e-06 -0.53771394 6.3592566e-06)
(2.6366041e-05 -0.53774477 6.3377285e-06)
(-2.5509975e-05 -0.53772535 6.3373822e-06)
(2.5509211e-05 -0.53773161 6.3553898e-06)
(-2.3439706e-05 -0.53773087 6.3582336e-06)
(2.7894976e-05 -0.53772295 6.3491429e-06)
(-2.3322571e-05 -0.53774105 6.359638e-06)
(1.146631e-05 -0.53770925 6.378221e-06)
(-1.5450652e-05 -0.53774019 6.4236255e-06)
(-5.3053793e-06 -0.53768859 6.4434006e-06)
(-3.2916191e-06 -0.53773908 6.4578186e-06)
(-3.2557791e-05 -0.53769296 6.278686e-06)
(-5.7828608e-06 -0.53775157 6.1924348e-06)
(-8.5870154e-05 -0.53535046 6.7075053e-06)
(-2.4782074e-05 0.62518767 4.286994e-06)
(-1.032873e-05 0.62798557 4.161978e-06)
(-1.2687194e-05 0.62789448 4.0649852e-06)
(5.1948388e-06 0.62799121 4.0537008e-06)
(-1.3623459e-05 0.62791015 4.0759814e-06)
(-8.8343554e-06 0.62798167 4.1208149e-06)
(-6.5190293e-06 0.62792577 4.1682953e-06)
(-1.5715017e-05 0.62796543 4.1818033e-06)
(4.5844006e-06 0.62794198 4.1860279e-06)
(-1.1256897e-05 0.62795911 4.1719699e-06)
(1.2675239e-05 0.62795943 4.1673195e-06)
(-3.121941e-06 0.62794159 4.1760084e-06)
(1.6647025e-05 0.62796565 4.1682663e-06)
(7.0961311e-06 0.62792522 4.1624196e-06)
(9.8185568e-06 0.62798138 4.1085524e-06)
(1.4474699e-05 0.62790927 4.0747328e-06)
(-4.3724341e-06 0.62799073 4.0252756e-06)
(1.4353623e-05 0.62789378 4.0356465e-06)
(1.1999385e-05 0.62798468 4.0960775e-06)
(2.5818605e-05 0.62518676 4.2218198e-06)
(0.00019971879 -0.74990462 4.3209215e-05)
(-1.0320255e-05 -0.75324479 4.3383525e-05)
(4.3444379e-05 -0.75316653 4.3104945e-05)
(2.3245063e-05 -0.75326017 4.3524154e-05)
(-2.118557e-06 -0.75318459 4.3497601e-05)
(4.2150713e-05 -0.75325375 4.3679963e-05)
(-2.8944256e-05 -0.75320037 4.3723436e-05)
(5.3679101e-05 -0.75324209 4.3747306e-05)
(-3.8587249e-05 -0.75321567 4.3734583e-05)
(5.3474928e-05 -0.75323052 4.374695e-05)
(-5.1389165e-05 -0.75323114 4.3759763e-05)
(4.1000034e-05 -0.75321762 4.3742197e-05)
(-5.046341e-05 -0.75324561 4.3785209e-05)
(3.1908942e-05 -0.75320507 4.3751153e-05)
(-3.9600355e-05 -0.7532597 4.376598e-05)
(3.0174673e-06 -0.7531915 4.3582825e-05)
(-2.2270472e-05 -0.75326727 4.3582074e-05)
(-4.2854903e-05 -0.75317479 4.3116825e-05)
(9.4395842e-06 -0.75325369 4.3322198e-05)
(-0.0002006372 -0.74991375 4.3147424e-05)
(-0.00015220981 0.86452845 -3.3345547e-05)
(4.5027813e-06 0.86880426 -3.35796e-05)
(-4.2722432e-05 0.86842521 -3.3196554e-05)
(-2.1964525e-05 0.86870926 -3.2959381e-05)
(-8.5474305e-06 0.86848625 -3.3511525e-05)
(-3.9398711e-05 0.8686488 -3.3348024e-05)
(1.3134745e-05 0.86852571 -3.3583571e-05)
(-4.9031185e-05 0.86860982 -3.3514469e-05)
(2.8073457e-05 0.86855261 -3.3572248e-05)
(-4.412818e-05 0.86857698 -3.3540077e-05)
(4.1711687e-05 0.86857684 -3.3552645e-05)
(-3.0953327e-05 0.8685514 -3.3610059e-05)
(4.5612965e-05 0.86860799 -3.3560745e-05)
(-1.6456465e-05 0.86852248 -3.3693154e-05)
(3.690477e-05 0.86864453 -3.3451615e-05)
(7.65144e-06 0.86848102 -3.371065e-05)
(2.0816832e-05 0.86870446 -3.2925458e-05)
(4.2047286e-05 0.86841961 -3.2670935e-05)
(-3.6338466e-06 0.86879904 -3.3446544e-05)
(0.00015324074 0.86452381 -3.3203093e-05)
(-0.00015399839 -1.0194485 0.0011939219)
(0.00015942907 -1.0244368 0.0012060469)
(-0.00011673484 -1.0240648 0.0012033736)
(0.00013554098 -1.0243598 0.0012034715)
(-0.00010478633 -1.0241205 0.0012036716)
(0.00012325039 -1.0243015 0.0012035289)
(-0.00010275552 -1.0241597 0.0012035474)
(0.00011671838 -1.0242572 0.0012035466)
(-0.00010579554 -1.0241899 0.0012035451)
(0.00011131393 -1.0242202 0.0012035411)
(-0.00011063652 -1.0242202 0.0012035434)
(0.00010623289 -1.0241888 0.0012035828)
(-0.00011602841 -1.0242557 0.0012035669)
(0.00010269491 -1.0241569 0.0012036313)
(-0.00012310429 -1.0242981 0.001203555)
(0.00010498136 -1.0241164 0.0012037692)
(-0.00013483415 -1.0243558 0.0012034117)
(0.00011689787 -1.0240603 0.0012029427)
(-0.00015897321 -1.0244326 0.0012059977)
(0.00015375286 -1.0194447 0.0011938641)
(-0.00084820029 0.23838382 -0.00060884978)
(6.4864414e-05 0.23911664 -0.00062203851)
(-9.0713402e-05 0.2392695 -0.00061735242)
(1.9298863e-05 0.23925777 -0.0006183147)
(-2.7818212e-05 0.23926312 -0.00061795273)
(7.6587432e-06 0.23927361 -0.00061794159)
(-1.5006458e-05 0.23926663 -0.00061780262)
(1.5029801e-05 0.23927593 -0.00061780692)
(-6.8269716e-06 0.23926978 -0.00061780659)
(1.4842863e-05 0.23927252 -0.00061786319)
(-1.7310994e-05 0.23927278 -0.00061785277)
(4.1729112e-06 0.2392704 -0.0006177775)
(-1.7466445e-05 0.23927696 -0.00061775982)
(1.2638962e-05 0.23926807 -0.00061772616)
(-9.5476021e-06 0.23927539 -0.00061784873)
(2.6706527e-05 0.23926527 -0.0006178574)
(-2.0680022e-05 0.23926007 -0.00061822708)
(8.8678748e-05 0.23927197 -0.0006172473)
(-6.6620762e-05 0.23911932 -0.00062195897)
(0.00084762118 0.23838616 -0.00060874264)
(0.00015832515 -0.27983381 -0.0001860527)
(2.9000586e-05 -0.28131647 -0.00017769075)
(-2.6942238e-05 -0.28116616 -0.00018247613)
(1.6656994e-05 -0.28120359 -0.00018155782)
(-2.0738404e-05 -0.2811806 -0.00018207646)
(9.6200172e-06 -0.28119414 -0.00018215792)
(-1.4175019e-05 -0.2811784 -0.00018234811)
(1.6774338e-05 -0.28118897 -0.00018234858)
(-8.7514982e-06 -0.28118253 -0.00018230499)
(1.6527093e-05 -0.28118919 -0.00018221407)
(-1.8555896e-05 -0.28118916 -0.00018223352)
(6.4766874e-06 -0.28118211 -0.00018236048)
(-1.8801993e-05 -0.28118838 -0.00018243489)
(1.2178407e-05 -0.28117734 -0.0001824743)
(-1.1159589e-05 -0.28119271 -0.0001823274)
(1.9884119e-05 -0.28117925 -0.00018225762)
(-1.7884394e-05 -0.28120245 -0.00018174881)
(2.5096793e-05 -0.28116475 -0.00018266731)
(-3.0813629e-05 -0.28131454 -0.00017799181)
(-0.00015906886 -0.27983145 -0.00018630438)
(0.0001257468 0.33121092 -0.00011181146)
(9.1018784e-06 0.33244626 -0.0001160548)
(-3.9158369e-05 0.33253511 -0.0001142482)
(1.1670786e-05 0.33250238 -0.00011474617)
(-2.4114626e-05 0.33251648 -0.00011443247)
(8.7744374e-06 0.33253252 -0.00011441867)
(-1.2469878e-05 0.33253102 -0.00011428299)
(1.2557578e-05 0.33254437 -0.00011429698)
(-6.8792809e-06 0.33253522 -0.00011431968)
(1.0964787e-05 0.33253521 -0.00011439329)
(-1.3244678e-05 0.33253638 -0.00011437943)
(4.488338e-06 0.33253854 -0.00011427761)
(-1.4692369e-05 0.33254999 -0.00011422597)
(1.0525545e-05 0.33253913 -0.00011417445)
(-1.0555382e-05 0.33254324 -0.00011428595)
(2.2790056e-05 0.33252813 -0.00011429013)
(-1.304151e-05 0.33251466 -0.00011458628)
(3.7552066e-05 0.33254818 -0.00011409741)
(-1.0298609e-05 0.33246046 -0.00011585339)
(-0.00012605186 0.33122554 -0.00011169834)
(7.5423017e-05 -0.38463651 -2.3965212e-05)
(-7.2923316e-06 -0.38646011 -2.2761905e-05)
(1.366196e-05 -0.38636664 -2.3894753e-05)
(4.9818742e-06 -0.3864278 -2.3235207e-05)
(1.3356887e-08 -0.38638342 -2.3695399e-05)
(1.9578032e-05 -0.38640533 -2.3688629e-05)
(-6.5887945e-06 -0.38637734 -2.3807568e-05)
(2.0307732e-05 -0.3863973 -2.3727834e-05)
(-1.5260125e-05 -0.38639093 -2.3634942e-05)
(1.8253456e-05 -0.38640505 -2.3527125e-05)
(-1.7237264e-05 -0.38640473 -2.3537944e-05)
(1.5987045e-05 -0.38638936 -2.3668139e-05)
(-1.9112277e-05 -0.38639469 -2.3774033e-05)
(7.9998316e-06 -0.38637341 -2.3762952e-05)
(-1.8698129e-05 -0.38640032 -2.3771356e-05)
(2.5290165e-07 -0.38637761 -2.3707453e-05)
(-5.2358135e-06 -0.3864218 -2.3383719e-05)
(-1.4267337e-05 -0.38635916 -2.3764911e-05)
(6.4093862e-06 -0.3864513 -2.2930114e-05)
(-7.5955029e-05 -0.38462717 -2.386289e-05)
(3.1925407e-05 0.45700358 -4.2055284e-07)
(-1.8717388e-05 0.45895185 -1.3685388e-06)
(-2.1570649e-05 0.4589588 -6.8349292e-07)
(-2.6601474e-07 0.45896902 -7.3550354e-07)
(-1.09107e-05 0.45895712 -4.1228157e-07)
(1.1718166e-05 0.45897379 -4.1912137e-07)
(-7.2731276e-06 0.45895411 -3.3176987e-07)
(6.2871443e-07 0.45897186 -4.1511185e-07)
(-1.1564481e-05 0.4589571 -4.7116742e-07)
(-1.0360022e-06 0.45896139 -5.3070262e-07)
(-3.1175971e-07 0.45896145 -5.2311385e-07)
(1.0447719e-05 0.45895776 -4.4377961e-07)
(-1.4837472e-06 0.45897339 -3.6285691e-07)
(6.6449028e-06 0.45895643 -3.6690045e-07)
(-1.2472548e-05 0.45897689 -3.2731465e-07)
(1.0088142e-05 0.45896113 -4.058218e-07)
(1.4811034e-08 0.45897282 -6.156416e-07)
(2.1996098e-05 0.45896391 -8.1192842e-07)
(1.8930516e-05 0.45895779 -1.2201199e-06)
(-3.1769997e-05 0.45700954 -5.2315787e-07)
(8.5245304e-05 -0.53535977 -6.6823861e-06)
(5.4952072e-06 -0.53776018 -6.1229871e-06)
(3.373547e-05 -0.53770098 -6.2560066e-06)
(4.0403916e-06 -0.53774642 -6.3732421e-06)
(6.3917608e-06 -0.53769545 -6.4022244e-06)
(1.814356e-05 -0.53774564 -6.3702573e-06)
(-8.2889299e-06 -0.53771393 -6.3489237e-06)
(2.636545e-05 -0.53774477 -6.3261849e-06)
(-2.5511143e-05 -0.53772534 -6.3296721e-06)
(2.5508588e-05 -0.53773161 -6.3512631e-06)
(-2.3439975e-05 -0.53773087 -6.3557651e-06)
(2.7895385e-05 -0.53772295 -6.3463889e-06)
(-2.3322264e-05 -0.53774105 -6.3538558e-06)
(1.1466272e-05 -0.53770925 -6.3722635e-06)
(-1.5450468e-05 -0.53774019 -6.4182664e-06)
(-5.304555e-06 -0.53768859 -6.4374065e-06)
(-3.2905722e-06 -0.53773908 -6.4465421e-06)
(-3.2557696e-05 -0.53769295 -6.2665049e-06)
(-5.7838308e-06 -0.53775156 -6.182258e-06)
(-8.5870949e-05 -0.53535045 -6.7026481e-06)
(-2.4782396e-05 0.62518767 -4.2854395e-06)
(-1.0329464e-05 0.62798557 -4.1620558e-06)
(-1.2688288e-05 0.62789448 -4.0679275e-06)
(5.1943411e-06 0.62799121 -4.0621872e-06)
(-1.362226e-05 0.62791015 -4.0847231e-06)
(-8.8317169e-06 0.62798167 -4.1229769e-06)
(-6.5164907e-06 0.62792577 -4.1591452e-06)
(-1.5713955e-05 0.62796542 -4.1650345e-06)
(4.583739e-06 0.62794198 -4.1674615e-06)
(-1.1258007e-05 0.62795911 -4.1578784e-06)
(1.2675381e-05 0.62795943 -4.1550634e-06)
(-3.121166e-06 0.62794158 -4.1608425e-06)
(1.6647378e-05 0.62796564 -4.1506569e-06)
(7.0953833e-06 0.62792522 -4.1452772e-06)
(9.8179231e-06 0.62798138 -4.0954492e-06)
(1.4475266e-05 0.62790927 -4.0600721e-06)
(-4.3726037e-06 0.62799073 -4.0076532e-06)
(1.4351664e-05 0.62789379 -4.0234051e-06)
(1.1996804e-05 0.62798469 -4.0954054e-06)
(2.5817385e-05 0.62518676 -4.2314462e-06)
(0.00019972021 -0.74990462 -4.3207618e-05)
(-1.0318871e-05 -0.75324479 -4.3378877e-05)
(4.3444802e-05 -0.75316653 -4.3100781e-05)
(2.3243584e-05 -0.75326017 -4.3517158e-05)
(-2.1190956e-06 -0.75318459 -4.3496319e-05)
(4.2151857e-05 -0.75325375 -4.367442e-05)
(-2.8946576e-05 -0.75320037 -4.3720407e-05)
(5.367307e-05 -0.75324209 -4.3757897e-05)
(-3.8587447e-05 -0.75321567 -4.3761654e-05)
(5.3480471e-05 -0.75323052 -4.3759593e-05)
(-5.1390534e-05 -0.75323114 -4.3764455e-05)
(4.0998661e-05 -0.75321762 -4.3759077e-05)
(-5.0465364e-05 -0.75324561 -4.3791846e-05)
(3.1910737e-05 -0.75320507 -4.3765454e-05)
(-3.9595854e-05 -0.7532597 -4.3762673e-05)
(3.0169778e-06 -0.75319151 -4.358406e-05)
(-2.226768e-05 -0.75326727 -4.3578331e-05)
(-4.2849713e-05 -0.75317479 -4.3103128e-05)
(9.4428653e-06 -0.75325369 -4.3291647e-05)
(-0.00020063685 -0.74991375 -4.3108753e-05)
(-0.0001522107 0.86452844 3.3352093e-05)
(4.500882e-06 0.86880427 3.3580873e-05)
(-4.2723825e-05 0.86842522 3.3192117e-05)
(-2.1964043e-05 0.86870927 3.2951145e-05)
(-8.5445505e-06 0.86848623 3.3508882e-05)
(-3.9394329e-05 0.8686488 3.3358907e-05)
(1.3138648e-05 0.86852572 3.3611528e-05)
(-4.9029479e-05 0.86860982 3.3551183e-05)
(2.8071429e-05 0.86855257 3.3608809e-05)
(-4.413191e-05 0.86857699 3.3563321e-05)
(4.1710794e-05 0.86857687 3.3567022e-05)
(-3.0953104e-05 0.8685514 3.3626952e-05)
(4.5612684e-05 0.86860799 3.3574881e-05)
(-1.6458625e-05 0.86852243 3.3704879e-05)
(3.6902512e-05 0.86864453 3.345174e-05)
(7.6518953e-06 0.86848102 3.3710563e-05)
(2.0816503e-05 0.86870446 3.2927672e-05)
(4.2044853e-05 0.86841962 3.2670119e-05)
(-3.6365811e-06 0.86879905 3.3435135e-05)
(0.00015323959 0.8645238 3.3183372e-05)
(-0.00015399852 -1.0194485 -0.0011939292)
(0.00015942929 -1.0244368 -0.0012060504)
(-0.00011673428 -1.0240648 -0.0012033748)
(0.00013554264 -1.0243598 -0.0012034711)
(-0.00010478885 -1.0241205 -0.0012036674)
(0.00012324189 -1.0243015 -0.0012035479)
(-0.00010275832 -1.0241597 -0.0012035983)
(0.00011672185 -1.0242572 -0.0012035828)
(-0.00010579297 -1.0241899 -0.0012035746)
(0.00011131535 -1.0242202 -0.0012035574)
(-0.00011063479 -1.0242202 -0.0012035534)
(0.00010623402 -1.0241888 -0.0012035905)
(-0.00011602626 -1.0242557 -0.0012035731)
(0.00010269629 -1.0241569 -0.0012036354)
(-0.00012310461 -1.0242981 -0.0012035517)
(0.00010498079 -1.0241164 -0.0012037647)
(-0.0001348376 -1.0243558 -0.0012034146)
(0.00011689913 -1.0240603 -0.0012029629)
(-0.00015896896 -1.0244326 -0.0012059927)
(0.00015375347 -1.0194447 -0.0011938616)
(-0.00082834672 0.23507562 0.0015362181)
(6.0810442e-05 0.23581196 0.0015365049)
(-8.7643758e-05 0.23595279 0.0015424544)
(1.880529e-05 0.23594317 0.0015413786)
(-2.7296429e-05 0.23594749 0.0015418158)
(7.6067518e-06 0.23595779 0.0015418818)
(-1.4747902e-05 0.23595054 0.0015419831)
(1.4898418e-05 0.23595975 0.0015420304)
(-6.7047729e-06 0.23595371 0.0015419966)
(1.4682309e-05 0.23595656 0.0015419581)
(-1.7130655e-05 0.2359568 0.0015419677)
(4.0692976e-06 0.23595424 0.0015420247)
(-1.7310475e-05 0.23596065 0.0015420756)
(1.2405203e-05 0.23595178 0.0015420584)
(-9.483464e-06 0.2359593 0.0015419743)
(2.6185016e-05 0.23594936 0.0015419135)
(-2.0178595e-05 0.23594519 0.0015414712)
(8.5607146e-05 0.23595494 0.0015425673)
(-6.256453e-05 0.23581425 0.0015365939)
(0.00082778128 0.23507759 0.0015363352)
(0.00016049526 -0.27456571 -0.00018235441)
(3.0727649e-05 -0.27600366 -0.000174449)
(-2.8554703e-05 -0.27585916 -0.00017920378)
(1.6685566e-05 -0.27589548 -0.00017829565)
(-2.0799911e-05 -0.27587294 -0.0001788056)
(9.3385805e-06 -0.27588629 -0.00017888993)
(-1.4084999e-05 -0.27587074 -0.00017907584)
(1.6644847e-05 -0.27588119 -0.00017908058)
(-8.516936e-06 -0.27587484 -0.00017903748)
(1.640376e-05 -0.27588145 -0.00017894944)
(-1.8470671e-05 -0.27588142 -0.00017896939)
(6.2081167e-06 -0.27587442 -0.0001790945)
(-1.8707819e-05 -0.27588059 -0.00017916928)
(1.2047862e-05 -0.27586967 -0.00017920461)
(-1.0903639e-05 -0.27588485 -0.00017906115)
(1.9936979e-05 -0.27587159 -0.00017898672)
(-1.7915334e-05 -0.27589432 -0.00017848403)
(2.665601e-05 -0.27585775 -0.00017938977)
(-3.2569738e-05 -0.27600167 -0.00017474288)
(-0.00016121453 -0.27456339 -0.00018259838)
(0.00012221067 0.32594521 -9.0940942e-05)
(7.9632166e-06 0.32714131 -9.5315828e-05)
(-3.798442e-05 0.32723279 -9.3574252e-05)
(1.1467399e-05 0.32719991 -9.405892e-05)
(-2.3633543e-05 0.32721403 -9.3751594e-05)
(8.7580444e-06 0.32723002 -9.3738889e-05)
(-1.2221073e-05 0.32722872 -9.3602466e-05)
(1.2437955e-05 0.32724197 -9.3617487e-05)
(-6.796431e-06 0.32723295 -9.3639023e-05)
(1.0822866e-05 0.32723287 -9.3712907e-05)
(-1.3073663e-05 0.32723406 -9.3699536e-05)
(4.435382e-06 0.32723629 -9.3598451e-05)
(-1.4537978e-05 0.32724765 -9.3548724e-05)
(1.0309829e-05 0.32723698 -9.3496694e-05)
(-1.0519779e-05 0.32724084 -9.3608349e-05)
(2.2325507e-05 0.32722585 -9.3610309e-05)
(-1.2831104e-05 0.32721225 -9.3898221e-05)
(3.6401404e-05 0.32724614 -9.3420803e-05)
(-9.1770285e-06 0.32715566 -9.5110268e-05)
(-0.00012255967 0.32596013 -9.0823277e-05)
(7.4735053e-05 -0.37797193 -4.6233577e-05)
(-7.2271402e-06 -0.37974927 -4.5499882e-05)
(1.3183088e-05 -0.37965797 -4.6582166e-05)
(4.9601758e-06 -0.37971802 -4.5943182e-05)
(-1.6421007e-07 -0.37967424 -4.6389434e-05)
(1.9343436e-05 -0.3796958 -4.6387811e-05)
(-6.4528839e-06 -0.37966813 -4.6502971e-05)
(2.0195621e-05 -0.37968792 -4.6428662e-05)
(-1.4962573e-05 -0.3796817 -4.6336205e-05)
(1.809712e-05 -0.37969571 -4.6230686e-05)
(-1.7104468e-05 -0.3796954 -4.6241201e-05)
(1.5669784e-05 -0.37968013 -4.6369022e-05)
(-1.8963173e-05 -0.37968533 -4.6475074e-05)
(7.8440155e-06 -0.37966431 -4.6458843e-05)
(-1.8492786e-05 -0.37969084 -4.6471228e-05)
(3.968452e-07 -0.37966854 -4.640219e-05)
(-5.1420985e-06 -0.37971209 -4.6091319e-05)
(-1.3796773e-05 -0.37965068 -4.6449463e-05)
(6.3324954e-06 -0.37974054 -4.5662426e-05)
(-7.5131981e-05 -0.37796273 -4.6123928e-05)
(3.1261527e-05 0.44944842 2.2976368e-05)
(-1.8632999e-05 0.45134842 2.2104443e-05)
(-2.0983014e-05 0.45135618 2.2767928e-05)
(-1.0615636e-07 0.45136558 2.2723846e-05)
(-1.0504157e-05 0.45135428 2.3044591e-05)
(1.1751043e-05 0.45137059 2.3037847e-05)
(-7.1243318e-06 0.45135129 2.3125244e-05)
(5.3747735e-07 0.45136872 2.3039893e-05)
(-1.1544212e-05 0.45135406 2.2984126e-05)
(-1.1023508e-06 0.45135817 2.2924344e-05)
(-2.258957e-07 0.45135823 2.2932097e-05)
(1.0452124e-05 0.45135474 2.3011113e-05)
(-1.4229087e-06 0.45137027 2.3090907e-05)
(6.5176611e-06 0.45135357 2.3088083e-05)
(-1.2484257e-05 0.45137372 2.3126992e-05)
(9.6972416e-06 0.45135828 2.3047702e-05)
(-2.1047045e-07 0.45136944 2.2840586e-05)
(2.1425987e-05 0.45136118 2.2638348e-05)