/*--------------------------------*- C++ -*----------------------------------*\
  =========                 |
  \\      /  F ield         | OpenFOAM: The Open Source CFD Toolbox
   \\    /   O peration     | Website:  https://openfoam.org
    \\  /    A nd           | Version:  8
     \\/     M anipulation  |
\*---------------------------------------------------------------------------*/
FoamFile
{
    version     2.0;
    format      ascii;
    class       surfaceScalarField;
    location    "0.5";
    object      phi;
}
// * * * * * * * * * * * * * * * * * * * * * * * * * * * * * * * * * * * * * //

dimensions      [1 0 -1 0 0 0 0];

internalField   nonuniform List<scalar> 
2080
(
-6.5148511e-06
-0.0088912191
-1.6766558e-05
-3.5175083e-07
-0.0089037458
-1.6749701e-05
-6.191915e-07
-0.008897383
-1.6768606e-05
-1.2747897e-07
-0.0088981334
-1.6768044e-05
-1.3908435e-07
-0.0088976369
-1.6768476e-05
-6.1239882e-08
-0.00889773
-1.6768463e-05
-4.6365729e-08
-0.0088976675
-1.6768471e-05
-2.5532269e-08
-0.0088976795
-1.6768479e-05
-1.1646564e-08
-0.0088976714
-1.6768475e-05
-5.7032962e-13
-0.008897672
-1.6768479e-05
1.164566e-08
-0.008897672
-1.6768479e-05
2.5531617e-08
-0.0088976714
-1.6768475e-05
4.6365329e-08
-0.0088976795
-1.6768479e-05
6.1239657e-08
-0.0088976675
-1.6768471e-05
1.3908441e-07
-0.00889773
-1.6768463e-05
1.2747897e-07
-0.0088976369
-1.6768476e-05
6.191913e-07
-0.0088981334
-1.6768044e-05
3.5175019e-07
-0.008897383
-1.6768606e-05
6.5148503e-06
-0.0089037458
-1.6749701e-05
-0.0088912191
-1.6766559e-05
1.783615e-06
-0.0089979943
7.1640317e-06
-1.3826315e-07
-0.0090068222
7.1498679e-06
-2.3009175e-07
-0.0090022971
7.1653527e-06
-9.2960262e-08
-0.0090032734
7.1650812e-06
-9.2838608e-08
-0.0090026423
7.1654244e-06
-4.5267762e-08
-0.0090027881
7.1654303e-06
-2.7737555e-08
-0.009002696
7.1654325e-06
-1.7889592e-08
-0.0090027083
7.1654401e-06
-5.9232041e-09
-0.0090027013
7.1654366e-06
-8.9638481e-13
-0.0090026995
7.1654391e-06
5.92174e-09
-0.0090026995
7.1654392e-06
1.788835e-08
-0.0090027013
7.1654366e-06
2.7736677e-08
-0.0090027083
7.1654401e-06
4.5267144e-08
-0.009002696
7.1654325e-06
9.2838377e-08
-0.0090027881
7.1654303e-06
9.2960189e-08
-0.0090026423
7.1654244e-06
2.3009122e-07
-0.0090032734
7.1650813e-06
1.3826212e-07
-0.0090022971
7.1653529e-06
-1.7836161e-06
-0.0090068222
7.149868e-06
-0.0089979943
7.1640319e-06
1.2265824e-06
-0.0089452299
3.9101512e-06
-4.1899925e-07
-0.0089511797
3.8902661e-06
-3.7179644e-07
-0.0089483611
3.9114946e-06
-2.238056e-07
-0.0089494449
3.9107269e-06
-2.1714728e-07
-0.0089486695
3.9115535e-06
-1.1955414e-07
-0.0089489088
3.9115155e-06
-9.9107049e-08
-0.0089487373
3.9115549e-06
-5.2790307e-08
-0.0089487784
3.9115569e-06
-2.8388853e-08
-0.0089487481
3.911557e-06
-2.6357806e-14
-0.0089487516
3.911559e-06
2.8388812e-08
-0.0089487516
3.9115591e-06
5.279043e-08
-0.0089487481
3.911557e-06
9.910737e-08
-0.0089487784
3.9115569e-06
1.1955467e-07
-0.0089487373
3.911555e-06
2.17148e-07
-0.0089489088
3.9115157e-06
2.2380621e-07
-0.0089486695
3.9115534e-06
3.717964e-07
-0.0089494449
3.9107267e-06
4.1899859e-07
-0.0089483611
3.9114949e-06
-1.2265832e-06
-0.0089511797
3.8902662e-06
-0.0089452299
3.9101511e-06
1.0321222e-06
-0.0091414033
1.6697105e-06
1.4127159e-07
-0.0091454245
1.6876274e-06
3.0708819e-07
-0.0091436613
1.6691813e-06
3.4226312e-08
-0.0091442822
1.6700721e-06
1.209474e-07
-0.0091438758
1.6691984e-06
1.6953622e-08
-0.0091439193
1.6692582e-06
5.956793e-08
-0.0091438978
1.6692078e-06
1.0058765e-08
-0.0091438519
1.6692123e-06
1.8975687e-08
-0.0091438812
1.6692094e-06
-1.439383e-12
-0.00914386
1.6692095e-06
-1.8978559e-08
-0.00914386
1.6692095e-06
-1.0061163e-08
-0.0091438812
1.6692093e-06
-5.9569599e-08
-0.0091438519
1.6692123e-06
-1.695475e-08
-0.0091438978
1.6692078e-06
-1.2094754e-07
-0.0091439193
1.669258e-06
-3.4226239e-08
-0.0091438758
1.6691984e-06
-3.0708834e-07
-0.0091442822
1.670072e-06
-1.4127196e-07
-0.0091436612
1.6691812e-06
-1.0321228e-06
-0.0091454245
1.6876274e-06
-0.0091414033
1.6697109e-06
2.2922275e-07
-0.008933148
-4.9031205e-07
-5.8137901e-07
-0.0089361527
-4.9106494e-07
-4.0122377e-07
-0.0089353649
-4.9027911e-07
-3.9551666e-07
-0.0089358257
-4.90494e-07
-3.6311191e-07
-0.0089354368
-4.9027355e-07
-2.4204306e-07
-0.0089355614
-4.9029613e-07
-2.1164881e-07
-0.0089354434
-4.9027399e-07
-1.1510623e-07
-0.0089354545
-4.9027279e-07
-6.7667734e-08
-0.0089354309
-4.9027236e-07
1.1734497e-12
-0.0089354266
-4.9027088e-07
6.7670025e-08
-0.0089354266
-4.9027086e-07
1.1510831e-07
-0.0089354309
-4.9027246e-07
2.1165095e-07
-0.0089354545
-4.9027288e-07
2.420454e-07
-0.0089354434
-4.9027408e-07
3.6311399e-07
-0.0089355614
-4.9029623e-07
3.9551847e-07
-0.0089354368
-4.9027334e-07
4.0122491e-07
-0.0089358257
-4.9049384e-07
5.8137946e-07
-0.0089353649
-4.9027898e-07
-2.292229e-07
-0.0089361527
-4.9106473e-07
-0.008933148
-4.9031189e-07
1.2899457e-06
-0.0090649891
1.6530417e-06
4.8037398e-07
-0.0090658529
1.6546133e-06
9.1921481e-07
-0.0090663455
1.6530957e-06
2.9011508e-07
-0.009065686
1.6532207e-06
5.2728474e-07
-0.0090661855
1.6530626e-06
1.775468e-07
-0.0090657033
1.6530643e-06
2.6937803e-07
-0.00906604
1.6530561e-06
8.7635674e-08
-0.0090657808
1.6530504e-06
8.3238208e-08
-0.0090659398
1.6530528e-06
-1.7077445e-12
-0.0090658611
1.6530509e-06
-8.3241062e-08
-0.0090658611
1.6530512e-06
-8.763805e-08
-0.0090659398
1.653053e-06
-2.6937968e-07
-0.0090657808
1.6530506e-06
-1.7754778e-07
-0.00906604
1.6530564e-06
-5.272847e-07
-0.0090657033
1.6530641e-06
-2.9011404e-07
-0.0090661855
1.6530624e-06
-9.1921338e-07
-0.009065686
1.6532211e-06
-4.80373e-07
-0.0090663454
1.6530959e-06
-1.2899451e-06
-0.0090658529
1.6546134e-06
-0.0090649891
1.6530419e-06
-1.0504824e-06
-0.0093660379
-2.013772e-06
-8.309196e-07
-0.0093681965
-2.0138707e-06
-9.2327129e-07
-0.0093683609
-2.014145e-06
-6.421345e-07
-0.009368103
-2.0141155e-06
-7.0253023e-07
-0.0093682554
-2.0141351e-06
-4.3291174e-07
-0.0093681069
-2.0141185e-06
-4.259341e-07
-0.009368176
-2.0141273e-06
-2.1795485e-07
-0.0093681106
-2.0141189e-06
-1.4122817e-07
-0.0093681346
-2.0141233e-06
7.6042956e-13
-0.0093681169
-2.0141206e-06
1.4122948e-07
-0.0093681169
-2.0141206e-06
2.1795661e-07
-0.0093681346
-2.0141229e-06
4.2593603e-07
-0.0093681106
-2.014119e-06
4.3291376e-07
-0.009368176
-2.0141276e-06
7.0253222e-07
-0.0093681068
-2.0141185e-06
6.4213677e-07
-0.0093682554
-2.0141355e-06
9.2327361e-07
-0.009368103
-2.014115e-06
8.3092104e-07
-0.0093683609
-2.0141445e-06
1.050483e-06
-0.0093681965
-2.0138701e-06
-0.0093660379
-2.0137723e-06
5.108054e-06
-0.0075516566
5.1452115e-06
8.265488e-07
-0.00754435
5.1458476e-06
2.3244447e-06
-0.0075504112
5.1457612e-06
6.931517e-07
-0.0075469158
5.1457708e-06
1.1851057e-06
-0.0075492835
5.1457253e-06
4.6823332e-07
-0.007547858
5.1457535e-06
5.8952598e-07
-0.0075488158
5.1457275e-06
2.329205e-07
-0.0075482444
5.1457478e-06
1.8066118e-07
-0.0075485926
5.1457336e-06
3.6448603e-12
-0.0075484394
5.1457404e-06
-1.8065429e-07
-0.0075484394
5.1457405e-06
-2.3291457e-07
-0.0075485926
5.1457334e-06
-5.8952125e-07
-0.0075482444
5.1457473e-06
-4.6823005e-07
-0.0075488158
5.1457266e-06
-1.1851041e-06
-0.0075478581
5.1457541e-06
-6.9314954e-07
-0.0075492835
5.1457246e-06
-2.3244434e-06
-0.0075469159
5.1457714e-06
-8.265493e-07
-0.0075504113
5.145763e-06
-5.1080539e-06
-0.00754435
5.1458466e-06
-0.0075516566
5.1452112e-06
-4.9822244e-06
-0.0083296678
-5.1970963e-06
-1.1603202e-06
-0.00833129
-5.1976564e-06
-2.6250702e-06
-0.008331936
-5.1977646e-06
-1.0130616e-06
-0.0083316517
-5.1977458e-06
-1.5204658e-06
-0.008331806
-5.1977223e-06
-7.2642841e-07
-0.0083317559
-5.197759e-06
-8.3227979e-07
-0.0083317627
-5.1977258e-06
-3.7786965e-07
-0.0083317715
-5.1977557e-06
-2.682641e-07
-0.0083317542
-5.1977354e-06
-8.7103983e-13
-0.0083317619
-5.1977464e-06
2.6826257e-07
-0.0083317619
-5.1977461e-06
3.7786791e-07
-0.0083317542
-5.1977356e-06
8.3227822e-07
-0.0083317715
-5.1977553e-06
7.2642667e-07
-0.0083317627
-5.1977253e-06
1.5204635e-06
-0.0083317559
-5.1977593e-06
1.0130591e-06
-0.008331806
-5.1977218e-06
2.625067e-06
-0.0083316517
-5.1977463e-06
1.160317e-06
-0.008331936
-5.1977653e-06
4.9822224e-06
-0.00833129
-5.1976559e-06
-0.0083296678
-5.1970958e-06
1.8173547e-06
4.8212611e-06
2.0771663e-06
4.8345504e-06
1.6139984e-06
4.8268607e-06
1.5112875e-06
4.8285026e-06
1.1985064e-06
4.8279173e-06
9.7572466e-07
4.8281337e-06
7.2089946e-07
4.8279998e-06
4.7498597e-07
4.828086e-06
2.384189e-07
4.8280302e-06
-4.1436314e-13
4.8280569e-06
-2.3842022e-07
4.8280569e-06
-4.7498703e-07
4.8280302e-06
-7.2090052e-07
4.8280859e-06
-9.7572536e-07
4.8280008e-06
-1.1985066e-06
4.8281337e-06
-1.511287e-06
4.8279175e-06
-1.6139975e-06
4.8285032e-06
-2.0771655e-06
4.8268602e-06
-1.817354e-06
4.8345505e-06
4.8212609e-06
-6.5169542e-06
-0.0089243029
-3.2981741e-12
-3.5388392e-07
-0.0089367986
-3.7961997e-12
-6.216118e-07
-0.0089304727
-3.5842077e-12
-1.2756897e-07
-0.0089312246
-3.541477e-12
-1.3918633e-07
-0.0089307267
-3.405567e-12
-6.1267452e-08
-0.0089308198
-3.4479308e-12
-4.6388262e-08
-0.0089307572
-3.7269535e-12
-2.5544178e-08
-0.0089307692
-3.7616103e-12
-1.1652604e-08
-0.0089307611
-3.6929626e-12
-5.5337507e-13
-0.0089307617
-3.7588748e-12
1.1651752e-08
-0.0089307617
-3.6675586e-12
2.5543564e-08
-0.0089307611
-3.551186e-12
4.6387855e-08
-0.0089307692
-3.1436162e-12
6.1267228e-08
-0.0089307572
-3.4907723e-12
1.3918627e-07
-0.0089308198
-3.2454799e-12
1.2756888e-07
-0.0089307267
-3.8114166e-12
6.2161167e-07
-0.0089312246
-3.8389018e-12
3.5388323e-07
-0.0089304727
-3.8406414e-12
6.5169533e-06
-0.0089367986
-3.9091639e-12
-0.0089243029
-4.0094743e-12
1.7824149e-06
-0.0090168231
-4.9349013e-12
-1.3625436e-07
-0.0090256525
-5.3820053e-12
-2.2830372e-07
-0.0090211301
-5.4158562e-12
-9.2948227e-08
-0.0090221068
-5.3928025e-12
-9.2834845e-08
-0.0090214754
-5.3359688e-12
-4.5287978e-08
-0.0090216212
-5.4228756e-12
-2.7751881e-08
-0.009021529
-5.5874711e-12
-1.7899124e-08
-0.0090215414
-5.4895854e-12
-5.9274345e-09
-0.0090215344
-5.4394595e-12
-8.6036956e-13
-0.0090215326
-5.437135e-12
5.9259875e-09
-0.0090215326
-5.4096419e-12
1.7897851e-08
-0.0090215344
-5.3380797e-12
2.7750975e-08
-0.0090215414
-5.4318121e-12
4.5287367e-08
-0.009021529
-5.2781612e-12
9.2834614e-08
-0.0090216212
-5.3449084e-12
9.294812e-08
-0.0090214754
-5.4049893e-12
2.2830322e-07
-0.0090221068
-5.319261e-12
1.3625334e-07
-0.0090211301
-5.1521189e-12
-1.782416e-06
-0.0090256525
-5.2157417e-12
-0.0090168231
-4.2326168e-12
1.224429e-06
-0.008956241
-3.8323495e-12
-4.1647581e-07
-0.008962239
-4.03294e-12
-3.6943215e-07
-0.0089593756
-4.0067747e-12
-2.2379955e-07
-0.0089604592
-4.0063839e-12
-2.171442e-07
-0.0089596842
-4.0957952e-12
-1.19602e-07
-0.0089599236
-3.8477749e-12
-9.9145993e-08
-0.008959752
-4.0143798e-12
-5.2813376e-08
-0.0089597931
-3.9650572e-12
-2.8401481e-08
-0.0089597628
-3.8358383e-12
-2.0314491e-14
-0.0089597663
-3.9529723e-12
2.8401473e-08
-0.0089597663
-3.9434487e-12
5.2813475e-08
-0.0089597628
-3.8955684e-12
9.9146206e-08
-0.0089597931
-3.9283059e-12
1.1960256e-07
-0.008959752
-3.8900889e-12
2.1714499e-07
-0.0089599236
-3.9906987e-12
2.2380005e-07
-0.0089596842
-3.9210453e-12
3.694322e-07
-0.0089604592
-3.9967286e-12
4.1647519e-07
-0.0089593756
-4.0753013e-12
-1.2244298e-06
-0.008962239
-3.8551121e-12
-0.008956241
-3.6724144e-12
1.0346812e-06
-0.0091490818
-1.3642139e-12
1.3910778e-07
-0.0091531081
-1.4609078e-12
3.0498561e-07
-0.0091513419
-1.4079937e-12
3.4152358e-08
-0.0091519628
-1.347454e-12
1.2088441e-07
-0.0091515564
-1.6943551e-12
1.6955933e-08
-0.0091516
-1.3509608e-12
5.957768e-08
-0.0091515785
-1.3439423e-12
1.006082e-08
-0.0091515325
-1.336968e-12
1.8979335e-08
-0.0091515619
-1.2598476e-12
-1.511072e-12
-0.0091515406
-1.2719855e-12
-1.89822e-08
-0.0091515406
-1.3894189e-12
-1.0063249e-08
-0.0091515618
-1.1615912e-12
-5.9579315e-08
-0.0091515325
-9.9871883e-13
-1.6956973e-08
-0.0091515785
-1.1766322e-12
-1.2088454e-07
-0.0091515999
-1.3261326e-12
-3.415235e-08
-0.0091515564
-1.6072465e-12
-3.049856e-07
-0.0091519628
-1.5052425e-12
-1.3910815e-07
-0.0091513419
-1.5425243e-12
-1.0346818e-06
-0.0091531081
-1.2679381e-12
-0.0091490818
-9.5728842e-13
2.2900188e-07
-0.0089418163
-1.1119857e-12
-5.8154228e-07
-0.0089448278
-1.5984531e-12
-4.0135094e-07
-0.0089440354
-1.5163359e-12
-3.9566494e-07
-0.0089444966
-1.0012621e-12
-3.632438e-07
-0.0089441073
-1.1584309e-12
-2.4214309e-07
-0.008944232
-1.611337e-12
-2.1173275e-07
-0.0089441139
-1.422097e-12
-1.1515363e-07
-0.0089441251
-1.6238442e-12
-6.7694721e-08
-0.0089441014
-1.7671694e-12
1.0857034e-12
-0.0089440971
-1.4058229e-12
6.7696984e-08
-0.0089440971
-1.3121502e-12
1.1515556e-07
-0.0089441014
-1.649997e-12
2.1173502e-07
-0.0089441251
-1.6622677e-12
2.4214556e-07
-0.0089441139
-1.1918415e-12
3.6324574e-07
-0.008944232
-1.1906762e-12
3.9566675e-07
-0.0089441073
-1.4041913e-12
4.0135242e-07
-0.0089444966
-8.9374128e-13
5.8154263e-07
-0.0089440354
-7.0332986e-13
-2.2900262e-07
-0.0089448278
-1.4403719e-12
-0.0089418163
-1.5446789e-12
1.2907126e-06
-0.0090703651
-1.9503447e-13
4.8038177e-07
-0.0090712311
-6.823255e-13
9.1938827e-07
-0.009071723
-1.173026e-13
2.9023846e-07
-0.0090710634
-1.8835193e-13
5.2745753e-07
-0.009071563
-6.0421892e-13
1.7762839e-07
-0.0090710807
3.6737918e-13
2.6946865e-07
-0.0090714175
-7.7583624e-14
8.7673322e-08
-0.0090711582
-4.7646619e-14
8.3265208e-08
-0.0090713173
-1.5250198e-13
-1.853429e-12
-0.0090712385
2.7753917e-14
-8.326803e-08
-0.0090712385
-2.8265161e-13
-8.7675666e-08
-0.0090713173
1.2841175e-13
-2.694705e-07
-0.0090711582
2.7261444e-13
-1.7762918e-07
-0.0090714175
-1.9712631e-14
-5.2745734e-07
-0.0090710807
-3.2521878e-14
-2.902377e-07
-0.009071563
-2.856573e-13
-9.1938688e-07
-0.0090710634
-3.4458846e-13
-4.8038054e-07
-0.009071723
-2.7118327e-13
-1.290712e-06
-0.0090712311
-9.070363e-14
-0.009070365
2.4599933e-13
-1.0510772e-06
-0.0093754503
-4.894456e-13
-8.3131107e-07
-0.0093776121
-3.1201989e-13
-9.2370003e-07
-0.0093777762
-4.0222046e-13
-6.4242715e-07
-0.0093775182
-9.9400095e-13
-7.028189e-07
-0.0093776706
-8.1746267e-13
-4.3310366e-07
-0.009377522
-5.972491e-13
-4.2610129e-07
-0.0093775912
-9.746074e-14
-2.1804876e-07
-0.0093775258
-3.0209994e-13
-1.412826e-07
-0.0093775497
-1.2170015e-13
6.4467833e-13
-0.0093775321
-2.7712285e-13
1.4128398e-07
-0.0093775321
-6.5717024e-13
2.1805052e-07
-0.0093775497
2.3328963e-14
4.2610299e-07
-0.0093775258
5.423387e-14
4.3310568e-07
-0.0093775912
-6.2171128e-13
7.0282107e-07
-0.009377522
-8.7418873e-13
6.4242919e-07
-0.0093776706
-4.0655794e-13
9.2370218e-07
-0.0093775182
-3.4576407e-13
8.3131303e-07
-0.0093777762
-6.8419073e-15
1.0510778e-06
-0.0093776121
-1.321327e-14
-0.0093754503
-3.8915779e-13
5.1099581e-06
-0.0075508216
-3.1232964e-13
8.268682e-07
-0.0075435133
6.4361999e-13
2.3252758e-06
-0.0075495766
5.4431374e-15
6.9349502e-07
-0.0075460802
-6.491802e-13
1.1855388e-06
-0.0075484485
-2.3931658e-14
4.6846084e-07
-0.0075470226
-6.4568237e-13
5.8974101e-07
-0.0075479806
6.0129272e-13
2.3303115e-07
-0.0075474091
-6.6557442e-15
1.8072714e-07
-0.0075477574
-8.9877012e-13
3.7454272e-12
-0.0075476041
2.0287258e-13
-1.8072015e-07
-0.0075476041
1.7738671e-13
-2.330256e-07
-0.0075477574
-3.96327e-13
-5.897367e-07
-0.0075474091
-2.0469204e-13
-4.6845778e-07
-0.0075479806
-5.0800918e-13
-1.1855361e-06
-0.0075470226
-6.0882816e-13
-6.9349411e-07
-0.0075484485
-7.9900095e-13
-2.3252753e-06
-0.0075460802
-6.911676e-13
-8.2686705e-07
-0.0075495766
2.3759012e-13
-5.1099576e-06
-0.0075435133
9.8594803e-14
-0.0075508216
2.3371634e-13
-4.9841645e-06
-0.0083392883
-5.4894422e-13
-1.160809e-06
-0.0083409135
-6.7710903e-14
-2.6260569e-06
-0.0083415597
4.0273349e-13
-1.0135517e-06
-0.0083412753
5.8471916e-13
-1.5210433e-06
-0.0083414296
2.4791063e-13
-7.2677001e-07
-0.0083413796
2.1407391e-13
-8.3259239e-07
-0.0083413863
4.8241083e-14
-3.7804169e-07
-0.0083413951
-5.5294179e-13
-2.6836366e-07
-0.0083413778
1.6818171e-13
-1.1495239e-12
-0.0083413856
5.2153178e-13
2.683621e-07
-0.0083413856
1.7254332e-13
3.7804027e-07
-0.0083413778
1.4449838e-14
8.3259082e-07
-0.0083413951
8.9245505e-14
7.2676817e-07
-0.0083413863
-1.0189305e-13
1.521041e-06
-0.0083413796
8.0589985e-14
1.0135492e-06
-0.0083414296
-6.1869068e-14
2.6260538e-06
-0.0083412753
-2.9394683e-13
1.160806e-06
-0.0083415597
-2.737542e-14
4.9841625e-06
-0.0083409135
3.5028505e-13
-0.0083392883
4.1533975e-13
1.8068171e-06
-9.1153166e-13
2.0796984e-06
1.1606002e-12
1.6139972e-06
6.3977185e-13
1.5120964e-06
-1.7920475e-12
1.1989428e-06
-8.6398276e-13
9.7620228e-07
-1.8075469e-13
7.2118206e-07
-1.1922562e-12
4.7521801e-07
-5.2095063e-13
2.3851343e-07
3.759432e-13
-4.7852624e-13
5.7414342e-13
-2.3851473e-07
1.0070244e-12
-4.7521893e-07
1.5153866e-13
-7.2118303e-07
7.7274528e-13
-9.7620303e-07
6.0860531e-14
-1.1989433e-06
1.3540851e-13
-1.5120964e-06
-6.1466923e-13
-1.6139967e-06
-8.6574309e-13
-2.0796982e-06
-4.903114e-13
-1.8068161e-06
1.9151622e-13
-2.7086181e-13
-6.5169541e-06
-0.0089243029
1.6766555e-05
-3.5388396e-07
-0.0089367986
1.6749697e-05
-6.2161182e-07
-0.0089304727
1.6768601e-05
-1.2756891e-07
-0.0089312246
1.676804e-05
-1.3918626e-07
-0.0089307267
1.6768472e-05
-6.1267377e-08
-0.0089308198
1.6768459e-05
-4.6388212e-08
-0.0089307572
1.6768467e-05
-2.5544146e-08
-0.0089307692
1.6768475e-05
-1.1652613e-08
-0.0089307611
1.6768471e-05
-5.4893751e-13
-0.0089307617
1.6768474e-05
1.1651685e-08
-0.0089307617
1.6768475e-05
2.5543497e-08
-0.0089307611
1.6768471e-05
4.6387834e-08
-0.0089307692
1.6768475e-05
6.126718e-08
-0.0089307572
1.6768467e-05
1.3918632e-07
-0.0089308198
1.6768459e-05
1.2756891e-07
-0.0089307267
1.6768471e-05
6.2161166e-07
-0.0089312246
1.676804e-05
3.5388314e-07
-0.0089304727
1.6768601e-05
6.5169531e-06
-0.0089367986
1.6749697e-05
-0.0089243029
1.6766555e-05
1.7824149e-06
-0.0090168231
-7.1640392e-06
-1.3625444e-07
-0.0090256525
-7.1498758e-06
-2.2830372e-07
-0.0090211301
-7.1653607e-06
-9.2948199e-08
-0.0090221068
-7.1650892e-06
-9.2834883e-08
-0.0090214754
-7.1654322e-06
-4.5287933e-08
-0.0090216212
-7.1654383e-06
-2.7751889e-08
-0.009021529
-7.1654405e-06
-1.7899049e-08
-0.0090215414
-7.1654479e-06
-5.9273974e-09
-0.0090215344
-7.1654446e-06
-8.7702017e-13
-0.0090215326
-7.1654473e-06
5.9259483e-09
-0.0090215326
-7.1654471e-06
1.789783e-08
-0.0090215343
-7.1654444e-06
2.775102e-08
-0.0090215414
-7.165448e-06
4.5287297e-08
-0.009021529
-7.1654404e-06
9.2834653e-08
-0.0090216212
-7.1654381e-06
9.2948165e-08
-0.0090214754
-7.1654324e-06
2.2830322e-07
-0.0090221068
-7.1650891e-06
1.3625339e-07
-0.0090211301
-7.1653607e-06
-1.7824159e-06
-0.0090256525
-7.1498756e-06
-0.0090168231
-7.1640385e-06
1.2244292e-06
-0.008956241
-3.9101558e-06
-4.1647579e-07
-0.008962239
-3.890271e-06
-3.6943218e-07
-0.0089593756
-3.9114995e-06
-2.2379943e-07
-0.0089604592
-3.9107317e-06
-2.1714427e-07
-0.0089596842
-3.9115583e-06
-1.1960198e-07
-0.0089599236
-3.9115204e-06
-9.9145975e-08
-0.008959752
-3.9115598e-06
-5.2813235e-08
-0.0089597931
-3.9115618e-06
-2.8401393e-08
-0.0089597628
-3.9115617e-06
-3.9000398e-14
-0.0089597663
-3.9115639e-06
2.8401343e-08
-0.0089597663
-3.9115639e-06
5.2813359e-08
-0.0089597628
-3.9115617e-06
9.9146337e-08
-0.0089597931
-3.9115617e-06
1.1960251e-07
-0.008959752
-3.9115598e-06
2.1714499e-07
-0.0089599236
-3.9115203e-06
2.238e-07
-0.0089596842
-3.9115583e-06
3.6943221e-07
-0.0089604592
-3.9107315e-06
4.1647512e-07
-0.0089593756
-3.9114996e-06
-1.2244301e-06
-0.008962239
-3.8902709e-06
-0.008956241
-3.9101552e-06
1.0346812e-06
-0.0091490818
-1.6697126e-06
1.3910782e-07
-0.0091531081
-1.6876295e-06
3.0498579e-07
-0.0091513419
-1.6691836e-06
3.4152443e-08
-0.0091519628
-1.670074e-06
1.2088415e-07
-0.0091515564
-1.6692004e-06
1.6955892e-08
-0.0091516
-1.6692603e-06
5.957773e-08
-0.0091515785
-1.66921e-06
1.0060936e-08
-0.0091515325
-1.6692146e-06
1.8979427e-08
-0.0091515619
-1.6692115e-06
-1.4680621e-12
-0.0091515406
-1.6692114e-06
-1.8982285e-08
-0.0091515406
-1.6692115e-06
-1.0063311e-08
-0.0091515618
-1.6692112e-06
-5.9579423e-08
-0.0091515325
-1.6692144e-06
-1.6957047e-08
-0.0091515785
-1.6692098e-06
-1.2088448e-07
-0.0091515999
-1.6692601e-06
-3.4152379e-08
-0.0091515564
-1.6692005e-06
-3.0498567e-07
-0.0091519628
-1.6700744e-06
-1.3910813e-07
-0.0091513419
-1.6691834e-06
-1.0346818e-06
-0.009153108
-1.6876294e-06
-0.0091490818
-1.6697125e-06
2.2900241e-07
-0.0089418163
4.9031e-07
-5.8154245e-07
-0.0089448278
4.9106297e-07
-4.0135125e-07
-0.0089440354
4.9027716e-07
-3.9566463e-07
-0.0089444966
4.9049207e-07
-3.6324349e-07
-0.0089441073
4.9027156e-07
-2.4214307e-07
-0.008944232
4.9029411e-07
-2.1173278e-07
-0.0089441139
4.9027238e-07
-1.1515343e-07
-0.0089441251
4.9027099e-07
-6.769464e-08
-0.0089441014
4.902704e-07
1.201567e-12
-0.0089440971
4.9026904e-07
6.7696906e-08
-0.0089440971
4.902691e-07
1.1515549e-07
-0.0089441014
4.9027058e-07
2.1173499e-07
-0.0089441251
4.90271e-07
2.4214552e-07
-0.0089441139
4.9027247e-07
3.6324571e-07
-0.008944232
4.9029454e-07
3.956663e-07
-0.0089441073
4.9027177e-07
4.0135223e-07
-0.0089444966
4.9049209e-07
5.8154306e-07
-0.0089440354
4.902773e-07
-2.290024e-07
-0.0089448278
4.9106305e-07
-0.0089418163
4.903103e-07
1.2907127e-06
-0.0090703651
-1.6530418e-06
4.8038121e-07
-0.0090712311
-1.6546134e-06
9.1938814e-07
-0.009071723
-1.6530959e-06
2.9023879e-07
-0.0090710634
-1.6532213e-06
5.274575e-07
-0.009071563
-1.653063e-06
1.7762855e-07
-0.0090710807
-1.6530641e-06
2.6946885e-07
-0.0090714175
-1.6530564e-06
8.7673514e-08
-0.0090711582
-1.6530505e-06
8.3265098e-08
-0.0090713173
-1.6530529e-06
-1.6877831e-12
-0.0090712385
-1.653051e-06
-8.3268153e-08
-0.0090712385
-1.6530513e-06
-8.7675844e-08
-0.0090713173
-1.653053e-06
-2.6947038e-07
-0.0090711582
-1.6530505e-06
-1.7762924e-07
-0.0090714175
-1.6530563e-06
-5.2745734e-07
-0.0090710807
-1.6530645e-06
-2.9023772e-07
-0.009071563
-1.6530628e-06
-9.1938691e-07
-0.0090710634
-1.6532215e-06
-4.8038043e-07
-0.009071723
-1.6530959e-06
-1.2907119e-06
-0.0090712311
-1.6546133e-06
-0.009070365
-1.6530414e-06
-1.0510775e-06
-0.0093754503
2.0137717e-06
-8.3131105e-07
-0.0093776121
2.0138699e-06
-9.2369991e-07
-0.0093777762
2.0141445e-06
-6.4242724e-07
-0.0093775182
2.0141146e-06
-7.0281892e-07
-0.0093776706
2.0141339e-06
-4.3310398e-07
-0.009377522
2.014118e-06
-4.261007e-07
-0.0093775912
2.014127e-06
-2.180484e-07
-0.0093775258
2.0141185e-06
-1.4128292e-07
-0.0093775497
2.0141233e-06
7.3829922e-13
-0.0093775321
2.0141203e-06
1.4128383e-07
-0.0093775321
2.0141201e-06
2.180504e-07
-0.0093775497
2.0141228e-06
4.2610309e-07
-0.0093775258
2.014119e-06
4.3310558e-07
-0.0093775912
2.0141265e-06
7.0282112e-07
-0.009377522
2.0141176e-06
6.4242942e-07
-0.0093776706
2.0141351e-06
9.2370225e-07
-0.0093775182
2.014115e-06
8.3131284e-07
-0.0093777762
2.0141449e-06
1.0510778e-06
-0.0093776121
2.0138701e-06
-0.0093754503
2.0137715e-06
5.1099572e-06
-0.0075508216
-5.1452116e-06
8.2686814e-07
-0.0075435133
-5.1458474e-06
2.3252764e-06
-0.0075495766
-5.1457621e-06
6.93495e-07
-0.0075460802
-5.1457716e-06
1.185539e-06
-0.0075484485
-5.1457256e-06
4.6846098e-07
-0.0075470226
-5.1457545e-06
5.8974169e-07
-0.0075479806
-5.1457274e-06
2.3303164e-07
-0.0075474091
-5.1457475e-06
1.8072645e-07
-0.0075477574
-5.145734e-06
3.2162407e-12
-0.0075476041
-5.1457405e-06
-1.8071984e-07
-0.0075476041
-5.1457411e-06
-2.3302525e-07
-0.0075477574
-5.145734e-06
-5.8973629e-07
-0.0075474091
-5.1457476e-06
-4.6845733e-07
-0.0075479806
-5.1457276e-06
-1.1855362e-06
-0.0075470226
-5.1457546e-06
-6.9349412e-07
-0.0075484485
-5.1457258e-06
-2.3252764e-06
-0.0075460802
-5.1457715e-06
-8.2686821e-07
-0.0075495766
-5.1457621e-06
-5.1099578e-06
-0.0075435133
-5.1458475e-06
-0.0075508216
-5.1452116e-06
-4.9841646e-06
-0.0083392883
5.1970957e-06
-1.1608089e-06
-0.0083409135
5.197656e-06
-2.6260566e-06
-0.0083415597
5.1977652e-06
-1.0135518e-06
-0.0083412753
5.1977466e-06
-1.5210433e-06
-0.0083414296
5.1977227e-06
-7.2677012e-07
-0.0083413796
5.1977596e-06
-8.3259247e-07
-0.0083413863
5.1977258e-06
-3.7804177e-07
-0.0083413951
5.1977554e-06
-2.6836355e-07
-0.0083413778
5.1977353e-06
-9.0891109e-13
-0.0083413856
5.1977468e-06
2.6836206e-07
-0.0083413856
5.1977465e-06
3.7804031e-07
-0.0083413778
5.1977354e-06
8.3259084e-07
-0.0083413951
5.1977555e-06
7.2676808e-07
-0.0083413863
5.1977253e-06
1.5210409e-06
-0.0083413796
5.1977595e-06
1.0135491e-06
-0.0083414296
5.1977221e-06
2.6260537e-06
-0.0083412753
5.1977461e-06
1.1608061e-06
-0.0083415597
5.1977648e-06
4.9841628e-06
-0.0083409135
5.1976559e-06
-0.0083392883
5.1970964e-06
1.8068154e-06
-4.8212609e-06
2.0796989e-06
-4.8345499e-06
1.613999e-06
-4.8268606e-06
1.5120964e-06
-4.8285042e-06
1.1989429e-06
-4.8279187e-06
9.7620228e-07
-4.8281336e-06
7.211822e-07
-4.828001e-06
4.7521817e-07
-4.8280865e-06
2.3851344e-07
-4.8280302e-06
-4.5366418e-13
-4.8280565e-06
-2.3851478e-07
-4.8280556e-06
-4.7521897e-07
-4.8280301e-06
-7.2118302e-07
-4.8280852e-06
-9.7620295e-07
-4.8280005e-06
-1.1989427e-06
-4.8281337e-06
-1.5120958e-06
-4.8279185e-06
-1.6139974e-06
-4.8285043e-06
-2.0796987e-06
-4.8268607e-06
-1.806816e-06
-4.8345504e-06
-4.8212612e-06
-6.5148512e-06
-0.0088912191
-3.5175091e-07
-0.0089037458
-6.1919147e-07
-0.008897383
-1.2747902e-07
-0.0088981334
-1.3908436e-07
-0.0088976369
-6.1239865e-08
-0.00889773
-4.6365766e-08
-0.0088976675
-2.5532258e-08
-0.0088976795
-1.1646565e-08
-0.0088976714
-4.8255288e-13
-0.008897672
1.1645687e-08
-0.008897672
2.5531637e-08
-0.0088976714
4.6365021e-08
-0.0088976795
6.1239624e-08
-0.0088976675
1.3908463e-07
-0.00889773
1.2747897e-07
-0.0088976369
6.191913e-07
-0.0088981334
3.5175012e-07
-0.008897383
6.5148503e-06
-0.0089037458
-0.0088912191
1.7836149e-06
-0.0089979943
-1.3826324e-07
-0.0090068222
-2.3009173e-07
-0.0090022971
-9.2960232e-08
-0.0090032734
-9.2838653e-08
-0.0090026423
-4.5267783e-08
-0.0090027881
-2.7737542e-08
-0.009002696
-1.7889596e-08
-0.0090027083
-5.9232251e-09
-0.0090027013
-8.4686096e-13
-0.0090026995
5.9217893e-09
-0.0090026995
1.7888374e-08
-0.0090027013
2.7736679e-08
-0.0090027083
4.5267104e-08
-0.0090026959
9.2838349e-08
-0.0090027881
9.2960224e-08
-0.0090026423
2.3009127e-07
-0.0090032734
1.3826229e-07
-0.0090022971
-1.7836158e-06
-0.0090068222
-0.0089979943
1.2265823e-06
-0.0089452299
-4.1899929e-07
-0.0089511797
-3.7179642e-07
-0.0089483611
-2.2380561e-07
-0.0089494449
-2.1714731e-07
-0.0089486695
-1.1955416e-07
-0.0089489088
-9.9107045e-08
-0.0089487373
-5.2790246e-08
-0.0089487783
-2.8388857e-08
-0.0089487481
-3.9046728e-14
-0.0089487516
2.8388845e-08
-0.0089487516
5.2790418e-08
-0.0089487481
9.9107407e-08
-0.0089487783
1.1955467e-07
-0.0089487373
2.1714794e-07
-0.0089489088
2.2380621e-07
-0.0089486695
3.7179645e-07
-0.0089494449
4.1899866e-07
-0.0089483611
-1.2265831e-06
-0.0089511797
-0.0089452299
1.0321222e-06
-0.0091414033
1.4127159e-07
-0.0091454245
3.0708827e-07
-0.0091436613
3.4226285e-08
-0.0091442822
1.2094736e-07
-0.0091438758
1.6953631e-08
-0.0091439193
5.9567905e-08
-0.0091438978
1.0058795e-08
-0.0091438519
1.8975777e-08
-0.0091438812
-1.4633315e-12
-0.00914386
-1.8978561e-08
-0.00914386
-1.0061142e-08
-0.0091438812
-5.9569608e-08
-0.0091438519
-1.6954768e-08
-0.0091438978
-1.209476e-07
-0.0091439193
-3.4226143e-08
-0.0091438758
-3.0708832e-07
-0.0091442822
-1.4127201e-07
-0.0091436612
-1.0321227e-06
-0.0091454245
-0.0091414033
2.2922279e-07
-0.008933148
-5.8137901e-07
-0.0089361527
-4.0122376e-07
-0.0089353649
-3.9551667e-07
-0.0089358257
-3.6311186e-07
-0.0089354368
-2.4204297e-07
-0.0089355614
-2.1164888e-07
-0.0089354434
-1.1510628e-07
-0.0089354545
-6.7667747e-08
-0.0089354309
1.216657e-12
-0.0089354266
6.7669992e-08
-0.0089354266
1.1510831e-07
-0.0089354309
2.1165108e-07
-0.0089354545
2.4204539e-07
-0.0089354434
3.6311399e-07
-0.0089355614
3.955185e-07
-0.0089354368
4.0122491e-07
-0.0089358257
5.8137952e-07
-0.0089353649
-2.2922293e-07
-0.0089361527
-0.008933148
1.2899457e-06
-0.0090649891
4.803739e-07
-0.0090658529
9.1921471e-07
-0.0090663455
2.9011514e-07
-0.009065686
5.2728489e-07
-0.0090661855
1.7754679e-07
-0.0090657033
2.6937798e-07
-0.00906604
8.7635713e-08
-0.0090657808
8.323823e-08
-0.0090659398
-1.6819241e-12
-0.0090658611
-8.3241016e-08
-0.0090658611
-8.7638008e-08
-0.0090659398
-2.6937974e-07
-0.0090657808
-1.775479e-07
-0.00906604
-5.2728476e-07
-0.0090657033
-2.90114e-07
-0.0090661855
-9.1921328e-07
-0.009065686
-4.803729e-07
-0.0090663454
-1.2899449e-06
-0.0090658529
-0.0090649891
-1.0504825e-06
-0.0093660379
-8.3091962e-07
-0.0093681965
-9.2327141e-07
-0.0093683609
-6.4213454e-07
-0.009368103
-7.0253003e-07
-0.0093682554
-4.3291168e-07
-0.0093681069
-4.2593392e-07
-0.009368176
-2.1795488e-07
-0.0093681106
-1.4122824e-07
-0.0093681346
6.3471681e-13
-0.0093681169
1.4122964e-07
-0.0093681169
2.179566e-07
-0.0093681346
4.2593576e-07
-0.0093681106
4.3291375e-07
-0.009368176
7.0253236e-07
-0.0093681068
6.42137e-07
-0.0093682554
9.2327373e-07
-0.009368103
8.3092088e-07
-0.0093683609
1.0504828e-06
-0.0093681965
-0.0093660379
5.1080539e-06
-0.0075516566
8.2654906e-07
-0.00754435
2.3244443e-06
-0.0075504112
6.9315121e-07
-0.0075469158
1.1851062e-06
-0.0075492835
4.682335e-07
-0.007547858
5.8952605e-07
-0.0075488158
2.3292051e-07
-0.0075482444
1.8066108e-07
-0.0075485926
3.5540676e-12
-0.0075484394
-1.8065436e-07
-0.0075484394
-2.3291461e-07
-0.0075485926
-5.8952133e-07
-0.0075482444
-4.6823006e-07
-0.0075488158
-1.1851034e-06
-0.0075478581
-6.9315031e-07
-0.0075492835
-2.324444e-06
-0.0075469159
-8.2654854e-07
-0.0075504113
-5.1080539e-06
-0.00754435
-0.0075516566
-4.9822242e-06
-0.0083296678
-1.1603199e-06
-0.00833129
-2.62507e-06
-0.008331936
-1.0130618e-06
-0.0083316517
-1.520466e-06
-0.008331806
-7.2642852e-07
-0.0083317559
-8.3227988e-07
-0.0083317627
-3.7786951e-07
-0.0083317715
-2.6826384e-07
-0.0083317542
-8.989964e-13
-0.0083317619
2.6826234e-07
-0.0083317619
3.7786788e-07
-0.0083317542
8.3227834e-07
-0.0083317715
7.2642664e-07
-0.0083317627
1.5204635e-06
-0.0083317559
1.0130591e-06
-0.008331806
2.6250671e-06
-0.0083316517
1.1603171e-06
-0.008331936
4.9822225e-06
-0.00833129
-0.0083296678
1.8173548e-06