/*--------------------------------*- C++ -*----------------------------------*\
  =========                 |
  \\      /  F ield         | OpenFOAM: The Open Source CFD Toolbox
   \\    /   O peration     | Website:  https://openfoam.org
    \\  /    A nd           | Version:  8
     \\/     M anipulation  |
\*---------------------------------------------------------------------------*/
FoamFile
{
    version     2.0;
    format      ascii;
    class       volVectorField;
    location    "0.5";
    object      U;
}
// * * * * * * * * * * * * * * * * * * * * * * * * * * * * * * * * * * * * * //

dimensions      [0 1 -1 0 0 0 0];

internalField   nonuniform List<vector> 
800
(
(-8.2333701e-05 0.92068643 -0.00015488335)
(4.9200477e-06 0.92075654 -0.00015484986)
(-8.7534622e-06 0.92076965 -0.00015490717)
(1.1770628e-06 0.92076911 -0.0001549054)
(-2.5541195e-06 0.92076948 -0.00015490678)
(8.0607236e-07 0.92077044 -0.00015490681)
(-1.4612703e-06 0.92076979 -0.0001549068)
(8.6351421e-07 0.92077065 -0.00015490689)
(-1.1328304e-06 0.92077018 -0.00015490685)
(9.7969199e-07 0.9207705 -0.00015490688)
(-9.7969855e-07 0.9207705 -0.00015490688)
(1.132826e-06 0.92077018 -0.00015490685)
(-8.6351717e-07 0.92077065 -0.0001549069)
(1.461268e-06 0.92076979 -0.0001549068)
(-8.0607222e-07 0.92077044 -0.00015490682)
(2.5541196e-06 0.92076948 -0.00015490678)
(-1.177063e-06 0.92076911 -0.0001549054)
(8.75346e-06 0.92076965 -0.00015490717)
(-4.920053e-06 0.92075654 -0.00015484986)
(8.2333699e-05 0.92068643 -0.00015488335)
(1.5610795e-05 -1.1159414 1.8972177e-05)
(2.4054556e-06 -1.1160789 1.8936543e-05)
(-3.6483749e-06 -1.1160659 1.89762e-05)
(1.1256896e-06 -1.1160686 1.8975523e-05)
(-1.9850763e-06 -1.1160669 1.8976387e-05)
(9.5394205e-07 -1.1160684 1.8976412e-05)
(-1.3676659e-06 -1.1160674 1.897641e-05)
(1.0465232e-06 -1.1160684 1.8976434e-05)
(-1.2061158e-06 -1.1160678 1.8976422e-05)
(1.134591e-06 -1.1160682 1.897643e-05)
(-1.1346001e-06 -1.1160682 1.8976429e-05)
(1.206109e-06 -1.1160678 1.8976422e-05)
(-1.0465286e-06 -1.1160684 1.8976434e-05)
(1.3676616e-06 -1.1160674 1.897641e-05)
(-9.5394359e-07 -1.1160684 1.8976412e-05)
(1.9850752e-06 -1.1160669 1.8976387e-05)
(-1.1256892e-06 -1.1160686 1.8975523e-05)
(3.648369e-06 -1.1160659 1.89762e-05)
(-2.40546e-06 -1.1160789 1.8936543e-05)
(-1.5610801e-05 -1.1159414 1.8972177e-05)
(1.0137851e-05 1.2613458 6.7933208e-06)
(5.1044094e-07 1.2614592 6.7494806e-06)
(-4.0380396e-06 1.2614682 6.7962339e-06)
(6.2241953e-07 1.2614661 6.7945265e-06)
(-2.48744e-06 1.2614674 6.7963589e-06)
(4.8826414e-07 1.2614684 6.7962786e-06)
(-1.4800663e-06 1.2614677 6.7963661e-06)
(5.6107619e-07 1.2614689 6.7963732e-06)
(-9.9672321e-07 1.2614682 6.7963711e-06)
(7.317121e-07 1.2614687 6.7963779e-06)
(-7.317123e-07 1.2614687 6.7963781e-06)
(9.967232e-07 1.2614682 6.7963711e-06)
(-5.6107531e-07 1.2614689 6.7963736e-06)
(1.4800682e-06 1.2614677 6.7963644e-06)
(-4.8826104e-07 1.2614684 6.7962792e-06)
(2.4874428e-06 1.2614674 6.7963581e-06)
(-6.2241706e-07 1.2614661 6.7945266e-06)
(4.0380371e-06 1.2614682 6.7962346e-06)
(-5.1044433e-07 1.2614592 6.7494805e-06)
(-1.0137855e-05 1.2613458 6.7933154e-06)
(7.9568455e-06 -1.5405869 5.1833776e-06)
(-3.260721e-07 -1.5407589 5.2179127e-06)
(1.5049298e-06 -1.5407506 5.1830875e-06)
(6.9234037e-07 -1.5407555 5.1848029e-06)
(-3.8020444e-07 -1.5407518 5.1831271e-06)
(1.2226522e-06 -1.5407546 5.1832455e-06)
(-1.0636763e-06 -1.5407526 5.1831432e-06)
(1.471991e-06 -1.5407542 5.1831537e-06)
(-1.3790956e-06 -1.5407532 5.1831459e-06)
(1.5081298e-06 -1.5407538 5.1831465e-06)
(-1.5081402e-06 -1.5407538 5.1831466e-06)
(1.3790845e-06 -1.5407532 5.1831457e-06)
(-1.4719992e-06 -1.5407542 5.1831538e-06)
(1.0636718e-06 -1.5407526 5.1831434e-06)
(-1.222657e-06 -1.5407546 5.1832474e-06)
(3.8020814e-07 -1.5407518 5.183127e-06)
(-6.9234356e-07 -1.5407555 5.1848029e-06)
(-1.5049276e-06 -1.5407506 5.183088e-06)
(3.2606699e-07 -1.5407589 5.2179143e-06)
(-7.9568446e-06 -1.5405869 5.1833769e-06)
(2.7172082e-06 1.7640215 -2.8489839e-06)
(-1.270569e-06 1.7642026 -2.8505771e-06)
(-2.4018256e-06 1.7642015 -2.8492457e-06)
(-2.8779569e-07 1.7642042 -2.8496097e-06)
(-2.1885764e-06 1.7642019 -2.8492442e-06)
(-2.2683089e-07 1.7642049 -2.8492734e-06)
(-1.2942493e-06 1.7642027 -2.849243e-06)
(-1.0536133e-07 1.7642048 -2.8492367e-06)
(-6.2122642e-07 1.7642035 -2.8492371e-06)
(1.7498608e-07 1.7642043 -2.8492336e-06)
(-1.7497833e-07 1.7642043 -2.8492334e-06)
(6.2123337e-07 1.7642035 -2.8492375e-06)
(1.0536796e-07 1.7642048 -2.8492365e-06)
(1.2942567e-06 1.7642027 -2.8492437e-06)
(2.2683832e-07 1.7642049 -2.8492706e-06)
(2.1885825e-06 1.7642019 -2.8492415e-06)
(2.8780121e-07 1.7642042 -2.8496093e-06)
(2.4018276e-06 1.7642015 -2.8492524e-06)
(1.2705701e-06 1.7642026 -2.8505771e-06)
(-2.7172101e-06 1.7640215 -2.8489844e-06)
(8.0718496e-06 -2.1347072 4.4779256e-06)
(-1.0385483e-06 -2.1349397 4.4808476e-06)
(3.8337339e-06 -2.1349329 4.4787342e-06)
(1.1130804e-06 -2.1349392 4.4789109e-06)
(6.1507244e-07 -2.1349338 4.478684e-06)
(2.1853104e-06 -2.1349382 4.4786878e-06)
(-1.1141382e-06 -2.1349347 4.4786714e-06)
(2.5268567e-06 -2.1349373 4.4786654e-06)
(-1.9941291e-06 -2.1349357 4.4786662e-06)
(2.4271737e-06 -2.1349365 4.4786639e-06)
(-2.4271827e-06 -2.1349365 4.478665e-06)
(1.9941221e-06 -2.1349357 4.4786664e-06)
(-2.5268631e-06 -2.1349373 4.4786653e-06)
(1.1141352e-06 -2.1349347 4.4786721e-06)
(-2.1853126e-06 -2.1349382 4.4786878e-06)
(-6.1507004e-07 -2.1349338 4.478683e-06)
(-1.1130768e-06 -2.1349392 4.4789118e-06)
(-3.8337298e-06 -2.1349329 4.4787348e-06)
(1.0385499e-06 -2.1349397 4.480847e-06)
(-8.0718481e-06 -2.1347072 4.4779259e-06)
(-3.9547061e-06 2.4651629 -4.5284048e-06)
(-1.0047897e-06 2.4654303 -4.5290664e-06)
(-2.9724405e-06 2.4654201 -4.5294063e-06)
(-1.3891787e-06 2.4654305 -4.5293509e-06)
(-1.6980215e-06 2.4654219 -4.5293851e-06)
(-1.6013946e-06 2.4654292 -4.5293562e-06)
(-4.9787672e-07 2.4654237 -4.5293707e-06)
(-1.4864422e-06 2.4654279 -4.5293576e-06)
(4.2282075e-07 2.4654252 -4.5293632e-06)
(-1.0776879e-06 2.4654266 -4.5293598e-06)
(1.0776913e-06 2.4654266 -4.5293594e-06)
(-4.2281778e-07 2.4654252 -4.5293631e-06)
(1.4864476e-06 2.4654279 -4.5293578e-06)
(4.9788036e-07 2.4654237 -4.5293708e-06)
(1.6014004e-06 2.4654292 -4.5293563e-06)
(1.6980252e-06 2.4654219 -4.5293856e-06)
(1.3891859e-06 2.4654305 -4.5293507e-06)
(2.9724442e-06 2.4654201 -4.5294056e-06)
(1.004793e-06 2.4654303 -4.5290658e-06)
(3.9547056e-06 2.4651629 -4.5284051e-06)
(2.1790101e-05 -2.9644828 7.4181244e-06)
(-1.4292852e-06 -2.9648108 7.4198316e-06)
(5.194964e-06 -2.9648001 7.4199027e-06)
(3.7582002e-06 -2.9648103 7.4198394e-06)
(-5.87461e-07 -2.9648014 7.4198321e-06)
(5.0624282e-06 -2.9648088 7.4198464e-06)
(-2.9207418e-06 -2.9648029 7.419824e-06)
(5.1199621e-06 -2.9648073 7.419845e-06)
(-4.0537003e-06 -2.9648043 7.4198354e-06)
(4.7234016e-06 -2.9648058 7.4198366e-06)
(-4.7233872e-06 -2.9648058 7.4198428e-06)
(4.0537137e-06 -2.9648043 7.4198279e-06)
(-5.1199508e-06 -2.9648073 7.4198449e-06)
(2.9207496e-06 -2.9648029 7.4198217e-06)
(-5.0624222e-06 -2.9648088 7.4198495e-06)
(5.8746164e-07 -2.9648014 7.4198338e-06)
(-3.7581918e-06 -2.9648103 7.4198425e-06)
(-5.1949666e-06 -2.9648001 7.4199073e-06)
(1.4292857e-06 -2.9648108 7.4198305e-06)
(-2.1790101e-05 -2.9644828 7.4181256e-06)
(-1.7844421e-05 3.4459079 -6.8599292e-06)
(8.3076614e-07 3.4463166 -6.8613907e-06)
(-5.2382769e-06 3.4462823 -6.8616384e-06)
(-3.4940283e-06 3.4463068 -6.8615595e-06)
(-3.5397277e-07 3.4462879 -6.8615722e-06)
(-4.6502684e-06 3.4463017 -6.8615968e-06)
(1.8998319e-06 3.4462913 -6.8615668e-06)
(-4.6232947e-06 3.4462985 -6.8615983e-06)
(3.1940023e-06 3.4462939 -6.8615757e-06)
(-4.068993e-06 3.4462961 -6.8615886e-06)
(4.0689901e-06 3.4462961 -6.8615878e-06)
(-3.1940048e-06 3.4462939 -6.8615757e-06)
(4.6232912e-06 3.4462985 -6.8615979e-06)
(-1.8998338e-06 3.4462913 -6.8615665e-06)
(4.650264e-06 3.4463017 -6.8615969e-06)
(3.5396939e-07 3.4462879 -6.8615718e-06)
(3.4940226e-06 3.4463068 -6.8615636e-06)
(5.2382715e-06 3.4462823 -6.8616389e-06)
(-8.3077188e-07 3.4463166 -6.8613907e-06)
(1.784442e-05 3.4459079 -6.8599291e-06)
(-1.3501665e-05 -4.1114973 -0.00011687884)
(1.8124647e-05 -4.1119871 -0.00011689035)
(-1.0916461e-05 -4.1119519 -0.00011689522)
(1.4951822e-05 -4.1119785 -0.00011689452)
(-9.7146271e-06 -4.1119574 -0.00011689456)
(1.2738143e-05 -4.1119733 -0.00011689468)
(-9.3537814e-06 -4.1119611 -0.00011689457)
(1.1174654e-05 -4.1119697 -0.00011689465)
(-9.523421e-06 -4.1119641 -0.0001168946)
(1.0124781e-05 -4.1119668 -0.00011689462)
(-1.0124782e-05 -4.1119668 -0.00011689462)
(9.5234182e-06 -4.1119641 -0.0001168946)
(-1.1174655e-05 -4.1119697 -0.00011689465)
(9.3537785e-06 -4.1119611 -0.00011689457)
(-1.2738142e-05 -4.1119733 -0.00011689468)
(9.7146256e-06 -4.1119574 -0.00011689456)
(-1.4951819e-05 -4.1119785 -0.00011689451)
(1.091646e-05 -4.1119519 -0.00011689522)
(-1.8124644e-05 -4.1119871 -0.00011689035)
(1.3501663e-05 -4.1114973 -0.00011687884)
(-8.2363679e-05 0.92099827 5.5033561e-05)
(4.9248848e-06 0.92106835 5.5099157e-05)
(-8.7827167e-06 0.92108154 5.504511e-05)
(1.1774488e-06 0.92108099 5.5046643e-05)
(-2.5555335e-06 0.92108137 5.5045477e-05)
(8.0625584e-07 0.92108233 5.5045583e-05)
(-1.4617674e-06 0.92108168 5.5045524e-05)
(8.6373584e-07 0.92108254 5.5045566e-05)
(-1.1331866e-06 0.92108206 5.5045544e-05)
(9.7997359e-07 0.92108239 5.5045559e-05)
(-9.7997995e-07 0.92108239 5.5045559e-05)
(1.1331826e-06 0.92108206 5.5045544e-05)
(-8.6373875e-07 0.92108254 5.504557e-05)
(1.461765e-06 0.92108168 5.5045522e-05)
(-8.0625555e-07 0.92108233 5.5045585e-05)
(2.555532e-06 0.92108137 5.5045475e-05)
(-1.1774483e-06 0.92108099 5.5046641e-05)
(8.7827147e-06 0.92108154 5.5045108e-05)
(-4.9248908e-06 0.92106835 5.5099157e-05)
(8.2363676e-05 0.92099827 5.5033558e-05)
(1.5597332e-05 -1.1164523 1.7498635e-05)
(2.4067298e-06 -1.1165897 1.7461739e-05)
(-3.6299515e-06 -1.116577 1.750139e-05)
(1.1259953e-06 -1.1165797 1.7500677e-05)
(-1.9852638e-06 -1.1165779 1.7501568e-05)
(9.5416977e-07 -1.1165794 1.7501573e-05)
(-1.3680936e-06 -1.1165784 1.7501586e-05)
(1.046797e-06 -1.1165794 1.75016e-05)
(-1.2064827e-06 -1.1165788 1.7501595e-05)
(1.1349115e-06 -1.1165792 1.7501599e-05)
(-1.1349203e-06 -1.1165792 1.75016e-05)
(1.2064758e-06 -1.1165788 1.7501595e-05)
(-1.0468026e-06 -1.1165794 1.75016e-05)
(1.3680892e-06 -1.1165784 1.7501587e-05)
(-9.5417118e-07 -1.1165794 1.7501574e-05)
(1.9852624e-06 -1.1165779 1.7501568e-05)
(-1.1259949e-06 -1.1165797 1.7500677e-05)
(3.6299458e-06 -1.116577 1.750139e-05)
(-2.4067342e-06 -1.1165897 1.746174e-05)
(-1.5597338e-05 -1.1164523 1.7498636e-05)
(1.011802e-05 1.2618415 1.034934e-05)
(5.1141002e-07 1.2619548 1.0305745e-05)
(-4.0170671e-06 1.261964 1.0352307e-05)
(6.2248816e-07 1.261962 1.0350634e-05)
(-2.4874559e-06 1.2619633 1.0352441e-05)
(4.8830756e-07 1.2619643 1.0352355e-05)
(-1.4805251e-06 1.2619636 1.0352441e-05)
(5.6118794e-07 1.2619647 1.0352445e-05)
(-9.9703495e-07 1.2619641 1.0352448e-05)
(7.3191117e-07 1.2619645 1.0352451e-05)
(-7.3191133e-07 1.2619645 1.0352451e-05)
(9.9703524e-07 1.2619641 1.0352447e-05)
(-5.6118742e-07 1.2619647 1.0352445e-05)
(1.4805264e-06 1.2619636 1.0352444e-05)
(-4.8830387e-07 1.2619643 1.0352355e-05)
(2.4874588e-06 1.2619633 1.0352441e-05)
(-6.224864e-07 1.261962 1.0350634e-05)
(4.0170656e-06 1.261964 1.0352307e-05)
(-5.114139e-07 1.2619548 1.0305746e-05)
(-1.0118023e-05 1.2618415 1.0349344e-05)
(7.9769728e-06 -1.5412386 1.0452907e-06)
(-3.2698561e-07 -1.5414107 1.0782495e-06)
(1.4889863e-06 -1.5414024 1.0436107e-06)
(6.9258142e-07 -1.5414073 1.0452454e-06)
(-3.81048e-07 -1.5414036 1.0436274e-06)
(1.2230303e-06 -1.5414064 1.0437333e-06)
(-1.0640353e-06 -1.5414044 1.0436446e-06)
(1.4724211e-06 -1.541406 1.0436497e-06)
(-1.3795086e-06 -1.541405 1.0436466e-06)
(1.5085692e-06 -1.5414056 1.0436457e-06)
(-1.50858e-06 -1.5414056 1.0436457e-06)
(1.3794978e-06 -1.541405 1.0436464e-06)
(-1.4724298e-06 -1.541406 1.04365e-06)
(1.0640314e-06 -1.5414044 1.0436448e-06)
(-1.223035e-06 -1.5414064 1.043731e-06)
(3.8105159e-07 -1.5414036 1.0436276e-06)
(-6.9258494e-07 -1.5414073 1.0452455e-06)
(-1.4889828e-06 -1.5414024 1.0436099e-06)
(3.2697926e-07 -1.5414107 1.0782479e-06)
(-7.9769716e-06 -1.5412386 1.0452926e-06)
(2.7162512e-06 1.7647444 1.2959387e-06)
(-1.2710542e-06 1.7649256 1.295072e-06)
(-2.4023714e-06 1.7649245 1.2963045e-06)
(-2.8808662e-07 1.7649271 1.2959714e-06)
(-2.1892373e-06 1.7649248 1.2963196e-06)
(-2.2702765e-07 1.7649278 1.2962767e-06)
(-1.2946969e-06 1.7649256 1.2963178e-06)
(-1.0545797e-07 1.7649278 1.2963163e-06)
(-6.2143574e-07 1.7649265 1.2963181e-06)
(1.7502069e-07 1.7649272 1.2963199e-06)
(-1.7501354e-07 1.7649272 1.2963199e-06)
(6.2144315e-07 1.7649265 1.2963183e-06)
(1.0546327e-07 1.7649278 1.296316e-06)
(1.2947062e-06 1.7649256 1.2963182e-06)
(2.27034e-07 1.7649278 1.2962734e-06)
(2.1892435e-06 1.7649248 1.2963175e-06)
(2.8809201e-07 1.7649271 1.2959716e-06)
(2.4023757e-06 1.7649245 1.2963114e-06)
(1.2710522e-06 1.7649256 1.2950723e-06)
(-2.7162535e-06 1.7647444 1.2959399e-06)
(8.0764963e-06 -2.1356116 8.2396763e-08)
(-1.0389476e-06 -2.1358443 8.3836619e-08)
(3.8341787e-06 -2.1358374 8.1748503e-08)
(1.1135927e-06 -2.1358437 8.1920369e-08)
(6.1525801e-07 -2.1358383 8.1708437e-08)
(2.1860751e-06 -2.1358427 8.1709626e-08)
(-1.1144386e-06 -2.1358393 8.1702842e-08)
(2.527653e-06 -2.1358419 8.1692576e-08)
(-1.9947103e-06 -2.1358402 8.169821e-08)
(2.4279023e-06 -2.1358411 8.1695022e-08)
(-2.4279121e-06 -2.1358411 8.1694786e-08)
(1.9947045e-06 -2.1358402 8.1698751e-08)
(-2.5276605e-06 -2.1358419 8.1693266e-08)
(1.1144357e-06 -2.1358393 8.170324e-08)
(-2.1860765e-06 -2.1358427 8.1709296e-08)
(-6.1525588e-07 -2.1358383 8.1708758e-08)
(-1.1135905e-06 -2.1358437 8.1920563e-08)
(-3.8341733e-06 -2.1358374 8.174859e-08)
(1.0389491e-06 -2.1358443 8.3837574e-08)
(-8.0764943e-06 -2.1356116 8.2397307e-08)
(-3.9570517e-06 2.4661942 -2.4834996e-07)
(-1.0052756e-06 2.4664618 -2.4793013e-07)
(-2.9738106e-06 2.4664516 -2.4823556e-07)
(-1.3898487e-06 2.466462 -2.4822237e-07)
(-1.6987429e-06 2.4664534 -2.4823364e-07)
(-1.6020445e-06 2.4664607 -2.4822364e-07)
(-4.9814129e-07 2.4664552 -2.4822984e-07)
(-1.4869703e-06 2.4664594 -2.4822269e-07)
(4.2290067e-07 2.4664567 -2.4822736e-07)
(-1.0780257e-06 2.4664581 -2.4822466e-07)
(1.0780287e-06 2.4664581 -2.4822512e-07)
(-4.2289716e-07 2.4664567 -2.4822674e-07)
(1.4869753e-06 2.4664594 -2.4822276e-07)
(4.9814409e-07 2.4664552 -2.4823027e-07)
(1.6020511e-06 2.4664607 -2.482238e-07)
(1.6987467e-06 2.4664534 -2.4823376e-07)
(1.3898543e-06 2.466462 -2.4822144e-07)
(2.9738154e-06 2.4664516 -2.4823476e-07)
(1.0052799e-06 2.4664618 -2.4792954e-07)
(3.9570507e-06 2.4661942 -2.4834984e-07)
(2.1798308e-05 -2.9657555 3.0429345e-06)
(-1.4297571e-06 -2.9660837 3.0425182e-06)
(5.1967957e-06 -2.966073 3.0422958e-06)
(3.7597048e-06 -2.9660832 3.0423669e-06)
(-5.8750498e-07 -2.9660743 3.0422894e-06)
(5.0641992e-06 -2.9660817 3.0423282e-06)
(-2.9215456e-06 -2.9660758 3.0423005e-06)
(5.1216196e-06 -2.9660802 3.0423187e-06)
(-4.054887e-06 -2.9660773 3.042301e-06)
(4.7248495e-06 -2.9660787 3.042313e-06)
(-4.7248348e-06 -2.9660787 3.0423067e-06)
(4.0549005e-06 -2.9660773 3.0423078e-06)
(-5.1216098e-06 -2.9660802 3.0423182e-06)
(2.9215531e-06 -2.9660758 3.0423013e-06)
(-5.0641938e-06 -2.9660817 3.0423265e-06)
(5.8751002e-07 -2.9660743 3.0422858e-06)
(-3.7597061e-06 -2.9660832 3.0423648e-06)
(-5.1967918e-06 -2.966073 3.0422944e-06)
(1.429758e-06 -2.9660837 3.0425171e-06)
(-2.1798306e-05 -2.9657555 3.0429325e-06)
(-1.7851381e-05 3.4473948 -2.1875602e-06)
(8.3097873e-07 3.4478037 -2.1870686e-06)
(-5.2402474e-06 3.4477694 -2.1870298e-06)
(-3.4954601e-06 3.4477939 -2.1870656e-06)
(-3.5430003e-07 3.447775 -2.1870191e-06)
(-4.6519264e-06 3.4477888 -2.1870547e-06)
(1.9002661e-06 3.4477784 -2.1870294e-06)
(-4.6248014e-06 3.4477856 -2.1870484e-06)
(3.1948928e-06 3.4477809 -2.1870365e-06)
(-4.0702246e-06 3.4477832 -2.1870422e-06)
(4.0702206e-06 3.4477832 -2.1870425e-06)
(-3.1948942e-06 3.4477809 -2.1870365e-06)
(4.6247977e-06 3.4477856 -2.1870481e-06)
(-1.9002678e-06 3.4477784 -2.1870291e-06)
(4.6519215e-06 3.4477888 -2.1870547e-06)
(3.5429674e-07 3.447775 -2.1870191e-06)
(3.4954543e-06 3.4477939 -2.1870626e-06)
(5.2402422e-06 3.4477694 -2.1870304e-06)
(-8.3098426e-07 3.4478037 -2.187068e-06)
(1.785138e-05 3.4473948 -2.1875595e-06)
(-1.3545289e-05 -4.1133077 0.00012331717)
(1.8138368e-05 -4.1137979 0.00012334778)
(-1.0922109e-05 -4.1137627 0.00012334156)
(1.4957455e-05 -4.1137892 0.00012334323)
(-9.7176904e-06 -4.1137682 0.00012334243)
(1.2742435e-05 -4.1137841 0.00012334286)
(-9.3565571e-06 -4.1137719 0.00012334256)
(1.1178227e-05 -4.1137805 0.00012334275)
(-9.5262559e-06 -4.1137748 0.00012334263)
(1.0127883e-05 -4.1137776 0.00012334269)
(-1.0127884e-05 -4.1137776 0.00012334269)
(9.5262533e-06 -4.1137748 0.00012334263)
(-1.1178227e-05 -4.1137805 0.00012334276)
(9.3565541e-06 -4.1137719 0.00012334256)
(-1.2742435e-05 -4.1137841 0.00012334286)
(9.7176882e-06 -4.1137682 0.00012334243)
(-1.4957453e-05 -4.1137892 0.00012334322)
(1.0922107e-05 -4.1137627 0.00012334156)
(-1.8138366e-05 -4.1137979 0.00012334777)
(1.354529e-05 -4.1133077 0.00012331717)
(-8.2363679e-05 0.92099827 -5.5033579e-05)
(4.9248848e-06 0.92106835 -5.5099179e-05)
(-8.7827171e-06 0.92108154 -5.504513e-05)
(1.1774489e-06 0.92108099 -5.5046662e-05)
(-2.5555331e-06 0.92108137 -5.5045496e-05)
(8.0625628e-07 0.92108233 -5.5045602e-05)
(-1.4617669e-06 0.92108168 -5.5045545e-05)
(8.6373609e-07 0.92108254 -5.5045587e-05)
(-1.1331866e-06 0.92108206 -5.5045565e-05)
(9.7997355e-07 0.92108239 -5.504558e-05)
(-9.7997999e-07 0.92108239 -5.504558e-05)
(1.1331818e-06 0.92108206 -5.5045564e-05)
(-8.6373876e-07 0.92108254 -5.5045588e-05)
(1.4617647e-06 0.92108168 -5.5045542e-05)
(-8.0625583e-07 0.92108233 -5.5045603e-05)
(2.5555328e-06 0.92108137 -5.5045497e-05)
(-1.1774487e-06 0.92108099 -5.5046663e-05)
(8.7827149e-06 0.92108154 -5.504513e-05)
(-4.9248919e-06 0.92106835 -5.5099179e-05)
(8.2363675e-05 0.92099827 -5.5033581e-05)
(1.5597331e-05 -1.1164523 -1.7498661e-05)
(2.4067303e-06 -1.1165897 -1.7461767e-05)
(-3.6299529e-06 -1.116577 -1.7501418e-05)
(1.1259966e-06 -1.1165797 -1.7500705e-05)
(-1.9852648e-06 -1.1165779 -1.7501596e-05)
(9.5417047e-07 -1.1165794 -1.7501601e-05)
(-1.3680939e-06 -1.1165784 -1.7501615e-05)
(1.0467974e-06 -1.1165794 -1.7501628e-05)
(-1.2064824e-06 -1.1165788 -1.7501623e-05)
(1.1349116e-06 -1.1165792 -1.7501627e-05)
(-1.1349206e-06 -1.1165792 -1.7501627e-05)
(1.2064756e-06 -1.1165788 -1.7501622e-05)
(-1.0468025e-06 -1.1165794 -1.7501628e-05)
(1.3680896e-06 -1.1165784 -1.7501614e-05)
(-9.5417221e-07 -1.1165794 -1.7501601e-05)
(1.9852638e-06 -1.1165779 -1.7501596e-05)
(-1.1259959e-06 -1.1165797 -1.7500704e-05)
(3.6299468e-06 -1.116577 -1.7501417e-05)
(-2.4067346e-06 -1.1165897 -1.7461766e-05)
(-1.5597337e-05 -1.1164523 -1.7498658e-05)
(1.011802e-05 1.2618415 -1.0349356e-05)
(5.1141227e-07 1.2619548 -1.0305762e-05)
(-4.0170692e-06 1.261964 -1.0352324e-05)
(6.224901e-07 1.261962 -1.0350651e-05)
(-2.4874568e-06 1.2619633 -1.0352458e-05)
(4.8830783e-07 1.2619643 -1.0352372e-05)
(-1.4805251e-06 1.2619636 -1.0352458e-05)
(5.6118815e-07 1.2619647 -1.0352462e-05)
(-9.9703397e-07 1.2619641 -1.0352464e-05)
(7.3191094e-07 1.2619645 -1.0352468e-05)
(-7.3191127e-07 1.2619645 -1.0352467e-05)
(9.9703397e-07 1.2619641 -1.0352464e-05)
(-5.6118702e-07 1.2619647 -1.0352461e-05)
(1.480527e-06 1.2619636 -1.035246e-05)
(-4.8830472e-07 1.2619643 -1.0352372e-05)
(2.4874596e-06 1.2619633 -1.0352458e-05)
(-6.2248761e-07 1.261962 -1.0350651e-05)
(4.0170669e-06 1.261964 -1.0352325e-05)
(-5.1141578e-07 1.2619548 -1.0305762e-05)
(-1.0118023e-05 1.2618415 -1.034936e-05)
(7.9769722e-06 -1.5412386 -1.0452961e-06)
(-3.2698438e-07 -1.5414107 -1.078255e-06)
(1.4889854e-06 -1.5414024 -1.0436162e-06)
(6.9258363e-07 -1.5414073 -1.0452507e-06)
(-3.8104944e-07 -1.5414036 -1.0436338e-06)
(1.2230298e-06 -1.5414064 -1.0437385e-06)
(-1.0640351e-06 -1.5414044 -1.0436498e-06)
(1.4724212e-06 -1.541406 -1.0436549e-06)
(-1.3795078e-06 -1.541405 -1.0436516e-06)
(1.508569e-06 -1.5414056 -1.0436505e-06)
(-1.5085796e-06 -1.5414056 -1.0436511e-06)
(1.3794968e-06 -1.541405 -1.0436509e-06)
(-1.4724294e-06 -1.541406 -1.0436541e-06)
(1.0640303e-06 -1.5414044 -1.0436494e-06)
(-1.2230346e-06 -1.5414064 -1.0437362e-06)
(3.8105158e-07 -1.5414036 -1.0436338e-06)
(-6.9258519e-07 -1.5414073 -1.0452515e-06)
(-1.488983e-06 -1.5414024 -1.0436156e-06)
(3.2697953e-07 -1.5414107 -1.0782528e-06)
(-7.9769714e-06 -1.5412386 -1.0452964e-06)
(2.7162524e-06 1.7647444 -1.2959421e-06)
(-1.271052e-06 1.7649256 -1.2950771e-06)
(-2.4023745e-06 1.7649245 -1.2963092e-06)
(-2.8808546e-07 1.7649271 -1.2959744e-06)
(-2.1892365e-06 1.7649248 -1.2963233e-06)
(-2.270265e-07 1.7649278 -1.296282e-06)
(-1.2946979e-06 1.7649256 -1.2963222e-06)
(-1.0545718e-07 1.7649278 -1.2963213e-06)
(-6.214353e-07 1.7649265 -1.2963236e-06)
(1.7502085e-07 1.7649272 -1.2963243e-06)
(-1.7501312e-07 1.7649272 -1.2963241e-06)
(6.2144235e-07 1.7649265 -1.2963234e-06)
(1.0546364e-07 1.7649278 -1.2963212e-06)
(1.2947056e-06 1.7649256 -1.2963218e-06)
(2.2703453e-07 1.7649278 -1.296277e-06)
(2.1892427e-06 1.7649248 -1.2963218e-06)
(2.880899e-07 1.7649271 -1.2959743e-06)
(2.4023766e-06 1.7649245 -1.2963135e-06)
(1.2710539e-06 1.7649256 -1.2950767e-06)
(-2.7162537e-06 1.7647444 -1.2959446e-06)
(8.0764955e-06 -2.1356116 -8.2397351e-08)
(-1.0389465e-06 -2.1358443 -8.3838551e-08)
(3.8341745e-06 -2.1358374 -8.1748846e-08)
(1.1135962e-06 -2.1358437 -8.1920947e-08)
(6.1525641e-07 -2.1358383 -8.1710148e-08)
(2.1860765e-06 -2.1358427 -8.1708585e-08)
(-1.114439e-06 -2.1358393 -8.170306e-08)
(2.5276545e-06 -2.1358419 -8.1692759e-08)
(-1.9947107e-06 -2.1358402 -8.169852e-08)
(2.4279019e-06 -2.1358411 -8.1694897e-08)
(-2.427911e-06 -2.1358411 -8.1695688e-08)
(1.9947027e-06 -2.1358402 -8.1698447e-08)
(-2.5276597e-06 -2.1358419 -8.1692478e-08)
(1.1144356e-06 -2.1358393 -8.1703279e-08)
(-2.1860769e-06 -2.1358427 -8.1709438e-08)
(-6.1525548e-07 -2.1358383 -8.1709584e-08)
(-1.1135909e-06 -2.1358437 -8.1921426e-08)
(-3.8341731e-06 -2.1358374 -8.1749327e-08)
(1.0389495e-06 -2.1358443 -8.3837804e-08)
(-8.0764945e-06 -2.1356116 -8.2396745e-08)
(-3.9570514e-06 2.4661942 2.4834887e-07)
(-1.0052771e-06 2.4664618 2.4792937e-07)
(-2.973809e-06 2.4664516 2.482346e-07)
(-1.3898496e-06 2.466462 2.4822013e-07)
(-1.6987425e-06 2.4664534 2.4823162e-07)
(-1.6020451e-06 2.4664607 2.4822232e-07)
(-4.981421e-07 2.4664552 2.4822961e-07)
(-1.4869669e-06 2.4664594 2.4822192e-07)
(4.2289908e-07 2.4664567 2.4822704e-07)
(-1.0780257e-06 2.4664581 2.482241e-07)
(1.0780292e-06 2.4664581 2.4822367e-07)
(-4.228984e-07 2.4664567 2.4822687e-07)
(1.4869761e-06 2.4664594 2.4822301e-07)
(4.9814364e-07 2.4664552 2.4822866e-07)
(1.6020512e-06 2.4664607 2.482219e-07)
(1.6987469e-06 2.4664534 2.4823294e-07)
(1.3898553e-06 2.466462 2.4822079e-07)
(2.9738146e-06 2.4664516 2.4823479e-07)
(1.0052799e-06 2.4664618 2.4792955e-07)
(3.9570506e-06 2.4661942 2.4834868e-07)
(2.1798307e-05 -2.9657555 -3.0429352e-06)
(-1.4297598e-06 -2.9660837 -3.0425169e-06)
(5.1967982e-06 -2.966073 -3.0422957e-06)
(3.7597044e-06 -2.9660832 -3.0423685e-06)
(-5.8750449e-07 -2.9660743 -3.0422894e-06)
(5.0641996e-06 -2.9660817 -3.0423295e-06)
(-2.9215455e-06 -2.9660758 -3.0422992e-06)
(5.1216223e-06 -2.9660802 -3.0423187e-06)
(-4.0548878e-06 -2.9660773 -3.0423029e-06)
(4.7248476e-06 -2.9660787 -3.0423127e-06)
(-4.724835e-06 -2.9660787 -3.0423063e-06)
(4.054902e-06 -2.9660773 -3.0423087e-06)
(-5.1216097e-06 -2.9660802 -3.0423187e-06)
(2.9215548e-06 -2.9660758 -3.0423024e-06)
(-5.0641936e-06 -2.9660817 -3.042328e-06)
(5.8750999e-07 -2.9660743 -3.0422872e-06)
(-3.7597062e-06 -2.9660832 -3.0423662e-06)
(-5.196796e-06 -2.966073 -3.0422938e-06)
(1.4297574e-06 -2.9660837 -3.0425168e-06)
(-2.1798307e-05 -2.9657555 -3.0429321e-06)
(-1.7851381e-05 3.4473948 2.1875593e-06)
(8.3097804e-07 3.4478037 2.1870684e-06)
(-5.2402462e-06 3.4477694 2.1870304e-06)
(-3.4954602e-06 3.4477939 2.1870665e-06)
(-3.5430026e-07 3.447775 2.1870197e-06)
(-4.6519263e-06 3.4477888 2.1870551e-06)
(1.9002656e-06 3.4477784 2.1870295e-06)
(-4.6248011e-06 3.4477856 2.1870475e-06)
(3.1948922e-06 3.4477809 2.1870368e-06)
(-4.0702235e-06 3.4477832 2.1870431e-06)
(4.0702204e-06 3.4477832 2.1870428e-06)
(-3.1948941e-06 3.4477809 2.1870366e-06)
(4.6247978e-06 3.4477856 2.1870483e-06)
(-1.9002679e-06 3.4477784 2.1870289e-06)
(4.6519214e-06 3.4477888 2.1870549e-06)
(3.5429651e-07 3.447775 2.187019e-06)
(3.4954544e-06 3.4477939 2.187062e-06)
(5.2402415e-06 3.4477694 2.1870303e-06)
(-8.3098309e-07 3.4478037 2.1870685e-06)
(1.785138e-05 3.4473948 2.1875602e-06)
(-1.354529e-05 -4.1133077 -0.00012331718)
(1.8138364e-05 -4.1137979 -0.00012334777)
(-1.0922103e-05 -4.1137627 -0.00012334156)
(1.4957455e-05 -4.1137892 -0.00012334323)
(-9.71769e-06 -4.1137682 -0.00012334243)
(1.2742435e-05 -4.1137841 -0.00012334286)
(-9.3565569e-06 -4.1137719 -0.00012334256)
(1.1178227e-05 -4.1137805 -0.00012334275)
(-9.5262559e-06 -4.1137748 -0.00012334263)
(1.0127883e-05 -4.1137776 -0.00012334269)
(-1.0127884e-05 -4.1137776 -0.00012334269)
(9.5262532e-06 -4.1137748 -0.00012334263)
(-1.1178227e-05 -4.1137805 -0.00012334276)
(9.3565543e-06 -4.1137719 -0.00012334256)
(-1.2742435e-05 -4.1137841 -0.00012334286)
(9.71769e-06 -4.1137682 -0.00012334243)
(-1.4957453e-05 -4.1137892 -0.00012334322)
(1.0922105e-05 -4.1137627 -0.00012334156)
(-1.8138366e-05 -4.1137979 -0.00012334777)
(1.354529e-05 -4.1133077 -0.00012331717)
(-8.2333702e-05 0.92068643 0.00015488335)
(4.9200468e-06 0.92075654 0.00015484986)
(-8.7534623e-06 0.92076965 0.00015490716)
(1.1770633e-06 0.92076911 0.0001549054)
(-2.5541205e-06 0.92076948 0.00015490677)
(8.0607293e-07 0.92077044 0.00015490681)
(-1.4612706e-06 0.92076979 0.00015490679)
(8.6351432e-07 0.92077065 0.00015490689)
(-1.1328305e-06 0.92077018 0.00015490684)
(9.7969211e-07 0.9207705 0.00015490688)
(-9.7969806e-07 0.9207705 0.00015490688)
(1.1328259e-06 0.92077018 0.00015490684)
(-8.635169e-07 0.92077065 0.00015490689)
(1.461264e-06 0.92076979 0.00015490679)
(-8.0606892e-07 0.92077044 0.00015490681)
(2.5541193e-06 0.92076948 0.00015490677)
(-1.1770627e-06 0.92076911 0.00015490539)
(8.7534597e-06 0.92076965 0.00015490716)
(-4.9200533e-06 0.92075654 0.00015484986)
(8.2333699e-05 0.92068643 0.00015488335)
(1.5610794e-05 -1.1159414 -1.8972189e-05)
(2.4054549e-06 -1.1160789 -1.8936555e-05)
(-3.6483751e-06 -1.1160659 -1.8976212e-05)
(1.12569e-06 -1.1160686 -1.8975535e-05)
(-1.9850764e-06 -1.1160669 -1.8976399e-05)
(9.5394162e-07 -1.1160684 -1.8976424e-05)
(-1.3676658e-06 -1.1160674 -1.8976422e-05)
(1.0465233e-06 -1.1160684 -1.8976446e-05)
(-1.2061159e-06 -1.1160678 -1.8976434e-05)
(1.1345909e-06 -1.1160682 -1.8976442e-05)
(-1.1345997e-06 -1.1160682 -1.8976442e-05)
(1.206109e-06 -1.1160678 -1.8976434e-05)
(-1.0465283e-06 -1.1160684 -1.8976445e-05)
(1.3676613e-06 -1.1160674 -1.8976422e-05)
(-9.5394373e-07 -1.1160684 -1.8976424e-05)
(1.9850751e-06 -1.1160669 -1.8976399e-05)
(-1.1256889e-06 -1.1160686 -1.8975535e-05)
(3.6483693e-06 -1.1160659 -1.8976212e-05)
(-2.4054585e-06 -1.1160789 -1.8936555e-05)
(-1.5610799e-05 -1.1159414 -1.8972188e-05)
(1.0137851e-05 1.2613458 -6.7933258e-06)
(5.1044067e-07 1.2614592 -6.7494859e-06)
(-4.0380397e-06 1.2614682 -6.7962392e-06)
(6.2241973e-07 1.2614661 -6.7945321e-06)
(-2.4874402e-06 1.2614674 -6.7963636e-06)
(4.8826402e-07 1.2614684 -6.7962844e-06)
(-1.4800664e-06 1.2614677 -6.7963721e-06)
(5.6107636e-07 1.2614689 -6.7963791e-06)
(-9.9672299e-07 1.2614682 -6.7963765e-06)
(7.3171196e-07 1.2614687 -6.7963832e-06)
(-7.3171228e-07 1.2614687 -6.7963833e-06)
(9.9672334e-07 1.2614682 -6.7963767e-06)
(-5.6107524e-07 1.2614689 -6.7963787e-06)
(1.4800682e-06 1.2614677 -6.7963694e-06)
(-4.8826127e-07 1.2614684 -6.796284e-06)
(2.4874427e-06 1.2614674 -6.7963639e-06)
(-6.22417e-07 1.2614661 -6.7945318e-06)
(4.0380373e-06 1.2614682 -6.7962392e-06)
(-5.104439e-07 1.2614592 -6.749486e-06)
(-1.0137854e-05 1.2613458 -6.7933199e-06)
(7.9568454e-06 -1.5405869 -5.1833795e-06)
(-3.2607231e-07 -1.5407589 -5.2179147e-06)
(1.5049301e-06 -1.5407506 -5.1830903e-06)
(6.9234047e-07 -1.5407555 -5.1848046e-06)
(-3.802047e-07 -1.5407518 -5.183128e-06)
(1.2226522e-06 -1.5407546 -5.1832479e-06)
(-1.0636763e-06 -1.5407526 -5.1831461e-06)
(1.4719908e-06 -1.5407542 -5.1831565e-06)
(-1.3790951e-06 -1.5407532 -5.1831485e-06)
(1.5081298e-06 -1.5407538 -5.1831487e-06)
(-1.5081403e-06 -1.5407538 -5.1831484e-06)
(1.3790846e-06 -1.5407532 -5.1831482e-06)
(-1.4719992e-06 -1.5407542 -5.1831565e-06)
(1.0636718e-06 -1.5407526 -5.1831458e-06)
(-1.2226571e-06 -1.5407546 -5.1832494e-06)
(3.8020775e-07 -1.5407518 -5.1831283e-06)
(-6.9234233e-07 -1.5407555 -5.1848053e-06)
(-1.5049288e-06 -1.5407506 -5.1830906e-06)
(3.2606785e-07 -1.5407589 -5.2179166e-06)
(-7.9568443e-06 -1.5405869 -5.1833787e-06)
(2.7172083e-06 1.7640215 2.8489807e-06)
(-1.2705689e-06 1.7642026 2.850576e-06)
(-2.4018256e-06 1.7642015 2.8492442e-06)
(-2.8779571e-07 1.7642042 2.8496062e-06)
(-2.1885765e-06 1.7642019 2.8492414e-06)
(-2.2683042e-07 1.7642049 2.8492724e-06)
(-1.2942493e-06 1.7642027 2.8492421e-06)
(-1.0536176e-07 1.7642048 2.8492355e-06)
(-6.2122645e-07 1.7642035 2.8492359e-06)
(1.749862e-07 1.7642043 2.8492318e-06)
(-1.7497835e-07 1.7642043 2.849232e-06)
(6.2123321e-07 1.7642035 2.8492363e-06)
(1.0536831e-07 1.7642048 2.8492355e-06)
(1.294257e-06 1.7642027 2.8492421e-06)
(2.2683802e-07 1.7642049 2.8492685e-06)
(2.1885827e-06 1.7642019 2.8492405e-06)
(2.8780114e-07 1.7642042 2.8496062e-06)
(2.4018278e-06 1.7642015 2.8492489e-06)
(1.2705702e-06 1.7642026 2.8505759e-06)
(-2.7172102e-06 1.7640215 2.8489837e-06)
(8.0718496e-06 -2.1347072 -4.4779255e-06)
(-1.0385482e-06 -2.1349397 -4.4808461e-06)
(3.8337335e-06 -2.1349329 -4.4787343e-06)
(1.1130803e-06 -2.1349392 -4.4789118e-06)
(6.1507284e-07 -2.1349338 -4.4786832e-06)
(2.1853106e-06 -2.1349382 -4.4786883e-06)
(-1.1141385e-06 -2.1349347 -4.478672e-06)
(2.5268566e-06 -2.1349373 -4.4786657e-06)