/*--------------------------------*- C++ -*----------------------------------*\
  =========                 |
  \\      /  F ield         | OpenFOAM: The Open Source CFD Toolbox
   \\    /   O peration     | Website:  https://openfoam.org
    \\  /    A nd           | Version:  8
     \\/     M anipulation  |
\*---------------------------------------------------------------------------*/
FoamFile
{
    version     2.0;
    format      ascii;
    class       surfaceScalarField;
    location    "0.4";
    object      phi;
}
// * * * * * * * * * * * * * * * * * * * * * * * * * * * * * * * * * * * * * //

dimensions      [1 0 -1 0 0 0 0];

internalField   nonuniform List<scalar> 
4780
(
-1.1965138e-08
-0.00027352324
-1.3935731e-13
-1.8059871e-09
-0.0002735434
-1.2746705e-13
-6.7182754e-11
-0.00027353625
3.7364901e-13
-2.9163087e-10
-0.00027353501
2.263775e-13
-2.3138771e-12
-0.00027353542
-2.8287829e-13
2.9302745e-10
-0.00027353543
2.7220401e-13
8.0421289e-11
-0.00027353501
9.939545e-13
1.8201616e-09
-0.00027353625
3.4458724e-13
1.1975566e-08
-0.0002735434
-1.9596941e-13
-0.00027352324
-3.763002e-14
-1.604195e-08
-0.0003294108
-1.4457618e-13
-3.5748989e-09
-0.0003294578
-1.2149762e-13
-3.4537694e-10
-0.00032944257
3.0879424e-13
-6.1249846e-10
-0.00032943851
1.8938489e-13
-1.790391e-12
-0.00032943971
-2.2744399e-13
6.1434651e-10
-0.00032943973
2.7179658e-13
3.5503369e-10
-0.00032943849
8.2118812e-13
3.5884369e-09
-0.00032944257
2.8676379e-13
1.6051348e-08
-0.0003294578
-1.7626712e-13
-0.0003294108
-3.2346109e-14
-8.9407549e-09
-0.00033510254
-1.4507443e-13
-4.1436627e-09
-0.00033516158
-1.2308551e-13
-4.6094726e-10
-0.00033514641
3.0810199e-13
-7.2371089e-10
-0.00033513906
1.8869438e-13
-1.8278274e-12
-0.00033514116
-2.3502282e-13
7.2563898e-10
-0.00033514119
2.7637515e-13
4.7056277e-10
-0.00033513903
8.3857918e-13
4.157328e-09
-0.00033514642
2.8775901e-13
8.950294e-09
-0.00033516158
-1.7794727e-13
-0.00033510253
-3.230471e-14
-6.2403339e-09
-0.00033537442
-1.4693734e-13
-4.297458e-09
-0.00033543994
-1.2464954e-13
-5.0273076e-10
-0.00033542784
3.0748398e-13
-7.6343623e-10
-0.00033541703
1.8849543e-13
-1.8359078e-12
-0.0003354201
-2.4146127e-13
7.6546905e-10
-0.00033542014
2.8536776e-13
5.1250763e-10
-0.00033541699
8.5420404e-13
4.3113267e-09
-0.00033542785
2.8873142e-13
6.2500578e-09
-0.00033543994
-1.7973977e-13
-0.00033537441
-3.2498916e-14
-5.1234619e-09
-0.00033526295
-1.5147534e-13
-4.3281555e-09
-0.00033533262
-1.2430318e-13
-5.1351198e-10
-0.00033532482
3.0830282e-13
-7.8113875e-10
-0.00033531046
1.8808392e-13
-1.8501598e-12
-0.00033531456
-2.4546573e-13
7.8323953e-10
-0.0003353146
2.9898354e-13
5.2345193e-10
-0.00033531042
8.6242986e-13
4.3422239e-09
-0.00033532483
2.9032566e-13
5.1333572e-09
-0.00033533263
-1.8132557e-13
-0.00033526295
-3.3003734e-14
-5.0319397e-09
-0.00033512979
-1.5841209e-13
-4.3250185e-09
-0.00033520336
-1.2249765e-13
-5.177242e-10
-0.00033519999
3.0940591e-13
-7.9342879e-10
-0.00033518202
1.8668685e-13
-1.8698764e-12
-0.00033518719
-2.4911437e-13
7.95575e-10
-0.00033518724
3.1626378e-13
5.2780938e-10
-0.00033518196
8.6561255e-13
4.3392805e-09
-0.00033520001
2.927268e-13
5.0419905e-09
-0.00033520337
-1.8277799e-13
-0.00033512979
-3.3675945e-14
-4.759472e-09
-0.00033499437
-1.6686758e-13
-4.3162518e-09
-0.00033507122
-1.1999993e-13
-5.1758307e-10
-0.00033507262
3.1121948e-13
-8.0459993e-10
-0.00033505092
1.8533642e-13
-1.8911507e-12
-0.00033505725
-2.517886e-13
8.0678331e-10
-0.0003350573
3.3775898e-13
5.278077e-10
-0.00033505086
8.6520348e-13
4.3307043e-09
-0.00033507265
2.950036e-13
4.7696827e-09
-0.00033507123
-1.8429486e-13
-0.00033499436
-3.4626434e-14
-4.8041269e-09
-0.00033485705
-1.7653976e-13
-4.3054898e-09
-0.0003349372
-1.1666871e-13
-5.1805578e-10
-0.00033494339
3.1168603e-13
-8.1567661e-10
-0.00033491784
1.8307742e-13
-1.9121169e-12
-0.00033492539
-2.5451404e-13
8.1789504e-10
-0.00033492545
3.623462e-13
5.2841488e-10
-0.00033491777
8.6193111e-13
4.3201323e-09
-0.00033494341
2.9711896e-13
4.8144963e-09
-0.00033493721
-1.8537496e-13
-0.00033485704
-3.5556641e-14
-4.602692e-09
-0.00033471818
-1.8768051e-13
-4.2945443e-09
-0.00033480113
-1.1251158e-13
-5.1622172e-10
-0.00033481238
3.1246399e-13
-8.2678683e-10
-0.00033478286
1.8057418e-13
-1.9316603e-12
-0.00033479171
-2.5654095e-13
8.2904054e-10
-0.00033479177
3.9076778e-13
5.2671518e-10
-0.00033478278
8.5629684e-13
4.3093772e-09
-0.00033481241
2.9857165e-13
4.6132285e-09
-0.00033480114
-1.8663452e-13
-0.00033471817
-3.6378532e-14
-4.6110872e-09
-0.00033457745
-1.9963221e-13
-4.2837048e-09
-0.00033466314
-1.078189e-13
-5.1495132e-10
-0.00033467951
3.1206822e-13
-8.3800781e-10
-0.00033464587
1.7595016e-13
-1.9494515e-12
-0.00033465611
-2.5986978e-13
8.40297e-10
-0.00033465618
4.2187568e-13
5.2557508e-10
-0.00033464578
8.4707493e-13
4.2987292e-09
-0.00033467955
3.0043702e-13
4.6217924e-09
-0.00033466316
-1.8679535e-13
-0.00033457744
-3.7541408e-14
-4.4320581e-09
-0.0003344351
-2.1303764e-13
-4.2722634e-09
-0.00033452309
-1.0242344e-13
-5.1159739e-10
-0.00033454484
3.1132458e-13
-8.4930832e-10
-0.0003345069
1.7147453e-13
-1.9646657e-12
-0.00033451863
-2.6214497e-13
8.5163379e-10
-0.0003345187
4.5623046e-13
5.2234947e-10
-0.0003345068
8.354845e-13
4.2874798e-09
-0.00033454488
3.0139046e-13
4.4429396e-09
-0.00033452311
-1.8704794e-13
-0.00033443509
-3.7945368e-14
-4.4060447e-09
-0.0003342909
-2.2712839e-13
-4.2614962e-09
-0.00033438107
-9.6223201e-14
-5.084613e-10
-0.0003344083
3.0969752e-13
-8.6072612e-10
-0.00033436587
1.6514413e-13
-1.9773152e-12
-0.0003343792
-2.6512287e-13
8.6308815e-10
-0.00033437926
4.9386007e-13
5.1933652e-10
-0.00033436576
8.210948e-13
4.2769061e-09
-0.00033440834
3.0172689e-13
4.4171052e-09
-0.00033438109
-1.868737e-13
-0.00033429089
-3.8826786e-14
-4.2400787e-09
-0.00033414503
-2.4239658e-13
-4.2498027e-09
-0.00033423697
-8.9764312e-14
-5.0333431e-10
-0.00033426991
3.0731938e-13
-8.7223322e-10
-0.0003342228
1.5990812e-13
-1.9864517e-12
-0.00033423783
-2.6673763e-13
8.7463234e-10
-0.00033423789
5.3405607e-13
5.1432853e-10
-0.00033422269
8.0393903e-13
4.2654065e-09
-0.00033426996
3.0166266e-13
4.2513251e-09
-0.000334237
-1.8710798e-13
-0.00033414502
-4.0054416e-14
-4.1855824e-09
-0.0003339973
-2.5784569e-13
-4.2390603e-09
-0.00033409086
-8.2638643e-14
-4.9809026e-10
-0.00033412963
3.040795e-13
-8.8385846e-10
-0.00033407764
1.5166906e-13
-1.9918529e-12
-0.00033409447
-2.6989835e-13
8.862947e-10
-0.00033409452
5.7633853e-13
5.0919645e-10
-0.00033407752
7.8351401e-13
4.2548588e-09
-0.00033412968
3.0149104e-13
4.1970182e-09
-0.00033409089
-1.8686242e-13
-0.0003339973
-4.1441391e-14
-4.0263724e-09
-0.00033384785
-2.7478889e-13
-4.2272365e-09
-0.00033394266
-7.5351783e-14
-4.9088184e-10
-0.00033398747
3.0078994e-13
-8.9557787e-10
-0.0003339304
1.4374797e-13
-1.9925501e-12
-0.00033394914
-2.7252268e-13
8.9805123e-10
-0.00033394918
6.1961742e-13
5.020936e-10
-0.00033393027
7.6044699e-13
4.24323e-09
-0.00033398752
3.006087e-13
4.0380037e-09
-0.0003339427
-1.8592221e-13
-0.00033384784
-4.215517e-14
-3.9476914e-09
-0.00033369654
-2.9097368e-13
-4.2164498e-09
-0.00033379244
-6.7588343e-14
-4.8322156e-10
-0.00033384339
2.9586599e-13
-9.0741377e-10
-0.00033378104
1.356078e-13
-1.9880767e-12
-0.00033380179
-2.7393019e-13
9.0992338e-10
-0.00033380183
6.642479e-13
4.9453025e-10
-0.00033378091
7.3538221e-13
4.2326393e-09
-0.00033384345
2.9905181e-13
3.9595217e-09
-0.00033379249
-1.8492331e-13
-0.00033369654
-4.3091568e-14
-3.790469e-09
-0.00033354345
-3.0809344e-13
-4.2045232e-09
-0.00033364015
-6.0760902e-14
-4.735593e-10
-0.00033369742
2.8784461e-13
-9.1934461e-10
-0.00033362957
1.2362622e-13
-1.9777915e-12
-0.00033365245
-2.7710756e-13
9.2188929e-10
-0.00033365247
7.065205e-13
4.8495552e-10
-0.00033362944
7.0639615e-13
4.2209088e-09
-0.00033369748
2.9717848e-13
3.802504e-09
-0.0003336402
-1.8310706e-13
-0.00033354345
-4.3356911e-14
-3.6905854e-09
-0.0003333885
-3.241695e-13
-4.1935804e-09
-0.00033348584
-5.2737386e-14
-4.6308757e-10
-0.00033354951
2.8115445e-13
-9.3138652e-10
-0.00033347599
1.1073641e-13
-1.96078e-12
-0.00033350108
-2.7813718e-13
9.3396537e-10
-0.00033350108
7.5008993e-13
4.7455935e-10
-0.00033347585
6.7651214e-13
4.2101623e-09
-0.00033354957
2.9382713e-13
3.7028292e-09
-0.0003334859
-1.8117149e-13
-0.00033338851
-4.3458983e-14
-3.5317675e-09
-0.00033323175
-3.4108018e-13
-4.1814931e-09
-0.0003333295
-4.5983169e-14
-4.5050209e-10
-0.00033339968
2.7184621e-13
-9.4352349e-10
-0.00033332031
9.5232698e-14
-1.9366004e-12
-0.0003333477
-2.8103717e-13
9.4613465e-10
-0.00033334769
7.9069428e-13
4.6203676e-10
-0.00033332017
6.4311404e-13
4.1982716e-09
-0.00033339975
2.9001089e-13
3.5442258e-09
-0.00033332957
-1.7881616e-13
-0.00033323176
-4.3519291e-14
-3.4127108e-09
-0.00033307313
-3.5700395e-13
-4.1702303e-09
-0.00033317118
-3.97167e-14
-4.366789e-10
-0.00033324791
2.6270771e-13
-9.5576513e-10
-0.00033316255
8.7905487e-14
-1.9040483e-12
-0.00033319232
-2.7956842e-13
9.5840704e-10
-0.00033319229
8.3090695e-13
4.4826119e-10
-0.0003331624
6.1049662e-13
4.1872055e-09
-0.00033324798
2.848051e-13
3.4253885e-09
-0.00033317126
-1.7617578e-13
-0.00033307314
-4.2353535e-14
-3.2501017e-09
-0.00033291269
-3.7174474e-13
-4.1578223e-09
-0.00033301091
-3.4118523e-14
-4.2050584e-10
-0.00033309424
2.4978194e-13
-9.6810646e-10
-0.00033300274
7.8263219e-14
-1.862743e-12
-0.00033303496
-2.80985e-13
9.7077709e-10
-0.00033303491
8.6428298e-13
4.3211839e-10
-0.0003330026
5.7416993e-13
4.174991e-09
-0.00033309431
2.7800243e-13
3.2630044e-09
-0.00033301099
-1.7271368e-13
-0.00033291272
-4.1355851e-14
-3.113636e-09
-0.00033275041
-3.8609124e-13
-4.1457936e-09
-0.00033284871
-3.0148732e-14
-4.0245721e-10
-0.00033293864
2.3551201e-13
-9.8055055e-10
-0.0003328409
7.1571304e-14
-1.8120389e-12
-0.00033287563
-2.7938228e-13
9.8324746e-10
-0.00033287556
8.8966661e-13
4.1407902e-10
-0.00033284076
5.3811765e-13
4.163144e-09
-0.00033293872
2.7114134e-13
3.1267661e-09
-0.00033284881
-1.6982338e-13
-0.00033275043
-4.0285557e-14
-2.946727e-09
-0.00033258634
-3.9847142e-13
-4.1321522e-09
-0.00033268467
-2.6643161e-14
-3.8155348e-10
-0.00033278118
2.1889775e-13
-9.9312037e-10
-0.00033267712
6.4480626e-14
-1.7509987e-12
-0.0003327144
-2.7799322e-13
9.9584193e-10
-0.00033271431
9.0206366e-13
3.9317728e-10
-0.00033267698
4.9992075e-13
4.1496746e-09
-0.00033278126
2.6141743e-13
2.9600848e-09
-0.00033268477
-1.6548148e-13
-0.00033258637
-3.7545091e-14
-2.7936594e-09
-0.00033242044
-4.0977216e-13
-4.1179393e-09
-0.00033251881
-2.4673698e-14
-3.5856764e-10
-0.00033262183
2.0118079e-13
-1.005801e-09
-0.0003325114
5.9179213e-14
-1.679144e-12
-0.00033255127
-2.7491117e-13
1.0085445e-09
-0.00033255115
8.9917592e-13
3.7023873e-10
-0.00033251126
4.594355e-13
4.1356272e-09
-0.00033262191
2.4972317e-13
2.807244e-09
-0.00033251892
-1.6140322e-13
-0.00033242049
-3.5300542e-14
-2.623555e-09
-0.00033225285
-4.1858393e-13
-4.101646e-09
-0.00033235125
-2.4488167e-14
-3.3465459e-10
-0.0003324607
1.8020441e-13
-1.0186699e-09
-0.00033234388
5.3939868e-14
-1.5958586e-12
-0.00033238636
-2.7029304e-13
1.02143e-09
-0.00033238622
8.7935231e-13
3.4637895e-10
-0.00033234375
4.1853156e-13
4.1194936e-09
-0.00033246078
2.3597623e-13
2.6373629e-09
-0.00033235138
-1.5613244e-13
-0.0003322529
-3.0183978e-14
-2.4527157e-09
-0.00033208349
-4.2582873e-13
-4.0837594e-09
-0.00033218199
-2.5923996e-14
-3.1039864e-10
-0.00033229774
1.5592374e-13
-1.0314567e-09
-0.00033217456
4.791803e-14
-1.5014678e-12
-0.00033221964
-2.6542738e-13
1.0342037e-09
-0.00033221947
8.3750305e-13
3.2213164e-10
-0.00033217442
3.7471586e-13
4.1017643e-09
-0.00033229782
2.2028727e-13
2.4667416e-09
-0.00033218212
-1.503657e-13
-0.00033208355
-2.5804033e-14
-2.2832779e-09
-0.00033191258
-4.3112074e-13
-4.0635662e-09
-0.00033201126
-3.0024085e-14
-2.8690793e-10
-0.00033213314
1.3214068e-13
-1.0440083e-09
-0.00033200367
4.3876998e-14
-1.3952724e-12
-0.00033205133
-2.5686487e-13
1.0467262e-09
-0.00033205115
7.7411102e-13
2.9859695e-10
-0.00033200354
3.2994164e-13
4.0817247e-09
-0.00033213322
2.0275327e-13
2.2975144e-09
-0.0003320114
-1.4537852e-13
-0.00033191266
-2.0398941e-14
-2.0892543e-09
-0.00033174
-4.3323501e-13
-4.0406037e-09
-0.00033183891
-3.6397025e-14
-2.6217771e-10
-0.00033196675
1.0256541e-13
-1.0557535e-09
-0.00033183109
3.8747911e-14
-1.2852822e-12
-0.00033188132
-2.4927789e-13
1.0584239e-09
-0.00033188111
6.8361681e-13
2.7377565e-10
-0.00033183097
2.8159339e-13
4.0589172e-09
-0.00033196683
1.8329028e-13
2.1036917e-09
-0.00033183906
-1.3822271e-13
-0.00033174009
-1.2985068e-14
-1.930155e-09
-0.00033156613
-4.3336412e-13
-4.0157034e-09
-0.00033166544
-4.6508977e-14
-2.3858301e-10
-0.00033179899
7.8647853e-14
-1.0669699e-09
-0.0003316573
3.394491e-14
-1.1719179e-12
-0.00033171002
-2.3796148e-13
1.0696007e-09
-0.0003317098
5.6453276e-13
2.5008331e-10
-0.00033165718
2.3061581e-13
4.0341691e-09
-0.00033179908
1.6144164e-13
1.9447868e-09
-0.00033166559
-1.3108737e-13
-0.00033156623
-4.510033e-15
-1.6983782e-09
-0.00033139067
-4.3171502e-13
-3.9862561e-09
-0.00033149036
-6.1442738e-14
-2.1099079e-10
-0.00033162946
5.9438331e-14
-1.0766042e-09
-0.00033148192
2.9544348e-14
-1.0640922e-12
-0.00033153707
-2.2586781e-13
1.0791828e-09
-0.00033153683
4.1053926e-13
2.2235578e-10
-0.0003314818
1.7500282e-13
4.0048779e-09
-0.00033162954
1.395642e-13
1.7131856e-09
-0.00033149052
-1.2180596e-13
-0.00033139079
3.6111081e-15
-1.5718531e-09
-0.00033121438
-4.2675157e-13
-3.95652e-09
-0.00033131465
-8.0054288e-14
-1.8692944e-10
-0.000331459
3.884515e-14
-1.0860967e-09
-0.00033130582
2.2634187e-14
-9.5534617e-13
-0.00033136332
-2.1178356e-13
1.0886572e-09
-0.00033136307
2.1467857e-13
1.9817523e-10
-0.00033130571
1.1526585e-13
3.9752916e-09
-0.00033145909
1.1710862e-13
1.5868431e-09
-0.00033131482
-1.1003556e-13
-0.00033121451
1.045952e-14
-1.2684809e-09
-0.0003310365
-4.2068613e-13
-3.9187603e-09
-0.00033113715
-1.0512054e-13
-1.5395731e-10
-0.00033128667
2.3513511e-14
-1.0927004e-09
-0.00033112807
1.5953068e-14
-8.5645524e-13
-0.00033118783
-1.9262784e-13
1.0952178e-09
-0.00033118756
-3.3595488e-14
1.6499118e-10
-0.00033112797
4.5813841e-14
3.9376902e-09
-0.00033128676
9.4126024e-14
1.2836011e-09
-0.00033113733
-9.8930629e-14
-0.00033103664
1.8633271e-14
-1.223627e-09
-0.00033085852
-4.1299085e-13
-3.8851355e-09
-0.00033095983
-1.3490282e-13
-1.3161151e-10
-0.00033111417
7.0438095e-15
-1.1008747e-09
-0.00033095042
-1.1889399e-15
-7.5013504e-13
-0.00033101233
-1.718078e-13
1.1034141e-09
-0.00033101205
-2.7230954e-13
1.4249778e-10
-0.00033095031
-1.3281876e-14
3.9042072e-09
-0.00033111426
7.0584373e-14
1.2389397e-09
-0.00033096002
-8.5275928e-14
-0.00033085867
2.6869674e-14
-7.7618495e-10
-0.00033067875
-4.031609e-13
-3.8361505e-09
-0.00033078013
-1.7288546e-13
-8.9659907e-11
-0.0003309394
-4.5030608e-15
-1.1029733e-09
-0.00033077072
-1.8807793e-14
-6.5913211e-13
-0.0003308347
-1.59352e-13
1.1054735e-09
-0.00033083442
-5.4592024e-13
1.0011918e-10
-0.00033077062
-6.0259601e-14
3.8553821e-09
-0.00033093949
4.7553532e-14
7.9151039e-10
-0.00033078032
-6.6375612e-14
-0.00033067892
3.8704511e-14
-9.1584607e-10
-0.00033050001
-3.8662371e-13
-3.8012151e-09
-0.00033060196
-2.2373112e-13
-7.4808808e-11
-0.00033076571
-1.0885957e-14
-1.111249e-09
-0.00033059241
-4.3868149e-14
-5.4881016e-13
-0.00033065835
-1.522422e-13
1.1138364e-09
-0.00033065807
-8.6657979e-13
8.5121035e-11
-0.00033059231
-1.3007164e-13
3.8205688e-09
-0.00033076581
2.5078483e-14
9.3146504e-10
-0.00033060215
-4.7371513e-14
-0.00033050019
5.0541582e-14
-1.8311456e-10
-0.00033031879
-3.5492116e-13
-3.7350459e-09
-0.00033041999
-2.9166653e-13
-1.9393452e-11
-0.00033058873
-6.6232513e-15
-1.1059892e-09
-0.00033041104
-6.6044374e-14
-4.6577814e-13
-0.00033047887
-1.4839902e-13
1.1085412e-09
-0.00033047859
-1.2203136e-12
2.8097002e-11
-0.00033041095
-2.0961547e-13
3.7545649e-09
-0.00033058883
2.2289024e-14
1.9803775e-10
-0.00033042019
-1.8823379e-14
-0.00033031899
6.7370249e-14
-7.0595432e-10
-0.0003301403
-3.1271955e-13
-3.7045364e-09
-0.00033024189
-3.5310603e-13
-2.2461064e-11
-0.00033041486
6.3051827e-16
-1.1182586e-09
-0.00033023317
-1.2145918e-13
-3.4708813e-13
-0.00033030276
-1.4810334e-13
1.1209816e-09
-0.00033030249
-1.6410171e-12
3.1519431e-11
-0.00033023308
-2.7804891e-13
3.7241559e-09
-0.00033041496
1.8315533e-14
7.2192493e-10
-0.00033024209
5.5764664e-15
-0.00033014051
7.9126708e-14
6.6015438e-10
-0.00032995786
-2.5167233e-13
-3.6112415e-09
-0.00033005713
-4.0625329e-13
1.1167899e-10
-0.00033023559
2.0046089e-14
-1.1001655e-09
-0.00033005007
-1.6157576e-13
-2.7620273e-13
-0.00033012141
-1.5384651e-13
1.1028093e-09
-0.00033012114
-2.0855606e-12
-9.7383794e-11
-0.00033004999
-3.5040616e-13
3.6310498e-09
-0.0003302357
2.8743198e-14
-6.4327856e-10
-0.00033005733
2.8485003e-14
-0.00032995808
9.6849586e-14
-6.9575864e-10
-0.00032978048
-1.7995274e-13
-3.5976039e-09
-0.00032988015
-4.617253e-13
3.6017375e-11
-0.00033006254
4.1062339e-14
-1.1244817e-09
-0.00032987378
-2.280445e-13
-1.4805775e-13
-0.00032994668
-1.5839538e-13
1.1274139e-09
-0.00032994643
-2.5705511e-12
-1.8657905e-11
-0.0003298737
-3.9641259e-13
3.6174815e-09
-0.00033006264
3.5310003e-14
7.1215095e-10
-0.00032988036
4.9967326e-14
-0.00032978072
1.0642792e-13
1.8192898e-09
-0.0003295964
-7.7980051e-14
-3.4603425e-09
-0.00032969149
-5.0229396e-13
2.7292196e-10
-0.00032988026
8.1704725e-14
-1.0829125e-09
-0.0003296884
-2.8071007e-13
-1.0682178e-13
-0.00032976287
-1.7311103e-13
1.0856454e-09
-0.00032976264
-3.0360606e-12
-2.600792e-10
-0.00032968833
-4.5331898e-13
3.4804269e-09
-0.00032988036
6.1007036e-14
-1.8025193e-09
-0.00032969171
7.7448316e-14
-0.00032959665
1.262298e-13
-1.0426542e-09
-0.00032942042
4.2370707e-15
-3.4859234e-09
-0.00032951675
-5.5030676e-13
6.9948848e-11
-0.00032970868
1.2661297e-13
-1.1341982e-09
-0.00032951471
-3.5756656e-13
3.9484837e-14
-0.00032959043
-1.7911157e-13
1.137383e-09
-0.00032959023
-3.516429e-12
-5.6295052e-11
-0.00032951464
-4.5722334e-13
3.5060386e-09
-0.00032970879
7.7464139e-14
1.0594217e-09
-0.00032951697
1.0153641e-13
-0.00032942069
1.3014709e-13
3.4769676e-09
-0.00032923343
7.4894537e-14
-3.2765796e-09
-0.00032932227
-5.6434983e-13
4.7899736e-10
-0.00032952171
1.9138537e-13
-1.0505118e-09
-0.00032932574
-4.2394476e-13
3.9044942e-14
-0.00032940272
-2.0438093e-13
1.0532899e-09
-0.00032940256
-3.9295919e-12
-4.6678841e-10
-0.00032932567
-4.8292303e-13
3.2969185e-09
-0.00032952181
1.2766551e-13
-3.4600663e-09
-0.00032932249
1.348731e-13
-0.00032923371
1.5245222e-13
-1.9148316e-09
-0.0003290582
1.382746e-13
-3.3811777e-09
-0.00032915067
-5.995522e-13
3.9785695e-11
-0.00032935156
2.6377744e-13
-1.1536252e-09
-0.00032915516
-5.1404837e-13
1.9645357e-13
-0.00032923283
-2.1099639e-13
1.1570996e-09
-0.00032923272
-4.3261396e-12
-2.6979782e-11
-0.0003291551
-4.2441695e-13
3.4014732e-09
-0.00032935166
1.5093561e-13
1.9319526e-09
-0.0003291509
1.6001174e-13
-0.00032905848
1.4894933e-13
5.8681756e-09
-0.00032886604
2.201562e-13
-3.0520586e-09
-0.00032894742
-5.6791036e-13
7.5547046e-10
-0.0003291571
3.5686088e-13
-9.9817746e-10
-0.00032896022
-5.8644935e-13
1.3418448e-13
-0.00032903863
-2.495435e-13
1.0009133e-09
-0.00032903856
-4.5980074e-12
-7.4364157e-10
-0.00032896016
-3.9930841e-13
3.0726195e-09
-0.00032915721
2.2938497e-13
-5.851102e-09
-0.00032894764
1.9517392e-13
-0.00032886634
1.733943e-13
-3.5423052e-09
-0.00032868966
2.8549885e-13
-3.3162671e-09
-0.00032877945
-5.8932918e-13
-7.6269946e-11
-0.00032898737
4.5432231e-13
-1.1906265e-09
-0.00032879237
-6.990655e-13
3.1214077e-13
-0.00032887055
-2.6197486e-13
1.1943936e-09
-0.00032887054
-4.8208398e-12
8.8619215e-11
-0.0003287923
-2.5765166e-13
3.3365488e-09
-0.00032898748
2.5244003e-13
3.5595843e-09
-0.00032877967
2.1690832e-13
-0.00032868997
1.6016069e-13
9.257682e-09
-0.0003284893
3.7266528e-13
-2.7744209e-09
-0.00032856342
-4.8997765e-13
1.1314014e-09
-0.00032878164
5.7144033e-13
-9.1980397e-10
-0.0003285879
-7.8324492e-13
1.6727681e-13
-0.00032866602
-3.1512528e-13
9.2237773e-10
-0.00032866609
-4.8620827e-12
-1.1197844e-09
-0.00032858782
-1.7399383e-13
2.7951779e-09
-0.00032878175
3.6472399e-13
-9.2404215e-09
-0.00032856364
2.4843092e-13
-0.00032848962
1.8651342e-13
-6.1831716e-09
-0.00032830881
4.3767858e-13
-3.3245941e-09
-0.00032839898
-4.9427213e-13
-3.1677164e-10
-0.0003286105
7.116033e-13
-1.2537745e-09
-0.00032842124
-9.1233516e-13
3.7214093e-13
-0.00032849787
-2.9984522e-13
1.2578398e-09
-0.00032849801
-4.8198575e-12
3.2898878e-10
-0.00032842114
1.9852345e-14
3.3447576e-09
-0.00032861061
3.7835946e-13
6.2005539e-09
-0.00032839919
2.640411e-13
-0.00032830914
1.616321e-13
1.394221e-08
-0.00032809721
5.2201869e-13
-2.4232799e-09
-0.00032816529
-3.0800752e-13
1.6394612e-09
-0.00032838931
8.3913112e-13
-8.0722464e-10
-0.00032820273
-1.0267184e-12
1.265768e-13
-0.00032827839
-3.4396052e-13
8.0951741e-10
-0.00032827862
-4.5595141e-12
-1.6279319e-09
-0.00032820261
8.5394251e-14
2.4442524e-09
-0.00032838943
5.3295547e-13
-1.3924774e-08
-0.00032816548
2.886116e-13
-0.00032809754
1.9303297e-13
-1.0133993e-08
-0.00032790925
5.8258431e-13
-3.436907e-09
-0.00032800381
-3.0059618e-13
-7.1380307e-10
-0.00032821473
1.0495638e-12
-1.3509537e-09
-0.00032803475
-1.1796926e-12
3.5710626e-13
-0.0003281076
-2.8193444e-13
1.3553417e-09
-0.0003281079
-4.1885333e-12
7.2619078e-10
-0.00032803462
2.6649352e-13
3.4569069e-09
-0.00032821485
5.399832e-13
1.0151462e-08
-0.00032800398
2.9292473e-13
-0.00032790958
1.5144021e-13
2.0256439e-08
-0.00032768476
6.3441738e-13
-1.9665681e-09
-0.00032774725
-4.6898332e-15
2.3157686e-09
-0.00032797486
1.1672783e-12
-6.4888672e-10
-0.00032779755
-1.3278108e-12
-1.6606512e-14
-0.00032786886
-3.3176035e-13
6.5078153e-10
-0.00032786924
-3.6021099e-12
-2.3042042e-09
-0.00032779739
3.4180545e-13
1.9878521e-09
-0.00032797499
7.6738308e-13
-2.0238891e-08
-0.00032774738
3.0942928e-13
-0.00032768511
1.9089537e-13
-1.5741745e-08
-0.00032748661
6.6460116e-13
-3.6863646e-09
-0.00032758817
-3.8713251e-15
-1.3032059e-09
-0.0003277957
1.4341187e-12
-1.4895483e-09
-0.00032762557
-1.5234473e-12
2.6362138e-13
-0.00032769318
-1.9405675e-13
1.4943975e-09
-0.00032769362
-2.8859106e-12
1.3160136e-09
-0.00032762539
5.9606676e-13
3.7061961e-09
-0.00032779582
7.8832316e-13
1.5759248e-08
-0.00032758826
3.084435e-13
-0.00032748695
1.3348026e-13
2.85844e-08
-0.00032725074
6.4217337e-13
-1.3543093e-09
-0.00032730428
3.9358995e-13
3.2006378e-09
-0.00032753656
1.4662628e-12
-4.2678997e-10
-0.00032736647
-1.7039396e-12
-3.7601566e-13
-0.000327433
-2.7529148e-13
4.2816866e-10
-0.00032743348
-1.9126606e-12
-3.1889186e-09
-0.00032736626
6.6342005e-13
1.3762046e-09
-0.00032753669
1.065347e-12
-2.8566875e-08
-0.00032730433
3.2062057e-13
-0.00032725109
1.8996688e-13
-2.3405434e-08
-0.00032704137
6.3034609e-13
-4.1124621e-09
-0.00032714802
3.8428564e-13
-2.1199475e-09
-0.00032735372
1.7999918e-12
-1.6765576e-09
-0.00032718895
-1.9659932e-12
1.1618273e-13
-0.00032725198
-8.4396174e-15
1.6823254e-09
-0.0003272525
-9.5426198e-13
2.1333514e-09
-0.00032718872
9.1035727e-13
4.1321637e-09
-0.00032735384
1.0591716e-12
2.3422822e-08
-0.00032714803
3.1415465e-13
-0.00032704172
1.1353903e-13
3.9376737e-08
-0.00032680007
5.2343234e-13
-4.8719266e-10
-0.0003268347
9.1811051e-13
4.3391902e-09
-0.00032707862
1.7292037e-12
-9.6049419e-11
-0.00032690818
-2.1497794e-12
-7.2871639e-13
-0.00032697214
-1.6882608e-13
9.6855767e-11
-0.00032697267
-1.6942241e-13
-4.3272221e-09
-0.00032690792
7.9158875e-13
5.1149218e-10
-0.00032707874
1.3920847e-12
-3.9359449e-08
-0.00032683467
3.232306e-13
-0.00032680043
1.8910641e-13
-3.3583788e-08
-0.00032658045
4.8299522e-13
-4.758769e-09
-0.00032668396
8.246147e-13
-3.1856644e-09
-0.00032689544
2.1723328e-12
-1.9378291e-09
-0.00032672623
-2.5111658e-12
-3.2649069e-14
-0.0003267883
2.1851465e-13
1.944723e-09
-0.00032678882
8.4780464e-13
3.1997797e-09
-0.00032672595
9.1550754e-13
4.778389e-09
-0.00032689555
1.3989721e-12
3.3600914e-08
-0.00032668388
3.2214367e-13
-0.00032658081
1.0250207e-13
5.3170303e-08
-0.00032634434
2.8941934e-13
5.5802858e-10
-0.00032634282
1.4978644e-12
5.7789088e-09
-0.00032661201
2.0128719e-12
2.4336147e-10
-0.00032642903
-2.6390752e-12
-1.0673082e-12
-0.00032649583
-8.6454757e-15
-2.4353076e-10
-0.0003264963
2.0931867e-12
-5.766662e-09
-0.00032642874
4.8463053e-13
-5.4049174e-10
-0.0003266121
1.8437303e-12
-5.3153501e-08
-0.00032634272
3.2899259e-13
-0.00032634471
1.9619066e-13
-4.6818577e-08
-0.00032611663
2.7084797e-13
-5.6645223e-09
-0.00032620359
1.2210682e-12
-4.5319177e-09
-0.00032643361
2.6059384e-12
-2.2767007e-09
-0.00032624717
-3.147183e-12
-1.2617478e-13
-0.00032631455
6.6627046e-13
2.2848529e-09
-0.00032631496
2.8073876e-12
4.5468011e-09
-0.00032624687
4.6210738e-13
5.6840213e-09
-0.00032643369
1.8940833e-12
4.6835323e-08
-0.00032620347
3.3602435e-13
-0.00032611699
1.020617e-13
7.0603122e-08
-0.00032589987
7.6581659e-14
1.7344951e-09
-0.00032584064
2.0302593e-12
7.562504e-09
-0.00032615259
2.4115258e-12
6.4770307e-10
-0.00032594423
-3.118421e-12
-1.2188651e-12
-0.00032602091
1.7157824e-13
-6.4878515e-10
-0.00032602123
4.1877517e-12
-7.5500386e-09
-0.00032594394
-1.9297901e-13
-1.7155815e-09
-0.00032615265
2.5230082e-12
-7.0586996e-08
-0.00032584053
3.4372897e-13
-0.00032590023
2.1894529e-13
-6.3745639e-08
-0.0003256658
1.1009923e-13
-6.8701165e-09
-0.00032572205
1.4285098e-12
-6.1952076e-09
-0.00032598428
3.1359663e-12
-2.6968184e-09
-0.00032576948
-3.863704e-12
-9.3065603e-14
-0.00032584887
1.1983898e-12
2.7066049e-09
-0.00032584912
3.9800767e-12
6.2108223e-09
-0.0003257692
-2.1532082e-13
6.8893236e-09
-0.00032598432
2.6045109e-12
6.3761991e-08
-0.00032572196
3.5874281e-13
-0.00032566616
1.2635176e-13
9.2418435e-08
-0.00032548426
-1.0943246e-13
3.2655626e-09
-0.00032534703
2.3097235e-12
9.7169176e-09
-0.00032571729
3.0293615e-12
1.1656765e-09
-0.00032547515
-3.5251635e-12
-1.1835448e-12
-0.00032556763
3.0930216e-13
-1.1679638e-09
-0.00032556778
5.5818907e-12
-9.7043891e-09
-0.0003254749
-1.8663069e-12
-3.2460492e-09
-0.00032571731
3.5137633e-12
-9.2403004e-08
-0.00032534698
3.5986557e-13
-0.00032548462
2.6122559e-13
-8.5114506e-08
-0.00032524341
3.2115109e-14
-8.4166367e-09
-0.00032525945
1.2721379e-12
-8.2179733e-09
-0.00032556286
3.7533491e-12
-3.2051466e-09
-0.00032531443
-4.6363992e-12
1.1446698e-13
-0.00032541027
1.782571e-12
3.2170986e-09
-0.00032541035
3.9838807e-12
8.2342101e-09
-0.0003253142
-1.549563e-12
8.4352449e-09
-0.00032556285
3.516311e-12
8.5130569e-08
-0.00032525944
3.8591042e-13
-0.00032524377
1.8359279e-13
1.1946644e-07
-0.00032511334
-2.1683955e-13
5.2143394e-09
-0.00032488281
2.0397822e-12
1.2245513e-08
-0.0003253209
3.8981384e-12
1.8069704e-09
-0.0003250434
-3.7912816e-12
-1.0625315e-12
-0.00032515421
2.5823116e-13
-1.810814e-09
-0.00032515421
5.9712837e-12
-1.2233173e-08
-0.0003250432
-4.1700753e-12
-5.1944549e-09
-0.00032532086
4.8048363e-12
-1.1945155e-07
-0.00032488286
3.5564103e-13
-0.00032511369
3.314798e-13
-1.1180462e-07
-0.00032486166
4.4096981e-14
-1.035345e-08
-0.00032483476
7.255325e-13
-1.0638083e-08
-0.00032518129
4.3073749e-12
-3.8116495e-09
-0.00032490035
-5.4448763e-12
5.9452961e-13
-0.00032501348
2.3864614e-12
3.8264422e-09
-0.00032501342
2.7871027e-12
1.0654808e-08
-0.00032490017
-2.7418051e-12
1.0371084e-08
-0.00032518123
4.4770139e-12
1.1182053e-07
-0.00032483486
4.0310193e-13
-0.000324862
2.7653217e-13
1.5272119e-07
-0.00032479927
-1.8057113e-13
7.659561e-09
-0.00032446421
1.2574e-12
1.513067e-08
-0.00032497403
4.9046547e-12
2.5842276e-09
-0.00032466463
-3.7941347e-12
-9.1790909e-13
-0.00032479287
-9.0487472e-14
-2.5900722e-09
-0.00032479275
5.4839622e-12
-1.5118841e-08
-0.00032466449
-6.8315422e-12
-7.639407e-09
-0.00032497394
6.2039033e-12
-1.5270664e-07
-0.00032446436
2.9721447e-13
-0.00032479961
4.3922377e-13
-1.4483415e-07
-0.00032452774
1.491882e-13
-1.2749976e-08
-0.0003244599
3.1168125e-13
-1.3469798e-08
-0.00032484636
4.4836737e-12
-4.531807e-09
-0.00032453756
-6.2166327e-12
1.0293472e-12
-0.00032466605
3.0588587e-12
4.5502133e-09
-0.00032466588
7.2298342e-13
1.348693e-08
-0.00032453743
-3.2070806e-12
1.2766266e-08
-0.00032484624
5.1797823e-12
1.4484992e-07
-0.00032446009
4.0429142e-13
-0.00032452809
4.0340048e-13
1.9332417e-07
-0.0003245496
-1.582668e-14
1.0682128e-08
-0.00032409857
3.8310124e-13
1.8344624e-08
-0.00032468247
5.7470517e-12
3.5107393e-09
-0.00032434595
-3.2505733e-12
-7.644441e-13
-0.00032448908
-7.3485436e-13
-3.5191748e-09
-0.00032448889
4.7146954e-12
-1.8333649e-08
-0.00032434585
-9.3635583e-12
-1.0661683e-08
-0.00032468232
7.2911094e-12
-1.9330992e-07
-0.00032409878
1.6847324e-13
-0.00032454995
5.8199644e-13
-1.8537629e-07
-0.00032424305
3.5111923e-13
-1.5699411e-08
-0.00032413731
1.2593694e-13
-1.6691256e-08
-0.00032455917
3.9621617e-12
-5.3872884e-09
-0.00032422752
-6.9207649e-12
1.4590524e-12
-0.00032436857
3.9534672e-12
5.410152e-09
-0.00032436835
-1.8168349e-12
1.6708853e-08
-0.00032422743
-2.2911874e-12
1.5713991e-08
-0.000324559
5.2342681e-12
1.8539178e-07
-0.00032413754
4.1443436e-13
-0.00032424339
5.6442104e-13
2.4264921e-07
-0.00032436677
1.2792529e-13
1.4358562e-08
-0.00032378465
-1.1223966e-12
2.185147e-08
-0.00032444704
5.9562389e-12
4.5990146e-09
-0.00032408745
-1.8538931e-12
-5.9974829e-13
-0.00032424316
-1.8028226e-12
-4.6108377e-09
-0.00032424292
4.7997931e-12
-2.1841693e-08
-0.00032408737
-1.1375809e-11
-1.4337682e-08
-0.00032444686
7.488001e-12
-2.4263545e-07
-0.00032378487
-2.8301432e-14
-0.00032436711
7.570928e-13
-2.3480729e-07
-0.00032400316
6.5963269e-13
-1.9308945e-08
-0.00032386188
4.1876914e-13
-2.0246532e-08
-0.00032431553
2.929539e-12
-6.4030449e-09
-0.00032396523
-7.8015384e-12
2.0978472e-12
-0.00032411652
5.2432257e-12
6.4313323e-09
-0.00032411626
-4.8773552e-12
2.0264872e-08
-0.00032396515
3.3290704e-13
1.9321389e-08
-0.00032431532
4.5846215e-12
2.3482227e-07
-0.00032386211
4.4242406e-13
-0.0003240035
7.3638452e-13
3.0236166e-07
-0.00032424802
2.3928336e-13
1.876317e-08
-0.00032351604
-3.1627156e-12
2.5587766e-08
-0.00032426379
5.5136775e-12
5.8611738e-09
-0.00032388503
1.1052501e-13
-3.8513485e-13