/*--------------------------------*- C++ -*----------------------------------*\
  =========                 |
  \\      /  F ield         | OpenFOAM: The Open Source CFD Toolbox
   \\    /   O peration     | Website:  https://openfoam.org
    \\  /    A nd           | Version:  8
     \\/     M anipulation  |
\*---------------------------------------------------------------------------*/
FoamFile
{
    version     2.0;
    format      ascii;
    class       volVectorField;
    location    "0.4";
    object      U;
}
// * * * * * * * * * * * * * * * * * * * * * * * * * * * * * * * * * * * * * //

dimensions      [0 1 -1 0 0 0 0];

internalField   nonuniform List<vector> 
2000
(
(-1.3370694e-05 -0.0029019367 -2.5194631e-05)
(-2.3361192e-06 -0.002901942 -2.5210051e-05)
(-3.995828e-07 -0.0029019541 -2.5209935e-05)
(3.5017749e-07 -0.0029019569 -2.5210066e-05)
(-8.2572925e-07 -0.0029019574 -2.521018e-05)
(8.2318153e-07 -0.0029019575 -2.5209956e-05)
(-3.4614271e-07 -0.0029019569 -2.5209844e-05)
(4.09547e-07 -0.0029019541 -2.5209943e-05)
(2.3459872e-06 -0.002901942 -2.5210071e-05)
(1.3375518e-05 -0.0029019367 -2.5194575e-05)
(-1.8097484e-05 -0.005445975 -3.3177811e-05)
(-4.267659e-06 -0.0054465626 -3.3202661e-05)
(-8.8984134e-07 -0.0054463477 -3.320239e-05)
(4.8189145e-07 -0.0054463087 -3.3202416e-05)
(-1.4058515e-06 -0.0054463209 -3.3202545e-05)
(1.4037481e-06 -0.0054463211 -3.3202336e-05)
(-4.7795336e-07 -0.0054463086 -3.320222e-05)
(8.9913392e-07 -0.0054463478 -3.3202396e-05)
(4.2766319e-06 -0.0054465626 -3.3202679e-05)
(1.8102117e-05 -0.005445975 -3.3177754e-05)
(-7.4355041e-06 -0.0054055676 -1.1348539e-05)
(-4.8518766e-06 -0.0054065064 -1.1361851e-05)
(-1.0463458e-06 -0.0054062244 -1.1361624e-05)
(4.9056793e-07 -0.005406131 -1.136165e-05)
(-1.5625783e-06 -0.0054061578 -1.1361781e-05)
(1.5604497e-06 -0.0054061582 -1.136157e-05)
(-4.8657492e-07 -0.0054061307 -1.1361451e-05)
(1.0556274e-06 -0.0054062245 -1.1361629e-05)
(4.8608017e-06 -0.0054065064 -1.1361869e-05)
(7.4402188e-06 -0.0054055675 -1.1348482e-05)
(-3.4881351e-06 -0.0056141186 -3.4402044e-06)
(-4.9393287e-06 -0.0056151386 -3.4458599e-06)
(-1.0891467e-06 -0.0056149167 -3.4457539e-06)
(4.8620693e-07 -0.0056147684 -3.4457882e-06)
(-1.5989679e-06 -0.0056148106 -3.445918e-06)
(1.5968598e-06 -0.0056148111 -3.4457039e-06)
(-4.8213954e-07 -0.0056147679 -3.4455863e-06)
(1.0984529e-06 -0.0056149169 -3.4457586e-06)
(4.9482436e-06 -0.0056151387 -3.445877e-06)
(3.4929025e-06 -0.0056141185 -3.4401468e-06)
(-1.9152615e-06 -0.0054449131 -4.1882184e-07)
(-4.8911667e-06 -0.0054460431 -4.2147655e-07)
(-1.0940029e-06 -0.0054458687 -4.213062e-07)
(4.8515638e-07 -0.0054456617 -4.2133597e-07)
(-1.6066598e-06 -0.0054457204 -4.2146621e-07)
(1.6045639e-06 -0.005445721 -4.2124865e-07)
(-4.8104974e-07 -0.005445661 -4.2113436e-07)
(1.1033169e-06 -0.005445869 -4.2131045e-07)
(4.9000845e-06 -0.0054460431 -4.2149375e-07)
(1.9200484e-06 -0.005444913 -4.1876319e-07)
(-1.7897603e-06 -0.0055852926 -3.496236e-07)
(-4.8028139e-06 -0.0055864673 -3.5151786e-07)
(-1.0928703e-06 -0.0055863806 -3.514147e-07)
(4.8644351e-07 -0.0055861158 -3.5144552e-07)
(-1.6086763e-06 -0.0055861915 -3.5157466e-07)
(1.6065849e-06 -0.0055861923 -3.5135256e-07)
(-4.8231912e-07 -0.005586115 -3.5124553e-07)
(1.1021795e-06 -0.0055863809 -3.5141848e-07)
(4.8117378e-06 -0.0055864674 -3.5153547e-07)
(1.7945539e-06 -0.0055852925 -3.4956307e-07)
(-1.4353116e-06 -0.0054618412 1.789983e-07)
(-4.7116109e-06 -0.005463086 1.7744721e-07)
(-1.0877489e-06 -0.0054630625 1.7760049e-07)
(4.8893856e-07 -0.0054627364 1.7757411e-07)
(-1.60993e-06 -0.0054628306 1.7744485e-07)
(1.6078404e-06 -0.0054628315 1.776724e-07)
(-4.8480431e-07 -0.0054627355 1.7777123e-07)
(1.0970472e-06 -0.0054630628 1.7759704e-07)
(4.7205412e-06 -0.0054630861 1.7742894e-07)
(1.4401087e-06 -0.0054618411 1.7906118e-07)
(-1.5065376e-06 -0.0055627556 -1.5580306e-07)
(-4.6165051e-06 -0.0055640496 -1.5733991e-07)
(-1.0844999e-06 -0.0055641156 -1.5724017e-07)
(4.9208041e-07 -0.0055637282 -1.5726588e-07)
(-1.6112673e-06 -0.0055638416 -1.5739411e-07)
(1.6091791e-06 -0.0055638426 -1.5716034e-07)
(-4.8793827e-07 -0.0055637271 -1.5707213e-07)
(1.0937837e-06 -0.005564116 -1.5724294e-07)
(4.6254424e-06 -0.0055640497 -1.5735884e-07)
(1.5113385e-06 -0.0055627555 -1.5573736e-07)
(-1.2622116e-06 -0.0054726489 1.4604599e-07)
(-4.5236555e-06 -0.005473994 1.4468299e-07)
(-1.0795196e-06 -0.0054741313 1.4481843e-07)
(4.9588721e-07 -0.0054736792 1.4479699e-07)
(-1.6128731e-06 -0.0054738134 1.446692e-07)
(1.610787e-06 -0.0054738145 1.4490986e-07)
(-4.9173724e-07 -0.0054736779 1.4498682e-07)
(1.0887861e-06 -0.0054741318 1.4481619e-07)
(4.5326005e-06 -0.0054739942 1.4466306e-07)
(1.2670167e-06 -0.0054726487 1.4611501e-07)
(-1.2916661e-06 -0.0055451712 -1.06608e-07)
(-4.4297523e-06 -0.0055465644 -1.0797716e-07)
(-1.0763383e-06 -0.0055467939 -1.0788542e-07)
(5.0028484e-07 -0.0055462757 -1.0790538e-07)
(-1.6147684e-06 -0.0055464318 -1.0803213e-07)
(1.6126856e-06 -0.005546433 -1.0778368e-07)
(-4.9612748e-07 -0.0055462742 -1.0771999e-07)
(1.085585e-06 -0.0055467944 -1.0788679e-07)
(4.4387063e-06 -0.0055465646 -1.0799793e-07)
(1.2964763e-06 -0.005545171 -1.0653563e-07)
(-1.0891559e-06 -0.0054790581 1.072929e-07)
(-4.3370955e-06 -0.0054804887 1.0608275e-07)
(-1.0718524e-06 -0.0054807971 1.0619948e-07)
(5.0536742e-07 -0.0054802092 1.0618349e-07)
(-1.6169982e-06 -0.0054803892 1.0605753e-07)
(1.6149206e-06 -0.0054803903 1.0631406e-07)
(-5.0120314e-07 -0.0054802076 1.0636382e-07)
(1.081076e-06 -0.0054807977 1.0619881e-07)
(4.3460596e-06 -0.005480489 1.0606089e-07)
(1.0939717e-06 -0.0054790579 1.0736941e-07)
(-1.0816547e-06 -0.0055310991 -7.3613999e-08)
(-4.2443753e-06 -0.0055325721 -7.4816733e-08)
(-1.0688659e-06 -0.0055329764 -7.4736318e-08)
(5.1111412e-07 -0.0055323167 -7.4750063e-08)
(-1.6195824e-06 -0.0055325219 -7.4874853e-08)
(1.6175116e-06 -0.005532523 -7.4609493e-08)
(-5.0694371e-07 -0.005532315 -7.4575096e-08)
(1.0780638e-06 -0.0055329771 -7.4736146e-08)
(4.2533506e-06 -0.0055325724 -7.4839731e-08)
(1.0864769e-06 -0.0055310989 -7.3533487e-08)
(-9.0755988e-07 -0.0054822836 7.9164295e-08)
(-4.1521912e-06 -0.0054837828 7.8108031e-08)
(-1.0648701e-06 -0.0054842734 7.8205162e-08)
(5.1760658e-07 -0.005483538 7.8195724e-08)
(-1.6225594e-06 -0.0054837704 7.8071845e-08)
(1.620498e-06 -0.0054837714 7.8345947e-08)
(-5.134313e-07 -0.0054835362 7.8364352e-08)
(1.074039e-06 -0.0054842742 7.8206208e-08)
(4.1611786e-06 -0.0054837832 7.8083673e-08)
(9.1238943e-07 -0.0054822834 7.9249118e-08)
(-8.7264703e-07 -0.0055195126 -4.9999641e-08)
(-4.0605066e-06 -0.0055210464 -5.103437e-08)
(-1.062123e-06 -0.0055216372 -5.0967585e-08)
(5.2484763e-07 -0.0055208236 -5.0974445e-08)
(-1.6259602e-06 -0.0055210846 -5.1096994e-08)
(1.6239106e-06 -0.0055210856 -5.0813709e-08)
(-5.206691e-07 -0.0055208216 -5.0812217e-08)
(1.0712597e-06 -0.0055216381 -5.096542e-08)
(4.069507e-06 -0.0055210469 -5.1060348e-08)
(8.7748499e-07 -0.0055195125 -4.9910706e-08)
(-7.1823042e-07 -0.0054831839 5.8909493e-08)
(-3.9689675e-06 -0.0054847343 5.800872e-08)
(-1.0585956e-06 -0.0054854184 5.808643e-08)
(5.329088e-07 -0.0054845224 5.8083094e-08)
(-1.6298201e-06 -0.0054848142 5.7961725e-08)
(1.6277857e-06 -0.005484815 5.8253826e-08)
(-5.2872921e-07 -0.0054845204 5.8238103e-08)
(1.0676967e-06 -0.0054854193 5.8089434e-08)
(3.9779813e-06 -0.0054847349 5.7981336e-08)
(7.2307781e-07 -0.0054831838 5.900324e-08)
(-6.627595e-07 -0.0055096913 -3.3044985e-08)
(-3.8782297e-06 -0.0055112679 -3.3911291e-08)
(-1.0561049e-06 -0.0055120563 -3.3858882e-08)
(5.4181247e-07 -0.0055110753 -3.3858932e-08)
(-1.6341807e-06 -0.0055113993 -3.3978946e-08)
(1.632165e-06 -0.0055113999 -3.3678614e-08)
(-5.3763493e-07 -0.0055110731 -3.3711548e-08)
(1.065168e-06 -0.0055120572 -3.3854959e-08)
(3.8872573e-06 -0.0055112686 -3.3940248e-08)
(6.6761711e-07 -0.0055096913 -3.2946935e-08)
(-5.2171286e-07 -0.0054823525 4.4272046e-08)
(-3.7874559e-06 -0.0054839373 4.3527118e-08)
(-1.0530068e-06 -0.0054848252 4.3585969e-08)
(5.51617e-07 -0.005483755 4.3589017e-08)
(-1.6390695e-06 -0.0054841132 4.3470949e-08)
(1.6370763e-06 -0.0054841137 4.3778794e-08)
(-5.4744512e-07 -0.0054837528 4.3728693e-08)
(1.0620284e-06 -0.0054848262 4.3591521e-08)
(3.7964978e-06 -0.0054839381 4.3497177e-08)
(5.265819e-07 -0.0054823525 4.4374824e-08)
(-4.5047562e-07 -0.005501148 -2.0818207e-08)
(-3.6976126e-06 -0.0055027517 -2.1517089e-08)
(-1.0507635e-06 -0.005503747 -2.147978e-08)
(5.6236998e-07 -0.0055025854 -2.1473317e-08)
(-1.6445435e-06 -0.0055029791 -2.1589977e-08)
(1.6425775e-06 -0.0055029794 -2.1275487e-08)
(-5.5820753e-07 -0.0055025832 -2.1342088e-08)
(1.0597399e-06 -0.005503748 -2.1473319e-08)
(3.7066692e-06 -0.0055027526 -2.1548692e-08)
(4.5535708e-07 -0.0055011481 -2.0711128e-08)
(-3.1827955e-07 -0.0054801718 3.3587709e-08)
(-3.6077003e-06 -0.0054817761 3.2998508e-08)
(-1.0480352e-06 -0.0054828763 3.3040238e-08)
(5.7409909e-07 -0.0054816187 3.3048559e-08)
(-1.6506094e-06 -0.0054820501 3.2934339e-08)
(1.6486752e-06 -0.0054820501 3.3254188e-08)
(-5.6995079e-07 -0.0054816164 3.3171376e-08)
(1.0569633e-06 -0.0054828774 3.3048079e-08)
(3.6167719e-06 -0.0054817771 3.2965854e-08)
(3.2317476e-07 -0.0054801719 3.3699046e-08)
(-2.3453697e-07 -0.0054935957 -1.1870089e-08)
(-3.5187232e-06 -0.0054952142 -1.2402332e-08)
(-1.0460072e-06 -0.0054964228 -1.2380073e-08)
(5.8690051e-07 -0.0054950691 -1.2366335e-08)
(-1.6573581e-06 -0.0054955385 -1.2479559e-08)
(1.6554613e-06 -0.0054955382 -1.2156588e-08)
(-5.8277154e-07 -0.0054950668 -1.2252782e-08)
(1.054884e-06 -0.0054964239 -1.2371263e-08)
(3.527809e-06 -0.0054952154 -1.2435793e-08)
(2.3944676e-07 -0.0054935959 -1.1754655e-08)
(-1.0807769e-07 -0.0054768237 2.557045e-08)
(-3.4297572e-06 -0.0054784353 2.5135102e-08)
(-1.0435614e-06 -0.0054797537 2.5161602e-08)
(6.0072491e-07 -0.0054782972 2.5175799e-08)
(-1.6647376e-06 -0.0054788077 2.5066009e-08)
(1.6628837e-06 -0.005478807 2.5390272e-08)
(-5.9662086e-07 -0.0054782949 2.5280464e-08)
(1.0523833e-06 -0.0054797549 2.5171731e-08)
(3.4388572e-06 -0.0054784367 2.5101302e-08)
(1.1300317e-07 -0.005476824 2.5689449e-08)
(-1.3837537e-08 -0.0054869672 -4.9936955e-09)
(-3.3416186e-06 -0.0054885936 -5.3595551e-09)
(-1.0417019e-06 -0.0054900176 -5.353922e-09)
(6.1578721e-07 -0.0054884632 -5.3308977e-09)
(-1.6729297e-06 -0.0054890128 -5.4407744e-09)
(1.6711247e-06 -0.0054890118 -5.1181892e-09)
(-6.1171453e-07 -0.0054884609 -5.2354735e-09)
(1.0504657e-06 -0.0054900188 -5.3422023e-09)
(3.350732e-06 -0.0054885951 -5.3933557e-09)
(1.8779451e-08 -0.0054869676 -4.8712073e-09)
(1.0865023e-07 -0.0054722326 1.9039158e-08)
(-3.2537285e-06 -0.0054738418 1.8752501e-08)
(-1.0394185e-06 -0.0054753815 1.8767013e-08)
(6.3183506e-07 -0.0054737167 1.8786508e-08)
(-1.6817263e-06 -0.0054743111 1.8682299e-08)
(1.6799765e-06 -0.0054743097 1.9000122e-08)
(-6.2779985e-07 -0.0054737144 1.887268e-08)
(1.0481215e-06 -0.0054753828 1.8780001e-08)
(3.2628538e-06 -0.0054738434 1.871937e-08)
(-1.0369125e-07 -0.0054722331 1.9164619e-08)
(2.1269405e-07 -0.0054815262 1.0388362e-09)
(-3.1663499e-06 -0.005483161 8.4141118e-10)
(-1.0376835e-06 -0.0054847966 8.2822833e-10)
(6.4940195e-07 -0.0054830378 8.6415081e-10)
(-1.691554e-06 -0.0054836699 7.5668688e-10)
(1.6898659e-06 -0.0054836681 1.0659174e-09)
(-6.4541226e-07 -0.0054830355 9.4030711e-10)
(1.0463228e-06 -0.0054847978 8.4225134e-10)
(3.175486e-06 -0.0054831628 8.09353e-10)
(-2.0771715e-07 -0.0054815268 1.1666591e-09)
(3.3136099e-07 -0.0054658826 1.259661e-08)
(-3.0797406e-06 -0.0054674799 1.2447135e-08)
(-1.0353894e-06 -0.005469243 1.2457194e-08)
(6.6770541e-07 -0.0054673619 1.2478688e-08)
(-1.7017959e-06 -0.0054680443 1.2381902e-08)
(1.7001762e-06 -0.0054680421 1.2678691e-08)
(-6.6376693e-07 -0.0054673596 1.2545292e-08)
(1.0439614e-06 -0.0054692443 1.2472606e-08)
(3.088886e-06 -0.0054674819 1.2417009e-08)
(-3.2636602e-07 -0.0054658835 1.2726347e-08)
(4.4640126e-07 -0.0054781518 7.9362437e-09)
(-2.992924e-06 -0.0054798066 7.9149432e-09)
(-1.033776e-06 -0.0054816413 7.8762729e-09)
(6.8811646e-07 -0.005479682 7.9326968e-09)
(-1.7135303e-06 -0.0054803956 7.8250779e-09)
(1.7119842e-06 -0.0054803931 8.1042691e-09)
(-6.8423832e-07 -0.0054796798 7.9894911e-09)
(1.0422788e-06 -0.0054816427 7.8927887e-09)
(3.0020768e-06 -0.0054798087 7.8876703e-09)
(-4.4138763e-07 -0.0054781527 8.0668614e-09)
(5.5876336e-07 -0.0054563943 4.034597e-09)
(-2.9079862e-06 -0.0054579649 3.9982166e-09)
(-1.0311921e-06 -0.0054599555 4.0202186e-09)
(7.0849148e-07 -0.0054578491 4.0334302e-09)
(-1.7250783e-06 -0.0054586243 3.9496712e-09)
(1.7236137e-06 -0.0054586215 4.2052747e-09)
(-7.0467794e-07 -0.005457847 4.0802791e-09)
(1.0396219e-06 -0.0054599568 4.0374505e-09)
(2.9171435e-06 -0.0054579672 3.9745429e-09)
(-5.537316e-07 -0.0054563955 4.1656221e-09)
(6.8950519e-07 -0.0054789621 1.8685128e-08)
(-2.8212207e-06 -0.0054806671 1.88644e-08)
(-1.0298345e-06 -0.005482674 1.8784605e-08)
(7.323424e-07 -0.005480531 1.8876751e-08)
(-1.739197e-06 -0.0054813195 1.8762816e-08)
(1.7378176e-06 -0.0054813163 1.8989371e-08)
(-7.2860491e-07 -0.0054805289 1.8913451e-08)
(1.0381911e-06 -0.0054826753 1.8802367e-08)
(2.8303801e-06 -0.0054806695 1.8845433e-08)
(-6.8445484e-07 -0.0054789634 1.8815632e-08)
(7.878783e-07 -0.0054406259 -1.0771067e-08)
(-2.7388538e-06 -0.0054421363 -1.0743987e-08)
(-1.0264771e-06 -0.0054443692 -1.0677096e-08)
(7.5408366e-07 -0.0054420222 -1.0695538e-08)
(-1.751507e-06 -0.0054428978 -1.0755676e-08)
(1.7502214e-06 -0.0054428943 -1.0565237e-08)
(-7.5042253e-07 -0.0054420203 -1.0668762e-08)
(1.0347556e-06 -0.0054443706 -1.0658656e-08)
(2.748012e-06 -0.0054421388 -1.0756919e-08)
(-7.8281117e-07 -0.0054406274 -1.0641869e-08)
(9.4628455e-07 -0.0054885921 3.9052282e-08)
(-2.6508685e-06 -0.0054904114 3.9492272e-08)
(-1.0258545e-06 -0.0054925374 3.9331519e-08)
(7.8264271e-07 -0.0054902513 3.9493845e-08)
(-1.7690218e-06 -0.0054910975 3.9358584e-08)
(1.7678316e-06 -0.0054910937 3.9506068e-08)
(-7.7907468e-07 -0.0054902493 3.9509696e-08)
(1.0340563e-06 -0.0054925387 3.9350106e-08)
(2.6600229e-06 -0.005490414 3.9486661e-08)
(-9.4119998e-07 -0.0054885938 3.9179346e-08)
(1.0124202e-06 -0.0054118944 -3.9920183e-08)
(-2.5730505e-06 -0.0054132653 -3.9932091e-08)
(-1.0207788e-06 -0.0054157855 -3.9750541e-08)
(8.0387635e-07 -0.005413161 -3.9854268e-08)
(-1.7806256e-06 -0.0054141541 -3.9867249e-08)
(1.7795406e-06 -0.0054141499 -3.9770842e-08)
(-8.0039317e-07 -0.0054131592 -3.9847845e-08)
(1.0288963e-06 -0.005415787 -3.9731323e-08)
(2.5821977e-06 -0.0054132681 -3.9929192e-08)
(-1.0073221e-06 -0.0054118964 -3.9796637e-08)
(1.2256001e-06 -0.0055166254 8.0373597e-08)
(-2.4808745e-06 -0.0055186876 8.1207646e-08)
(-1.0221347e-06 -0.0055208315 8.0877198e-08)
(8.4006518e-07 -0.0055184855 8.1181535e-08)
(-1.8038546e-06 -0.0055193532 8.099219e-08)
(1.802872e-06 -0.005519349 8.1030941e-08)
(-8.3669443e-07 -0.0055184835 8.1177078e-08)
(1.0301757e-06 -0.0055208329 8.0895355e-08)
(2.4900098e-06 -0.0055186904 8.1219558e-08)
(-1.2204861e-06 -0.0055166275 8.049224e-08)
(1.2197495e-06 -0.0053567373 -9.9135456e-08)
(-2.411881e-06 -0.0053577933 -9.9390808e-08)
(-1.0133727e-06 -0.0053607125 -9.8952372e-08)
(8.5632972e-07 -0.0053577224 -9.9255776e-08)
(-1.8112312e-06 -0.0053588728 -9.9172509e-08)
(1.8103651e-06 -0.0053588681 -9.9200719e-08)
(-8.5304522e-07 -0.0053577209 -9.9268645e-08)
(1.0213214e-06 -0.005360714 -9.893469e-08)
(2.4210022e-06 -0.0053577964 -9.9368603e-08)
(-1.2146283e-06 -0.0053567398 -9.9022911e-08)
(1.5451784e-06 -0.0055817733 1.6413634e-07)
(-2.3091407e-06 -0.0055843283 1.6563528e-07)
(-1.0195961e-06 -0.0055862992 1.649527e-07)
(9.0680386e-07 -0.0055840546 1.6554544e-07)
(-1.8454682e-06 -0.005584873 1.6523603e-07)
(1.8447065e-06 -0.0055848686 1.651359e-07)
(-9.0365606e-07 -0.0055840527 1.6552266e-07)
(1.0274723e-06 -0.0055863006 1.6496961e-07)
(2.3182408e-06 -0.0055843312 1.6566884e-07)
(-1.5400419e-06 -0.0055817759 1.6424145e-07)
(1.3857755e-06 -0.0052497497 -2.1720906e-07)
(-2.2578194e-06 -0.0052501388 -2.180909e-07)
(-1.003018e-06 -0.0052536952 -2.1712841e-07)
(9.0811321e-07 -0.0052501522 -2.1784931e-07)
(-1.8406916e-06 -0.0052515442 -2.1757473e-07)
(1.8400575e-06 -0.0052515391 -2.1775634e-07)
(-9.0504114e-07 -0.0052501511 -2.178778e-07)
(1.010789e-06 -0.0052536967 -2.171138e-07)
(2.2669003e-06 -0.0052501422 -2.1804498e-07)
(-1.3806427e-06 -0.0052497527 -2.1711264e-07)
(1.9382209e-06 -0.0057178776 3.2797177e-07)
(-2.1315162e-06 -0.0057213821 3.3062786e-07)
(-1.0202864e-06 -0.0057228361 3.2926206e-07)
(9.8737674e-07 -0.0057209874 3.3041091e-07)
(-1.8975259e-06 -0.0057216267 3.298587e-07)
(1.8969923e-06 -0.0057216225 3.2959511e-07)
(-9.8447615e-07 -0.0057209853 3.3037387e-07)
(1.0279965e-06 -0.0057228377 3.2927471e-07)
(2.1405628e-06 -0.0057213849 3.30686e-07)
(-1.9330705e-06 -0.0057178806 3.2805781e-07)
(1.4679967e-06 -0.0050471666 -4.4183182e-07)
(-2.1155698e-06 -0.0050462605 -4.4398205e-07)
(-9.8756535e-07 -0.0050508931 -4.4205013e-07)
(9.5264849e-07 -0.00504645 -4.4355523e-07)
(-1.8638006e-06 -0.0050482405 -4.4292822e-07)
(1.8634058e-06 -0.0050482352 -4.4328206e-07)
(-9.4979179e-07 -0.0050464493 -4.4359169e-07)
(9.9514707e-07 -0.0050508948 -4.420401e-07)
(2.1245976e-06 -0.0050462642 -4.4390998e-07)
(-1.4628681e-06 -0.0050471703 -4.4175701e-07)
(2.4603852e-06 -0.0059799269 6.3015557e-07)
(-1.9406927e-06 -0.0059851363 6.347558e-07)
(-1.0280808e-06 -0.0059855099 6.3218052e-07)
(1.0902153e-06 -0.0059845426 6.3430659e-07)
(-1.9669268e-06 -0.005984788 6.3331999e-07)
(1.9666215e-06 -0.0059847845 6.328827e-07)
(-1.0875862e-06 -0.00598454 6.3426364e-07)
(1.0356249e-06 -0.0059855116 6.3218704e-07)
(1.9496668e-06 -0.005985139 6.3483955e-07)
(-2.4552302e-06 -0.0059799302 6.3021688e-07)
(1.3998754e-06 -0.0046823734 -8.4132537e-07)
(-1.9932044e-06 -0.004679188 -8.4567057e-07)
(-9.6346245e-07 -0.0046855939 -8.4213837e-07)
(9.7837982e-07 -0.0046796978 -8.4494865e-07)
(-1.8713948e-06 -0.0046821384 -8.4373965e-07)
(1.8712381e-06 -0.0046821328 -8.4426798e-07)
(-9.7572517e-07 -0.004679698 -8.4498254e-07)
(9.7083845e-07 -0.0046855955 -8.4213598e-07)
(2.0021692e-06 -0.0046791922 -8.455726e-07)
(-1.3947706e-06 -0.0046823775 -8.412777e-07)
(3.1932409e-06 -0.0064457446 1.1471719e-06)
(-1.7250928e-06 -0.0064537612 1.1547696e-06)
(-1.0493847e-06 -0.0064522417 1.1503025e-06)
(1.229165e-06 -0.0064528567 1.1539529e-06)
(-2.0651502e-06 -0.0064523976 1.1522818e-06)
(2.0650537e-06 -0.0064523952 1.1516802e-06)
(-1.2268205e-06 -0.0064528537 1.1539169e-06)
(1.0567728e-06 -0.0064522434 1.1503007e-06)
(1.7339663e-06 -0.0064537637 1.154876e-06)
(-3.1880831e-06 -0.0064457482 1.1472038e-06)
(1.0910468e-06 -0.0040679347 -1.4972308e-06)
(-1.903046e-06 -0.004061138 -1.5049039e-06)
(-9.2533431e-07 -0.0040702584 -1.4990377e-06)
(9.6758637e-07 -0.0040621648 -1.503759e-06)
(-1.8493453e-06 -0.004065597 -1.5016968e-06)
(1.8494066e-06 -0.0040655914 -1.5023795e-06)
(-9.6509194e-07 -0.004062166 -1.5037742e-06)
(9.3248792e-07 -0.0040702599 -1.4990466e-06)
(1.9119375e-06 -0.0040611428 -1.5047838e-06)
(-1.08599e-06 -0.0040679394 -1.4972145e-06)
(4.2400222e-06 -0.0072099838 1.9616996e-06)
(-1.468293e-06 -0.0072222282 1.9734982e-06)
(-1.0934741e-06 -0.0072177875 1.9664123e-06)
(1.4238786e-06 -0.0072208685 1.972163e-06)
(-2.2087196e-06 -0.0072193106 1.9695424e-06)
(2.2087958e-06 -0.0072193101 1.9688097e-06)
(-1.4218241e-06 -0.0072208645 1.9721515e-06)
(1.1007201e-06 -0.0072177894 1.9663999e-06)
(1.4770318e-06 -0.0072222302 1.973621e-06)
(-4.234858e-06 -0.0072099876 1.9616985e-06)
(4.3383018e-07 -0.003104787 -2.4893463e-06)
(-1.8622359e-06 -0.0030927811 -2.5015371e-06)
(-8.6576755e-07 -0.0031057239 -2.4926373e-06)
(8.9635176e-07 -0.0030945652 -2.4998445e-06)
(-1.7784025e-06 -0.0030993908 -2.4966665e-06)
(1.7786469e-06 -0.0030993853 -2.4974588e-06)
(-8.9395038e-07 -0.0030945677 -2.4998207e-06)
(8.7267236e-07 -0.0031057251 -2.4926613e-06)
(1.8710526e-06 -0.0030927867 -2.5014022e-06)
(-4.2885177e-07 -0.0031047923 -2.4893632e-06)
(5.7164992e-06 -0.0083732204 3.1471172e-06)
(-1.1489644e-06 -0.0083913588 3.1643231e-06)
(-1.1725058e-06 -0.0083828238 3.1539783e-06)
(1.6989451e-06 -0.0083893686 3.1623257e-06)
(-2.4186083e-06 -0.0083862621 3.1585247e-06)
(2.4188038e-06 -0.0083862643 3.1577179e-06)
(-1.6971748e-06 -0.0083893634 3.1623589e-06)
(1.1796278e-06 -0.0083828262 3.1539519e-06)
(1.157528e-06 -0.0083913601 3.164451e-06)
(-5.711318e-06 -0.0083732245 3.1470831e-06)
(-6.8872358e-07 -0.0016930569 -3.8820947e-06)
(-1.8928055e-06 -0.0016740759 -3.8999271e-06)
(-7.7510038e-07 -0.0016920246 -3.8874383e-06)
(7.3553389e-07 -0.0016768889 -3.897581e-06)
(-1.6347391e-06 -0.0016835331 -3.8930732e-06)
(1.6351133e-06 -0.0016835281 -3.8939081e-06)
(-7.3312643e-07 -0.0016768927 -3.8974951e-06)
(7.8172013e-07 -0.0016920255 -3.8874809e-06)
(1.9015559e-06 -0.0016740823 -3.8997891e-06)
(6.9358412e-07 -0.0016930627 -3.8821432e-06)
(7.7433455e-06 -0.010032634 4.7573862e-06)
(-7.4099267e-07 -0.010058517 4.7811178e-06)
(-1.3013427e-06 -0.010044629 4.767036e-06)
(2.0826646e-06 -0.010055684 4.7783335e-06)
(-2.7192057e-06 -0.010050549 4.7731874e-06)
(2.7194479e-06 -0.010050555 4.7723826e-06)
(-2.0811587e-06 -0.010055677 4.778434e-06)
(1.3083609e-06 -0.010044632 4.7669948e-06)
(7.4933773e-07 -0.010058518 4.7812358e-06)
(-7.7381325e-06 -0.010032638 4.7573232e-06)
(-2.3987205e-06 0.00026091647 -5.7184536e-06)
(-2.021852e-06 0.00028874512 -5.7429274e-06)
(-6.4084595e-07 0.00026459133 -5.7264822e-06)
(4.5195683e-07 0.00028461294 -5.7398519e-06)
(-1.3905767e-06 0.00027572607 -5.7338665e-06)
(1.3910113e-06 0.00027573026 -5.7346604e-06)
(-4.4941347e-07 0.00028460792 -5.7396834e-06)
(6.4713298e-07 0.0002645909 -5.7265477e-06)
(2.0305574e-06 0.00028873799 -5.7428008e-06)
(2.4034112e-06 0.00026091016 -5.7185283e-06)
(1.0443448e-05 -0.012277408 6.8246112e-06)
(-2.1333416e-07 -0.012313036 6.8558713e-06)
(-1.4973122e-06 -0.01229249 6.8377538e-06)
(2.6064208e-06 -0.012309096 6.8522046e-06)
(-3.1375607e-06 -0.012301445 6.845618e-06)
(3.1377611e-06 -0.012301454 6.8449016e-06)
(-2.6051428e-06 -0.012309087 6.8523912e-06)
(1.5042519e-06 -0.012292493 6.8376988e-06)
(2.2141323e-07 -0.012313035 6.8559628e-06)
(-1.0438189e-05 -0.012277412 6.8245277e-06)
(-4.82319e-06 0.0028420272 -8.0203006e-06)
(-2.2817746e-06 0.0028806707 -8.0522902e-06)
(-4.4684005e-07 0.0028491151 -8.0317084e-06)
(9.4512003e-09 0.0028749186 -8.0484449e-06)
(-1.0146376e-06 0.0028633752 -8.0408953e-06)
(1.0150481e-06 0.0028633784 -8.0415611e-06)
(-6.6085262e-09 0.0028749124 -8.0481767e-06)
(4.527412e-07 0.0028491152 -8.0317977e-06)
(2.2904667e-06 0.0028806632 -8.0521911e-06)
(4.8276396e-06 0.0028420205 -8.0203926e-06)
(1.3943357e-05 -0.015187767 9.3613442e-06)
(4.7041681e-07 -0.015235254 9.4010293e-06)
(-1.780102e-06 -0.015206731 9.3787458e-06)
(3.3048463e-06 -0.015229886 9.3964166e-06)
(-3.7031839e-06 -0.015219235 9.3883562e-06)
(3.7032448e-06 -0.015219249 9.3878111e-06)
(-3.3037473e-06 -0.015229874 9.3966997e-06)
(1.7870052e-06 -0.015206736 9.3786804e-06)
(-4.6265985e-07 -0.015235251 9.4010767e-06)
(-1.3938046e-05 -0.015187771 9.3612526e-06)
(-8.0954528e-06 0.0061263789 -1.0792062e-05)
(-2.7105836e-06 0.006177932 -1.0832346e-05)
(-1.723077e-07 0.0061377578 -1.0807599e-05)
(-6.3006095e-07 0.0061702476 -1.0827723e-05)
(-4.7273888e-07 0.0061556364 -1.0818572e-05)
(4.7304175e-07 0.0061556391 -1.0819036e-05)
(6.3338727e-07 0.0061702402 -1.0827348e-05)
(1.777686e-07 0.0061377587 -1.080771e-05)
(2.7193006e-06 0.0061779246 -1.0832288e-05)
(8.0995666e-06 0.0061263718 -1.0792159e-05)
(1.8377896e-05 -0.018835617 1.2365204e-05)
(1.3527095e-06 -0.018897152 1.2414135e-05)
(-2.1720813e-06 -0.018859366 1.2387691e-05)
(4.2166524e-06 -0.018889971 1.2408545e-05)
(-4.4485074e-06 -0.01887587 1.2399026e-05)
(4.4483413e-06 -0.018875888 1.2398719e-05)
(-4.2156916e-06 -0.018889957 1.2408922e-05)
(2.1790142e-06 -0.018859371 1.2387623e-05)
(-1.3453388e-06 -0.018897148 1.2414123e-05)
(-1.8372544e-05 -0.018835621 1.236512e-05)
(-1.2356697e-05 0.010182116 -1.4025982e-05)
(-3.3522374e-06 0.010248863 -1.407528e-05)
(2.087281e-07 0.010198782 -1.4046453e-05)
(-1.5055121e-06 0.010238905 -1.4069905e-05)
(2.7128191e-07 0.010220799 -1.4059148e-05)
(-2.7114578e-07 0.010220802 -1.4059364e-05)
(1.5095056e-06 0.010238897 -1.4069428e-05)
(-2.0376145e-07 0.010198784 -1.404658e-05)
(3.3610237e-06 0.010248856 -1.4075277e-05)
(1.2360355e-05 0.010182109 -1.4026068e-05)
(2.3896868e-05 -0.023285558 1.582439e-05)
(2.4828443e-06 -0.023363369 1.5883351e-05)
(-2.6993824e-06 -0.023315105 1.5852856e-05)
(5.3856225e-06 -0.023353938 1.5876784e-05)
(-5.4099363e-06 -0.02333599 1.5865856e-05)
(5.4094918e-06 -0.023336011 1.5865829e-05)
(-5.3847993e-06 -0.02335392 1.5877236e-05)
(2.7064413e-06 -0.023315111 1.5852796e-05)
(-2.4759325e-06 -0.023363362 1.5883267e-05)
(-2.38915e-05 -0.023285562 1.5824328e-05)
(-1.7757561e-05 0.015070342 -1.7707376e-05)
(-4.2572033e-06 0.015154813 -1.7766404e-05)
(7.2744178e-07 0.015093422 -1.7733653e-05)
(-2.6561484e-06 0.015142182 -1.7760321e-05)
(1.2545123e-06 0.015120121 -1.7747979e-05)
(-1.2545512e-06 0.015120126 -1.774794e-05)
(2.6609658e-06 0.015142172 -1.7759765e-05)
(-7.2302959e-07 0.015093424 -1.7733784e-05)
(4.2661061e-06 0.015154807 -1.7766458e-05)
(1.7760629e-05 0.015070334 -1.770744e-05)
(3.067136e-05 -0.028595785 1.9722098e-05)
(3.9178856e-06 -0.028692135 1.9791863e-05)
(-3.3938249e-06 -0.028632264 1.9757512e-05)
(6.8607969e-06 -0.028679983 1.9784362e-05)
(-6.6289262e-06 -0.028657856 1.9772086e-05)
(6.6282142e-06 -0.028657879 1.977235e-05)
(-6.8601901e-06 -0.028679962 1.9784841e-05)
(3.4011353e-06 -0.028632271 1.9757475e-05)
(-3.9115123e-06 -0.028692126 1.97917e-05)
(-3.0666011e-05 -0.028595789 1.9722069e-05)
(-2.4459933e-05 0.020845914 -2.1817588e-05)
(-5.4831729e-06 0.020950903 -2.1887086e-05)
(1.4199439e-06 0.020876667 -2.1850603e-05)
(-4.1221204e-06 0.0209351 -2.1880356e-05)
(2.5142384e-06 0.020908585 -2.1866463e-05)
(-2.5143946e-06 0.020908594 -2.1866222e-05)
(4.1278735e-06 0.020935088 -2.1879763e-05)
(-1.4161636e-06 0.020876671 -2.1850727e-05)
(5.492239e-06 0.020950897 -2.1887192e-05)
(2.4462284e-05 0.020845906 -2.1817622e-05)
(3.88969e-05 -0.034818768 2.4037528e-05)
(5.7232655e-06 -0.034936012 2.4118884e-05)
(-4.2954807e-06 -0.034863445 2.4080916e-05)
(8.6953019e-06 -0.034920641 2.4110522e-05)
(-8.152652e-06 -0.034894054 2.409696e-05)
(8.1517499e-06 -0.034894077 2.4097482e-05)
(-8.6950754e-06 -0.034920618 2.4110953e-05)
(4.3031713e-06 -0.034863452 2.4080916e-05)
(-5.7175315e-06 -0.034936002 2.4118648e-05)
(-3.8891567e-05 -0.034818772 2.4037537e-05)
(-3.26398e-05 0.027558099 -2.6332889e-05)
(-7.0958856e-06 0.027686621 -2.6413635e-05)
(2.3273764e-06 0.027597923 -2.6373647e-05)
(-5.9462797e-06 0.027667021 -2.6406337e-05)
(4.0886009e-06 0.027635548 -2.6390941e-05)
(-4.0887637e-06 0.027635562 -2.6390614e-05)
(5.9530467e-06 0.027667006 -2.6405759e-05)
(-2.3243431e-06 0.027597928 -2.6373747e-05)
(7.1051573e-06 0.027686613 -2.641377e-05)
(3.2641348e-05 0.027558091 -2.6332893e-05)
(4.8791691e-05 -0.042001747 2.8743171e-05)
(7.973384e-06 -0.042142434 2.8836876e-05)
(-5.4550428e-06 -0.042056028 2.8795634e-05)
(1.0944241e-05 -0.042123303 2.8827802e-05)
(-1.0032773e-05 -0.04209198 2.8813006e-05)
(1.0031802e-05 -0.042092004 2.8813712e-05)
(-1.0944652e-05 -0.042123278 2.8828081e-05)
(5.4632425e-06 -0.042056035 2.8795682e-05)
(-7.9683988e-06 -0.042142423 2.8836592e-05)
(-4.8786326e-05 -0.04200175 2.8743214e-05)
(-4.2491836e-05 0.035251123 -3.1221356e-05)
(-9.1700861e-06 0.035406324 -3.1314161e-05)
(3.4971683e-06 0.035301567 -3.1270926e-05)
(-8.1761085e-06 0.035382187 -3.1306393e-05)
(6.0185921e-06 0.035345296 -3.1289557e-05)
(-6.0186287e-06 0.035345316 -3.1289301e-05)
(8.1839673e-06 0.035382169 -3.1305864e-05)
(-3.4950458e-06 0.035301573 -3.1270988e-05)
(9.1795955e-06 0.035406315 -3.1314286e-05)
(4.2492555e-05 0.035251115 -3.1221339e-05)
(6.0592777e-05 -0.050187105 3.3802663e-05)
(1.0752984e-05 -0.050354073 3.3909438e-05)
(-6.9345188e-06 -0.050252548 3.3865359e-05)
(1.3662353e-05 -0.050330565 3.389988e-05)
(-1.2322978e-05 -0.050294202 3.3883893e-05)
(1.2322057e-05 -0.050294225 3.3884686e-05)
(-1.3663718e-05 -0.050330537 3.38999e-05)
(6.9433484e-06 -0.050252554 3.3865459e-05)
(-1.0748864e-05 -0.050354063 3.3909156e-05)
(-6.058727e-05 -0.050187108 3.3802727e-05)
(-5.4235772e-05 0.043964606 -3.6442513e-05)
(-1.1790486e-05 0.044149735 -3.6548205e-05)
(4.9856797e-06 0.04402739 -3.6502037e-05)
(-1.0864463e-05 0.044120224 -3.6540103e-05)
(8.3502382e-06 0.044077534 -3.6521894e-05)
(-8.3500296e-06 0.044077559 -3.6521867e-05)
(1.0873538e-05 0.044120202 -3.6539607e-05)
(-4.9846773e-06 0.044027397 -3.6502048e-05)
(1.1800255e-05 0.044149723 -3.6548278e-05)
(5.4235683e-05 0.043964597 -3.6442487e-05)
(7.455633e-05 -0.05941268 3.9171813e-05)
(1.4158849e-05 -0.0596091 3.9292364e-05)
(-8.8072548e-06 -0.059491006 3.9245947e-05)
(1.6904019e-05 -0.059580477 3.9282634e-05)
(-1.5077036e-05 -0.059538726 3.9265468e-05)
(1.5076238e-05 -0.059538751 3.9266285e-05)
(-1.6906673e-05 -0.059580447 3.9282311e-05)
(8.8168407e-06 -0.059491011 3.9246093e-05)
(-1.4155717e-05 -0.059609091 3.9292152e-05)
(-7.4550532e-05 -0.059412682 3.9171884e-05)
(-6.8121846e-05 0.053733897 -4.1948796e-05)
(-1.5053044e-05 0.053952384 -4.2068196e-05)
(6.8613383e-06 0.053810941 -4.2019502e-05)
(-1.4068928e-05 0.053916575 -4.2059962e-05)
(1.1135554e-05 0.053867774 -4.2040442e-05)
(-1.113501e-05 0.053867804 -4.2040769e-05)
(1.4079424e-05 0.053916548 -4.2059407e-05)
(-6.8616925e-06 0.053810949 -4.2019449e-05)
(1.5063086e-05 0.053952369 -4.2068201e-05)
(6.8120983e-05 0.053733888 -4.1948775e-05)
(9.096443e-05 -0.069712011 4.4800545e-05)
(1.8302234e-05 -0.06994141 4.4935607e-05)
(-1.1158734e-05 -0.069805127 4.4887356e-05)
(2.0725633e-05 -0.069906791 4.4926092e-05)
(-1.8348984e-05 -0.069859279 4.4907722e-05)
(1.8348332e-05 -0.069859306 4.4908587e-05)
(-2.0729914e-05 -0.069906758 4.4925371e-05)
(1.1169236e-05 -0.069805131 4.4887529e-05)
(-1.8300219e-05 -0.069941401 4.4935527e-05)
(-9.0958201e-05 -0.069712012 4.4800613e-05)
(-8.4436629e-05 0.064590339 -4.7689666e-05)
(-1.9067045e-05 0.064845956 -4.7823581e-05)