/*--------------------------------*- C++ -*----------------------------------*\
  =========                 |
  \\      /  F ield         | OpenFOAM: The Open Source CFD Toolbox
   \\    /   O peration     | Website:  https://openfoam.org
    \\  /    A nd           | Version:  8
     \\/     M anipulation  |
\*---------------------------------------------------------------------------*/
FoamFile
{
    version     2.0;
    format      ascii;
    class       volScalarField;
    location    "1.499985";
    object      alphat;
}
// * * * * * * * * * * * * * * * * * * * * * * * * * * * * * * * * * * * * * //

dimensions      [1 -1 -1 0 0 0 0];

internalField   nonuniform List<scalar> 
6800
(
0.046262
0.0655561
0.0666237
0.0646716
0.064837
0.0555129
0.0445256
0.0332641
0.027181
0.0277766
0.0349685
0.0575463
0.0616861
0.0624368
0.0581793
0.0451557
0.0333677
0.0288559
0.0266524
0.0224923
0.0351497
0.0555228
0.0612681
0.0583195
0.0479166
0.0355644
0.029964
0.0263384
0.0205623
0.0186296
0.0355626
0.0547319
0.0582783
0.0536293
0.0404623
0.0328491
0.0269845
0.0220309
0.0191107
0.0178888
0.0353108
0.0538192
0.0568037
0.0485995
0.0357923
0.0282571
0.0231458
0.0206892
0.0181902
0.0155258
0.0353135
0.0548552
0.0547719
0.0418864
0.0316759
0.0270278
0.0229043
0.0191709
0.0160488
0.0147062
0.0349795
0.055806
0.052687
0.0388575
0.031334
0.0244184
0.0199707
0.0169646
0.0153483
0.0143105
0.0348996
0.0576215
0.0492016
0.0335495
0.0266251
0.023363
0.0191637
0.0170125
0.0145667
0.0134587
0.0347034
0.0588701
0.0442105
0.0351522
0.0286264
0.0216137
0.0175554
0.0154018
0.0138274
0.0132024
0.0347695
0.0601188
0.0419391
0.0305264
0.0232201
0.0209127
0.0171396
0.0152583
0.0136139
0.012678
0.338625
0.497157
0.568278
0.588945
0.586484
0.592417
0.603169
0.616803
0.625969
0.630002
0.295408
0.483216
0.541792
0.566111
0.558136
0.559043
0.564155
0.568346
0.566326
0.563667
0.256745
0.467142
0.504612
0.524398
0.510852
0.506851
0.503421
0.501655
0.501413
0.494062
0.228094
0.418232
0.464503
0.459324
0.44722
0.433967
0.425893
0.415329
0.394782
0.354629
0.19951
0.370786
0.384811
0.383974
0.363559
0.349791
0.332597
0.296887
0.266362
0.205859
0.190977
0.334591
0.312199
0.30371
0.290311
0.263118
0.225099
0.169802
0.138727
0.0996446
0.187786
0.250406
0.260416
0.244065
0.207797
0.155073
0.114485
0.0884898
0.0811629
0.0630864
0.21503
0.218032
0.201919
0.163442
0.113904
0.0905424
0.0775851
0.0649051
0.0622026
0.0503856
0.210661
0.165058
0.134612
0.0935199
0.0781898
0.0709295
0.0631374
0.0565133
0.0542376
0.0392596
0.13328
0.0906009
0.079803
0.0714431
0.0684406
0.0645447
0.0558301
0.0490106
0.0352527
0.0283914
0.632577
0.62609
0.615688
0.604321
0.593498
0.583711
0.57501
0.567591
0.56126
0.555751
0.550901
0.546597
0.542769
0.539358
0.536312
0.53358
0.531115
0.528877
0.526834
0.524955
0.523218
0.5216
0.520082
0.51865
0.517287
0.515968
0.514684
0.513433
0.512212
0.51101
0.509831
0.508683
0.507571
0.506503
0.505485
0.50452
0.503611
0.502761
0.501969
0.501235
0.500557
0.499933
0.499363
0.498842
0.498367
0.497935
0.497537
0.497172
0.496837
0.496528
0.496242
0.495975
0.495723
0.495485
0.495259
0.495041
0.494833
0.494631
0.494436
0.494246
0.494062
0.493883
0.49371
0.493542
0.493379
0.493221
0.493071
0.492926
0.492789
0.492659
0.492538
0.492425
0.492322
0.492229
0.492146
0.492073
0.492011
0.49196
0.491918
0.491887
0.491862
0.49185
0.49184
0.491845
0.491847
0.491868
0.491875
0.491916
0.491922
0.491988
0.491982
0.492084
0.492051
0.492205
0.492145
0.492347
0.492232
0.492559
0.491977
0.49336
0.565735
0.564631
0.55885
0.551994
0.545185
0.538758
0.532857
0.527834
0.523435
0.519556
0.516151
0.513171
0.510566
0.508299
0.50632
0.504581
0.503041
0.501669
0.500438
0.499327
0.498315
0.497384
0.496517
0.495711
0.494915
0.494104
0.493299
0.492513
0.491725
0.490924
0.490139
0.489389
0.488679
0.488015
0.487398
0.486831
0.486313
0.485844
0.485426
0.485052
0.484726
0.484451
0.484224
0.48404
0.483892
0.483774
0.483679
0.48361
0.483567
0.483539
0.483523
0.483513
0.483508
0.483505
0.483503
0.483501
0.483499
0.483496
0.483492
0.483486
0.483479
0.483471
0.483461
0.483449
0.483436
0.483424
0.483412
0.483401
0.483392
0.483386
0.483385
0.483391
0.483404
0.483426
0.483456
0.483495
0.483543
0.483601
0.483666
0.483741
0.483821
0.483912
0.484004
0.48411
0.484209
0.484328
0.484429
0.484564
0.484658
0.484816
0.484894
0.485086
0.485132
0.485376
0.485388
0.485683
0.485637
0.486064
0.485522
0.487043
0.497509
0.499384
0.495154
0.490383
0.48576
0.481414
0.477468
0.473437
0.469701
0.466455
0.463724
0.461466
0.459621
0.458152
0.456969
0.456023
0.455276
0.454698
0.454266
0.453956
0.453747
0.453615
0.453549
0.453519
0.453546
0.45363
0.453758
0.453891
0.454096
0.454384
0.454714
0.455068
0.455437
0.455817
0.456203
0.456599
0.457001
0.45741
0.45783
0.458244
0.458699
0.45919
0.459695
0.460203
0.460707
0.461202
0.461686
0.46215
0.462592
0.463012
0.463414
0.463799
0.46417
0.464526
0.464868
0.465197
0.465512
0.465813
0.466102
0.466378
0.466645
0.466896
0.467129
0.46735
0.46756
0.467769
0.467962
0.468147
0.46833
0.468515
0.468703
0.468896
0.469095
0.469301
0.469512
0.469731
0.469958
0.470192
0.470432
0.47068
0.47093
0.471188
0.471442
0.471707
0.47196
0.472233
0.472479
0.472762
0.472993
0.473293
0.473498
0.473831
0.473998
0.474383
0.474508
0.474947
0.474993
0.475581
0.475105
0.476866
0.353655
0.356567
0.358091
0.359311
0.36064
0.362012
0.363463
0.365206
0.367125
0.369243
0.371541
0.373962
0.376459
0.379025
0.381515
0.383926
0.386277
0.388572
0.390816
0.393003
0.395127
0.397179
0.399155
0.401048
0.40286
0.404596
0.406261
0.407869
0.409393
0.410843
0.412249
0.413618
0.414955
0.416265
0.417543
0.418796
0.420022
0.421232
0.422408
0.423593
0.424701
0.425743
0.426739
0.427703
0.428642
0.429561
0.430462
0.431346
0.43221
0.433055
0.433883
0.434694
0.435488
0.436264
0.437021
0.43776
0.438479
0.439179
0.439858
0.440521
0.441163
0.441793
0.442415
0.443026
0.443629
0.444218
0.444816
0.445418
0.446019
0.446618
0.447214
0.447807
0.448396
0.448983
0.449561
0.450145
0.450729
0.451314
0.451891
0.452467
0.45303
0.453593
0.454137
0.454686
0.455207
0.455744
0.456238
0.456768
0.457229
0.457764
0.458183
0.458737
0.459096
0.459688
0.459988
0.460628
0.460839
0.461626
0.46125
0.463318
0.199355
0.19762
0.198066
0.2002
0.203648
0.208104
0.213235
0.218837
0.224758
0.231086
0.237577
0.24408
0.250635
0.257011
0.262878
0.26855
0.274127
0.279588
0.284916
0.290093
0.295116
0.299975
0.304669
0.309191
0.313553
0.317749
0.321801
0.325703
0.329488
0.333129
0.336678
0.340091
0.343371
0.346516
0.349541
0.352468
0.355305
0.358057
0.360737
0.363339
0.365896
0.368404
0.370857
0.373254
0.375592
0.377869
0.380087
0.382251
0.384335
0.38636
0.388341
0.390272
0.392146
0.393961
0.395714
0.397408
0.399042
0.400618
0.40214
0.403609
0.405028
0.406402
0.407736
0.409033
0.410296
0.411531
0.412734
0.413912
0.415067
0.416203
0.417322
0.418425
0.419512
0.420582
0.42164
0.422672
0.423676
0.424658
0.425615
0.426559
0.427476
0.428386
0.429265
0.430145
0.430984
0.431841
0.432639
0.43348
0.434231
0.435068
0.435765
0.436617
0.437245
0.438131
0.438691
0.439625
0.440074
0.441173
0.441
0.443457
0.0983394
0.0979458
0.0979424
0.098449
0.0994031
0.100827
0.102704
0.10491
0.107657
0.111214
0.114557
0.118223
0.122673
0.126859
0.132235
0.137699
0.143746
0.150147
0.156653
0.16327
0.169998
0.176763
0.183519
0.190199
0.196814
0.203293
0.209689
0.215909
0.222051
0.227978
0.233868
0.239274
0.244409
0.249257
0.253982
0.258681
0.263276
0.267786
0.272216
0.276575
0.28086
0.28508
0.289227
0.293301
0.297304
0.301218
0.305068
0.308774
0.312329
0.315867
0.31938
0.322769
0.326023
0.329167
0.332195
0.335124
0.337948
0.340687
0.343332
0.345895
0.348384
0.350806
0.353164
0.355466
0.357714
0.359914
0.362067
0.364178
0.366244
0.368274
0.370259
0.372211
0.374117
0.375993
0.377818
0.379621
0.381373
0.383094
0.384774
0.386428
0.38803
0.389613
0.39114
0.39266
0.394111
0.395577
0.396952
0.398375
0.399673
0.401068
0.402282
0.40367
0.404787
0.406188
0.407208
0.40865
0.409516
0.411111
0.411336
0.414338
0.0624081
0.061674
0.0610124
0.0605481
0.0601784
0.0599559
0.059796
0.05981
0.0599448
0.0602392
0.0607398
0.0612643
0.0621396
0.0629476
0.0639371
0.0649844
0.0663463
0.0676242
0.0695454
0.0714414
0.0738196
0.0764183
0.0792125
0.0822477
0.0855632
0.0891123
0.092943
0.0969776
0.101297
0.105798
0.110547
0.115675
0.121309
0.127207
0.133249
0.139426
0.14568
0.152001
0.158334
0.164669
0.170958
0.177197
0.183351
0.189413
0.19536
0.201192
0.206886
0.21246
0.217883
0.223034
0.227943
0.232646
0.237196
0.241653
0.245971
0.250213
0.254334
0.258407
0.262306
0.266167
0.269971
0.273707
0.277369
0.280966
0.28449
0.287954
0.291343
0.294676
0.29793
0.301125
0.304234
0.307283
0.31024
0.313149
0.315955
0.31874
0.321376
0.324009
0.326612
0.329134
0.33157
0.333992
0.336325
0.338654
0.340877
0.343126
0.345244
0.347428
0.349439
0.351575
0.353472
0.355579
0.357346
0.359448
0.361072
0.363205
0.364639
0.366909
0.367696
0.371324
0.0497077
0.0489478
0.0482441
0.0475774
0.0468842
0.0461811
0.0454698
0.0447666
0.043917
0.0431253
0.0421509
0.0413246
0.0403455
0.039544
0.038906
0.038306
0.0378716
0.037447
0.0372025
0.0370054
0.0369882
0.0370205
0.0372077
0.0374298
0.0378057
0.0382805
0.0387956
0.0394654
0.0403229
0.0413313
0.0424327
0.0437037
0.0451654
0.0468629
0.0487777
0.0509697
0.0533895
0.0560937
0.0590316
0.0622649
0.0657346
0.0694862
0.0734563
0.0776883
0.0821086
0.0867654
0.0915692
0.0965822
0.10169
0.107106
0.112713
0.118551
0.124425
0.130345
0.136246
0.142139
0.147969
0.153746
0.159426
0.165016
0.170491
0.175869
0.18112
0.186271
0.19129
0.196215
0.201003
0.205711
0.210213
0.214599
0.218793
0.222909
0.226893
0.230845
0.234663
0.238475
0.242144
0.245828
0.249352
0.25294
0.256315
0.259821
0.263122
0.266419
0.269581
0.272816
0.275847
0.278994
0.28188
0.284953
0.287675
0.290687
0.293221
0.296196
0.298524
0.301522
0.303568
0.306675
0.308311
0.312493
0.0381311
0.0370607
0.0360194
0.0349472
0.0339011
0.032896
0.0319736
0.0310975
0.0303398
0.0296114
0.0290163
0.0283785
0.0277558
0.0271169
0.0265635
0.0260689
0.025641
0.0252518
0.0249167
0.0246096
0.0243481
0.02411
0.023912
0.0237322
0.0235913
0.0234623
0.0233774
0.0232945
0.0232628
0.0232286
0.0232539
0.023272
0.0233599
0.0234391
0.0236418
0.023884
0.0240205
0.0242901
0.0246332
0.0250757
0.0255853
0.0261838
0.02684
0.0276338
0.0284974
0.0295209
0.0306334
0.0319327
0.0333357
0.0349462
0.0366769
0.0386553
0.0407772
0.0431704
0.0457145
0.0485367
0.0515111
0.0547594
0.0581544
0.061812
0.0655999
0.0696346
0.0737769
0.0781446
0.0825912
0.087236
0.0919276
0.0967849
0.101726
0.106868
0.112031
0.117343
0.122551
0.127852
0.133
0.138219
0.143244
0.148332
0.153185
0.158108
0.162763
0.167502
0.171949
0.176511
0.180729
0.185125
0.189116
0.193373
0.197136
0.201209
0.204677
0.20862
0.211799
0.215691
0.218589
0.222508
0.225176
0.22911
0.231664
0.236274
0.0278664
0.0269503
0.0260607
0.0253251
0.0246949
0.0241358
0.0236296
0.0231634
0.0227349
0.0223315
0.0219522
0.0215992
0.0212688
0.0209603
0.0206693
0.0203998
0.0201468
0.0199144
0.019697
0.019499
0.0193137
0.0191463
0.0189886
0.0188477
0.0187135
0.0185948
0.0184802
0.018381
0.0182837
0.0182009
0.0181193
0.0180513
0.0179831
0.0179309
0.0178737
0.017831
0.0177971
0.0177619
0.0177343
0.0177176
0.0177081
0.0177162
0.017722
0.0177569
0.0177844
0.0178398
0.0179023
0.0179885
0.0181127
0.018185
0.0183477
0.0184955
0.0187065
0.0189844
0.0192138
0.0195809
0.0198684
0.0203429
0.020758
0.0213526
0.021903
0.0226652
0.0233832
0.0243504
0.0252715
0.0264833
0.0276401
0.0291318
0.0305568
0.0323655
0.0340952
0.0362556
0.0383145
0.0408415
0.0432313
0.0461247
0.0488334
0.0520816
0.0550847
0.0586663
0.0619286
0.0658154
0.0692913
0.0734505
0.0770863
0.0814804
0.0852162
0.0898092
0.0935794
0.0984225
0.102234
0.107283
0.111047
0.116267
0.119794
0.125112
0.128325
0.133655
0.137805
0.142339
0.0225411
0.0220464
0.0215694
0.0211153
0.0206906
0.0202934
0.019921
0.0195751
0.0192498
0.0189513
0.0186789
0.0184318
0.0182032
0.0179953
0.0178009
0.0176243
0.017457
0.0173053
0.0171602
0.0170294
0.0169016
0.0167864
0.0166714
0.0165683
0.0164633
0.0163702
0.0162736
0.0161893
0.0161002
0.0160237
0.0159415
0.015872
0.015796
0.0157326
0.0156619
0.0156037
0.0155372
0.0154835
0.015424
0.0153777
0.015324
0.0152852
0.0152366
0.0152049
0.0151615
0.0151363
0.0150983
0.0150794
0.0150465
0.0150344
0.0150064
0.0150007
0.0149793
0.0149804
0.0149673
0.014975
0.014971
0.0149862
0.0149926
0.015018
0.0150366
0.0150766
0.0151119
0.015171
0.01525
0.01531
0.0153809
0.0155044
0.0155966
0.0157663
0.0158919
0.0161172
0.0162814
0.0165864
0.0168004
0.0172038
0.017481
0.0180089
0.0183606
0.0190461
0.0194803
0.0203658
0.0208956
0.0220206
0.022685
0.0240443
0.0248583
0.0265046
0.0274705
0.0294334
0.0305709
0.0328706
0.0341893
0.0368462
0.0383134
0.0413446
0.0428704
0.0462299
0.0477349
0.0531523
0.0186934
0.0184626
0.0182368
0.0180143
0.0177892
0.0175627
0.0173443
0.0171324
0.0169333
0.0167435
0.016567
0.0163992
0.0162436
0.016096
0.015959
0.0158294
0.0157089
0.0155951
0.0154869
0.0153837
0.0152847
0.0151904
0.0150992
0.0150126
0.014928
0.0148483
0.0147699
0.0146967
0.0146244
0.0145579
0.0144917
0.0144319
0.0143717
0.0143185
0.0142638
0.0142166
0.0141667
0.0141249
0.0140788
0.0140413
0.0139983
0.0139643
0.0139236
0.0138926
0.013854
0.0138259
0.0137893
0.0137639
0.0137292
0.0137065
0.013674
0.0136537
0.0136235
0.0136057
0.013578
0.0135623
0.013537
0.0135232
0.0135001
0.0134878
0.0134666
0.0134544
0.0134329
0.0134208
0.0134009
0.0133915
0.0133735
0.013368
0.013354
0.0133528
0.0133428
0.0133466
0.013342
0.0133509
0.0133528
0.0133672
0.0133769
0.0133974
0.0134171
0.0134437
0.013476
0.0135112
0.0135744
0.0136331
0.0136964
0.0137661
0.0138178
0.0139443
0.0140275
0.0141834
0.0142965
0.0145367
0.0146498
0.0149977
0.0151022
0.0156053
0.0156305
0.0166242
0.0165153
0.0180124
0.0161448
0.0160159
0.015884
0.0157437
0.0156019
0.0154564
0.0153141
0.0151714
0.0150346
0.0148989
0.0147704
0.0146436
0.0145247
0.0144075
0.0142983
0.0141907
0.0140909
0.0139925
0.0139017
0.0138121
0.0137298
0.0136487
0.0135745
0.0135013
0.0134347
0.0133689
0.013309
0.0132499
0.0131961
0.0131428
0.0130943
0.0130463
0.0130024
0.0129591
0.0129193
0.0128802
0.0128442
0.0128089
0.0127762
0.0127445
0.0127148
0.0126863
0.0126592
0.0126337
0.0126088
0.0125859
0.0125631
0.0125425
0.0125214
0.012503
0.0124832
0.0124669
0.0124484
0.0124339
0.0124165
0.0124037
0.0123874
0.0123762
0.0123608
0.0123511
0.0123364
0.0123281
0.012314
0.0123069
0.0122934
0.0122875
0.0122743
0.0122696
0.0122565
0.012253
0.0122401
0.0122378
0.0122248
0.012224
0.0122108
0.0122115
0.0121979
0.0122003
0.0121863
0.0121907
0.0121761
0.0121827
0.0121677
0.0121775
0.0121622
0.0121752
0.0121597
0.012176
0.0121612
0.0121809
0.0121677
0.0121916
0.0121815
0.0122092
0.0122046
0.0122362
0.0122418
0.0122739
0.01229
0.0123585
0.0143908
0.0143169
0.0142387
0.0141504
0.014059
0.0139621
0.0138668
0.0137691
0.0136759
0.0135819
0.013494
0.013406
0.0133249
0.0132438
0.0131698
0.0130955
0.0130285
0.0129606
0.0129001
0.0128381
0.0127834
0.0127269
0.0126775
0.0126259
0.0125814
0.0125342
0.0124942
0.0124511
0.012415
0.0123754
0.0123428
0.0123063
0.0122767
0.0122429
0.012216
0.0121846
0.0121601
0.0121308
0.0121084
0.012081
0.0120606
0.012035
0.0120163
0.0119923
0.0119753
0.0119527
0.0119372
0.011916
0.0119018
0.0118817
0.0118688
0.0118499
0.0118381
0.0118201
0.0118095
0.0117924
0.0117828
0.0117666
0.0117579
0.0117425
0.0117346
0.0117199
0.0117127
0.0116987
0.0116922
0.0116787
0.0116727
0.0116598
0.0116543
0.0116418
0.0116367
0.0116246
0.0116199
0.0116083
0.0116039
0.0115927
0.0115887
0.0115777
0.0115741
0.0115635
0.0115601
0.0115498
0.0115467
0.0115366
0.0115339
0.011524
0.0115216
0.011512
0.0115098
0.0115004
0.0114983
0.0114892
0.0114872
0.0114784
0.0114758
0.0114658
0.0114604
0.0114459
0.0114755
0.0114086
0.0131133
0.0130734
0.0130298
0.0129766
0.0129199
0.0128573
0.0127951
0.0127295
0.0126665
0.0126013
0.01254
0.0124772
0.0124189
0.0123595
0.0123052
0.0122497
0.0121995
0.012148
0.012102
0.0120544
0.0120124
0.0119686
0.0119304
0.01189
0.0118553
0.0118181
0.0117865
0.0117522
0.0117235
0.0116917
0.0116657
0.0116363
0.0116127
0.0115853
0.011564
0.0115385
0.0115191
0.0114954
0.0114778
0.0114556
0.0114397
0.0114189
0.0114044
0.0113849
0.0113718
0.0113534
0.0113416
0.0113242
0.0113136
0.0112971
0.0112874
0.0112718
0.0112631
0.0112482
0.0112403
0.011226
0.0112189
0.0112052
0.0111987
0.0111856
0.0111797
0.011167
0.0111617
0.0111495
0.0111447
0.0111329
0.0111286
0.0111172
0.0111133
0.0111023
0.0110988
0.0110882
0.011085
0.0110748
0.0110718
0.011062
0.0110593
0.0110497
0.0110472
0.011038
0.0110357
0.0110267
0.0110245
0.0110159
0.0110137
0.0110054
0.0110033
0.0109953
0.0109931
0.0109855
0.0109832
0.0109759
0.0109735
0.0109666
0.0109639
0.0109574
0.0109545
0.0109484
0.0109449
0.0109379
0.0122286
0.0122103
0.0121897
0.0121596
0.0121266
0.0120869
0.0120477
0.0120039
0.0119623
0.0119174
0.0118759
0.0118317
0.0117916
0.0117492
0.0117114
0.0116713
0.011636
0.0115984
0.0115658
0.0115307
0.0115008
0.0114681
0.0114406
0.0114102
0.0113851
0.0113568
0.0113338
0.0113074
0.0112863
0.0112616
0.0112424
0.0112192
0.0112016
0.0111798
0.0111637
0.0111432
0.0111285
0.0111092
0.0110956
0.0110774
0.011065
0.0110477
0.0110363
0.0110199
0.0110095
0.0109938
0.0109843
0.0109693
0.0109605
0.0109462
0.0109382
0.0109243
0.010917
0.0109036
0.0108968
0.0108839
0.0108777
0.0108652
0.0108594
0.0108472
0.0108419
0.0108301
0.0108251
0.0108137
0.0108091
0.0107979
0.0107937
0.0107829
0.010779
0.0107684
0.0107648
0.0107546
0.0107512
0.0107413
0.0107381
0.0107285
0.0107255
0.0107162
0.0107134
0.0107043
0.0107016
0.0106927
0.0106901
0.0106815
0.0106789
0.0106707
0.0106681
0.0106601
0.0106574
0.0106498
0.010647
0.0106397
0.0106368
0.0106298
0.0106268
0.0106202
0.0106169
0.0106106
0.0106082
0.0105994
0.0116203
0.0116136
0.0116059
0.0115893
0.0115703
0.0115446
0.0115195
0.0114893
0.0114611
0.0114288
0.0113996
0.0113668
0.0113378
0.0113056
0.0112776
0.0112465
0.01122
0.0111903
0.0111654
0.0111373
0.0111141
0.0110875
0.0110661
0.0110411
0.0110212
0.0109976
0.0109794
0.0109571
0.0109402
0.0109192
0.0109037
0.0108838
0.0108695
0.0108507
0.0108375
0.0108196
0.0108074
0.0107904
0.0107792
0.010763
0.0107527
0.0107372
0.0107277
0.0107129
0.0107042
0.01069
0.0106819
0.0106683
0.0106609
0.0106477
0.0106409
0.0106282
0.0106219
0.0106096
0.0106038
0.0105919
0.0105866
0.0105751
0.0105702
0.010559
0.0105544
0.0105435
0.0105393
0.0105287
0.0105249
0.0105146
0.0105109
0.0105009
0.0104975
0.0104878
0.0104846
0.0104751
0.0104721
0.0104628
0.01046
0.010451
0.0104483
0.0104395
0.0104369
0.0104284
0.0104258
0.0104175
0.010415
0.010407
0.0104044
0.0103966
0.0103941
0.0103866
0.010384
0.0103767
0.010374
0.0103671
0.0103642
0.0103575
0.0103541
0.0103486
0.0103487
0.0103429
0.0103081
0.0103545
0.0111854
0.0111854
0.011185
0.0111762
0.0111656
0.0111483
0.0111318
0.0111101
0.0110903
0.0110661
0.0110449
0.0110196
0.010998
0.0109727
0.0109515
0.0109266
0.0109063
0.0108822
0.010863
0.0108399
0.0108219
0.0107998
0.010783
0.0107619
0.0107464
0.0107264
0.010712
0.0106929
0.0106796
0.0106614
0.0106491
0.0106318
0.0106205
0.0106039
0.0105934
0.0105775
0.0105679
0.0105527
0.0105438
0.0105291
0.0105209
0.0105068
0.0104993
0.0104856
0.0104787
0.0104654
0.0104591
0.0104462
0.0104403
0.0104279
0.0104225
0.0104103
0.0104053
0.0103936
0.0103889
0.0103775
0.0103732
0.010362
0.0103581
0.0103471
0.0103435
0.0103329
0.0103295
0.0103191
0.010316
0.0103058
0.0103029
0.0102929
0.0102903
0.0102805
0.010278
0.0102684
0.0102661
0.0102567
0.0102545
0.0102454
0.0102432
0.0102343
0.0102322
0.0102236
0.0102214
0.010213
0.0102109
0.0102028
0.0102006
0.0101927
0.0101904
0.0101828
0.0101804
0.0101732
0.0101706
0.0101637
0.0101608
0.0101544
0.0101516
0.010145
0.0101381
0.0101327
0.0101604
0.0100989
0.0108708
0.0108751
0.0108786
0.0108744
0.0108687
0.0108568
0.0108455
0.0108294
0.010815
0.0107962
0.0107801
0.0107601
0.0107434
0.0107228
0.0107062
0.0106857
0.0106696
0.0106495
0.0106341
0.0106146
0.0106
0.0105812
0.0105676
0.0105494
0.0105367
0.0105192
0.0105075
0.0104906
0.0104797
0.0104635
0.0104534
0.0104378
0.0104285
0.0104134
0.0104049
0.0103902
0.0103824
0.0103682
0.010361
0.0103472
0.0103406
0.0103271
0.0103211
0.010308
0.0103026
0.0102898
0.0102848
0.0102723
0.0102678
0.0102555
0.0102515
0.0102394
0.0102358
0.0102239
0.0102208
0.010209
0.0102062
0.0101946
0.0101922
0.0101807
0.0101786
0.0101673
0.0101655
0.0101543
0.0101528
0.0101416
0.0101404
0.0101294
0.0101284
0.0101175
0.0101167
0.0101059
0.0101054
0.0100946
0.0100943
0.0100836
0.0100834
0.0100728
0.0100729
0.0100623
0.0100625
0.010052
0.0100523
0.0100419
0.0100424
0.010032
0.0100325
0.0100223
0.0100229
0.0100128
0.0100134
0.0100033
0.0100041
0.00999434
0.0099942
0.00998475
0.00998882
0.00997667
0.00997274
0.0099636
0.0106352
0.0106423
0.0106477
0.0106461
0.0106431
0.0106347
0.0106266
0.0106142
0.0106031
0.0105882
0.0105755
0.0105592
0.0105456
0.0105287
0.010515
0.0104979
0.0104844
0.0104675
0.0104545
0.010438
0.0104256
0.0104095
0.0103979
0.0103823
0.0103714
0.0103563
0.0103461
0.0103314
0.0103219
0.0103077
0.0102989
0.0102852
0.010277
0.0102636
0.010256
0.010243
0.010236
0.0102233
0.0102168
0.0102044
0.0101985
0.0101864
0.0101809
0.010169
0.0101641
0.0101524
0.0101478
0.0101363
0.0101322
0.0101209
0.0101172
0.010106
0.0101027
0.0100917
0.0100887
0.0100778
0.0100751
0.0100643
0.010062
0.0100512
0.0100492
0.0100386
0.0100369
0.0100263
0.0100248
0.0100143
0.0100131
0.0100026
0.0100017
0.00999124
0.00999051
0.00998014
0.00997962
0.00996929
0.00996898
0.00995869
0.00995855
0.00994831
0.00994833
0.00993813
0.00993831
0.00992815
0.00992846
0.00991836
0.00991877
0.00990873
0.00990924
0.00989925
0.00989984
0.00988994
0.00989056
0.00988067
0.00988146
0.00987197
0.00987222
0.00986228
0.00986334
0.00985139
0.00987614
0.00981767
0.0104602
0.0104672
0.0104732
0.0104732
0.0104719
0.0104657
0.0104598
0.0104499
0.0104412
0.0104289
0.0104185
0.0104048
0.0103935
0.0103792
0.0103676
0.010353
0.0103415
0.010327
0.0103158
0.0103015
0.0102908
0.0102768
0.0102667
0.010253
0.0102434
0.0102302
0.0102211
0.0102083
0.0101998
0.0101873
0.0101793
0.0101671
0.0101596
0.0101478
0.0101408
0.0101292
0.0101227
0.0101114
0.0101053
0.0100943
0.0100886
0.0100778
0.0100725
0.0100619
0.010057
0.0100465
0.010042
0.0100317
0.0100275
0.0100173
0.0100134
0.0100034
0.00999983
0.00998998
0.00998663
0.00997691
0.00997381
0.00996421
0.00996134
0.00995185
0.00994919
0.00993983
0.00993736
0.0099281
0.00992581
0.00991667
0.00991453
0.00990551
0.0099035
0.0098946
0.00989271
0.00988394
0.00988214
0.0098735
0.00987178
0.00986328
0.0098616
0.00985326
0.00985161
0.00984344
0.00984178
0.00983379
0.0098321
0.00982431
0.00982256
0.009815
0.00981315
0.00980583
0.00980385
0.00979681
0.0097947
0.00978802
0.00978544
0.00977876
0.00977733
0.00977191
0.00976777
0.00976784
0.00973757
0.00977915
0.0103256
0.010332
0.0103383
0.0103391
0.0103389
0.0103341
0.0103297
0.0103216
0.0103145
0.0103041
0.0102954
0.0102837
0.0102741
0.0102617
0.0102517
0.010239
0.0102291
0.0102164
0.0102067
0.0101941
0.0101847
0.0101724
0.0101634
0.0101513
0.0101428
0.010131
0.0101229
0.0101114
0.0101037
0.0100926
0.0100853
0.0100744
0.0100675
0.0100569
0.0100504
0.01004
0.0100339
0.0100236
0.0100179
0.0100079
0.0100025
0.00999261
0.00998753
0.00997785
0.00997308
0.00996355
0.00995907
0.00994968
0.00994548
0.00993622
0.00993227
0.00992313
0.00991943
0.0099104
0.00990692
0.009898
0.00989473
0.00988591
0.00988283
0.00987412
0.00987122
0.0098626
0.00985987
0.00985135
0.00984877
0.00984035
0.00983791
0.00982959
0.00982726
0.00981905
0.00981682
0.00980872
0.00980658
0.00979859
0.00979652
0.00978865
0.00978663
0.00977889
0.0097769
0.0097693
0.00976732
0.00975987
0.00975788
0.0097506
0.00974856
0.00974147
0.00973937
0.00973247
0.00973028
0.00972361
0.00972134
0.00971496
0.0097123
0.00970585
0.00970441
0.00969918
0.00969512
0.0096954
0.00966563
0.00970654
0.0102243
0.0102302
0.0102365
0.0102375
0.010238
0.010234
0.0102307
0.0102236
0.0102178
0.0102087
0.0102013
0.0101909
0.0101827
0.0101717
0.010163
0.0101517
0.010143
0.0101316
0.0101229
0.0101116
0.0101032
0.0100921
0.010084
0.0100731
0.0100653
0.0100547
0.0100472
0.0100368
0.0100297
0.0100196
0.0100127
0.0100028
0.00999629
0.00998662
0.00998037
0.00997092
0.00996495
0.00995569
0.00994999
0.00994093
0.00993547
0.00992659
0.00992137
0.00991267
0.00990766
0.00989913
0.00989433
0.00988596
0.00988134
0.00987313
0.00986869
0.00986063
0.00985635
0.00984844
0.0098443
0.00983654
0.00983252
0.00982492
0.00982101
0.00981356
0.00980974
0.00980245
0.0097987
0.00979157
0.00978788
0.00978093
0.00977727
0.00977049
0.00976685
0.00976027
0.00975662
0.00975023
0.00974656
0.00974039
0.00973666
0.00973072
0.00972692
0.00972122
0.00971731
0.00971189
0.00970785
0.00970271
0.0096985
0.00969367
0.00968927
0.00968478
0.00968015
0.00967602
0.00967112
0.00966738
0.00966219
0.00965894
0.00965327
0.0096503
0.00964505
0.00964254
0.00963282
0.00963376
0.00963309
0.00962507
0.0101491
0.0101544
0.0101604
0.0101611
0.010162
0.0101582
0.0101556
0.0101489
0.010144
0.0101353
0.010129
0.0101191
0.0101119
0.0101014
0.0100938
0.010083
0.0100753
0.0100644
0.0100568
0.010046
0.0100385
0.0100279
0.0100207
0.0100102
0.0100033
0.00999304
0.00998633
0.00997634
0.0099699
0.00996014
0.00995396
0.00994441
0.00993848
0.00992914
0.00992345
0.00991431
0.00990884
0.00989989
0.00989464
0.00988587
0.00988083
0.00987224
0.00986738
0.00985896
0.00985428
0.00984602
0.0098415
0.0098334
0.00982903
0.00982108
0.00981685
0.00980906
0.00980494
0.0097973
0.0097933
0.00978581
0.00978189
0.00977456
0.00977072
0.00976354
0.00975976
0.00975275
0.00974901
0.00974217
0.00973846
0.00973179
0.0097281
0.00972162
0.00971791
0.00971163
0.00970789
0.00970181
0.00969802
0.00969217
0.00968831
0.0096827
0.00967874
0.00967338
0.00966929
0.00966421
0.00965997
0.00965518
0.00965077
0.0096463
0.00964167
0.00963754
0.00963267
0.00962892
0.00962376
0.00962039
0.00961494
0.00961209
0.00960615
0.00960343
0.00959762
0.00959605
0.00958917
0.00959013
0.00956021
0.00960233
0.0100884
0.0100931
0.0100988
0.0100991
0.0101001
0.0100962
0.010094
0.0100874
0.0100831
0.0100746
0.010069
0.0100594
0.0100531
0.0100429
0.0100362
0.0100257
0.0100189
0.0100084
0.0100016
0.00999116
0.00998459
0.00997426
0.0099679
0.00995775
0.00995163
0.00994167
0.00993579
0.00992602
0.00992038
0.0099108
0.00990538
0.00989599
0.00989078
0.00988156
0.00987656
0.00986751
0.00986269
0.00985381
0.00984917
0.00984045
0.00983597
0.0098274
0.00982309
0.00981466
0.00981049
0.00980221
0.00979817
0.00979004
0.00978611
0.00977812
0.0097743
0.00976645
0.00976273
0.00975502
0.00975138
0.00974382
0.00974025
0.00973283
0.00972931
0.00972205
0.00971857
0.00971147
0.00970802
0.00970108
0.00969764
0.00969088
0.00968744
0.00968086
0.00967739
0.00967101
0.0096675
0.00966132
0.00965775
0.0096518
0.00964814
0.00964242
0.00963866
0.0096332
0.00962931
0.00962411
0.00962006
0.00961516
0.00961093
0.00960634
0.0096019
0.00959765
0.00959297
0.00958909
0.00958413
0.00958063
0.00957534
0.00957229
0.00956679
0.00956419
0.00955751
0.0095552
0.00954995
0.00954563
0.00954148
0.00953699
0.010041
0.010045
0.0100502
0.0100501
0.0100511
0.0100472
0.0100452
0.0100388
0.0100349
0.0100267
0.0100217
0.0100124
0.0100067
0.00999689
0.0099909
0.00998074
0.00997471
0.00996443
0.0099585
0.00994822
0.00994246
0.00993225
0.00992669
0.00991658
0.00991125
0.00990125
0.00989614
0.00988625
0.00988137
0.00987159
0.00986693
0.00985726
0.00985279
0.00984323
0.00983896
0.00982951
0.00982542
0.00981608
0.00981217
0.00980294
0.00979919
0.00979007
0.00978648
0.00977747
0.00977403
0.00976513
0.00976182
0.00975303
0.00974984
0.00974117
0.0097381
0.00972955
0.00972657
0.00971814
0.00971525
0.00970695
0.00970413
0.00969597
0.00969321
0.00968519
0.00968248
0.00967461
0.00967192
0.00966422
0.00966154
0.00965401
0.00965133
0.00964399
0.00964128
0.00963413
0.00963137
0.00962445
0.00962162
0.00961493
0.009612
0.00960556
0.00960251
0.00959635
0.00959314
0.00958728
0.00958389
0.00957835
0.00957474
0.00956956
0.00956569
0.00956091
0.00955674
0.00955239
0.00954788
0.00954398
0.00953906
0.00953567
0.00953043
0.00952768
0.00952142
0.00951841
0.00950992
0.00950555
0.00953033
0.00947605
0.0100073
0.0100107
0.0100153
0.0100148
0.0100155
0.0100115
0.0100094
0.0100031
0.0099992
0.0099912
0.0099862
0.00997715
0.00997151
0.00996182
0.0099559
0.00994585
0.00993986
0.00992962
0.00992372
0.0099134
0.00990764
0.00989728
0.00989173
0.00988136
0.00987603
0.00986569
0.0098606
0.0098503
0.00984546
0.00983521
0.00983065
0.00982045
0.00981616
0.00980602
0.009802
0.00979192
0.00978818
0.00977816
0.00977469
0.00976472
0.00976152
0.0097516
0.00974869
0.00973877
0.00973609
0.00972619
0.00972376
0.00971387
0.00971168
0.00970181
0.00969987
0.00969002
0.00968831
0.00967848
0.00967701
0.00966719
0.00966594
0.00965614
0.00965511
0.00964532
0.0096445
0.00963472
0.0096341
0.00962432
0.0096239
0.00961413
0.0096139
0.00960413
0.00960407
0.00959432
0.00959442
0.00958468
0.00958494
0.0095752
0.0095756
0.00956588
0.00956642
0.00955671
0.00955737
0.00954769
0.00954845
0.0095388
0.00953965
0.00953004
0.00953097
0.00952141
0.00952239
0.00951289
0.00951392
0.0095045
0.00950553
0.00949615
0.00949731
0.0094882
0.00948852
0.00947964
0.00948387
0.00947245
0.00946877
0.00946084
0.00998176
0.00998473
0.00998857
0.00998763
0.00998771
0.00998339
0.00998072
0.00997395
0.00996932
0.00996082
0.00995491
0.00994529
0.00993863
0.00992834
0.00992133
0.00991068
0.0099036
0.00989285
0.00988581
0.00987478
0.00986776
0.00985672
0.00984995
0.00983905
0.00983264
0.00982197
0.00981597
0.00980555
0.00979999
0.00978982
0.00978469
0.00977475
0.00977002
0.00976029
0.00975595
0.0097464
0.00974241
0.00973301
0.00972937
0.00972009
0.00971676
0.00970759
0.00970453
0.00969549
0.00969272
0.00968378
0.00968128
0.00967241
0.00967015
0.00966134
0.0096593
0.00965052
0.0096487
0.00963995
0.00963832
0.00962959
0.00962815
0.00961943
0.00961817
0.00960945
0.00960836
0.00959965
0.00959872
0.00959002
0.00958924
0.00958054
0.00957991
0.00957121
0.00957072
0.00956202
0.00956167
0.00955297
0.00955274
0.00954404
0.00954394
0.00953525
0.00953525
0.00952657
0.00952668
0.00951801
0.00951821
0.00950955