/*--------------------------------*- C++ -*----------------------------------*\
  =========                 |
  \\      /  F ield         | OpenFOAM: The Open Source CFD Toolbox
   \\    /   O peration     | Website:  https://openfoam.org
    \\  /    A nd           | Version:  8
     \\/     M anipulation  |
\*---------------------------------------------------------------------------*/
FoamFile
{
    version     2.0;
    format      ascii;
    class       volScalarField;
    location    "1.499985";
    object      epsilon;
}
// * * * * * * * * * * * * * * * * * * * * * * * * * * * * * * * * * * * * * //

dimensions      [0 2 -3 0 0 0 0];

internalField   nonuniform List<scalar> 
6800
(
3622.51
12388.8
10572.9
8368.57
6391.2
4362.9
2616.94
1315.84
703.491
430.25
2856.63
8320.11
8118.49
7152.79
4991.45
2757.61
1353.68
720.172
404.522
274.044
2892.69
7208.71
7133.49
6039.89
3477.54
1670.27
859.243
460.254
269.442
168.281
3006.66
6411.4
6606.19
5121.58
2379.94
1097.48
509.705
283.441
176.168
127.322
3053.85
6189.59
6218.53
3803.61
1544.47
666.148
357.723
220.648
144.58
105.598
3129.32
6216.14
5916
2809.47
1084.27
516.972
276.735
162.896
110.465
87.6124
3167.92
6678.25
5370.46
1840.13
743.294
358.902
205.127
138.395
99.8318
81.9768
3220.72
7074.33
4445.23
1508.44
626.168
313.751
183.784
117.954
85.2554
72.6638
3247.75
7595.79
3702.57
1092.14
452.383
239.792
146.875
102.619
80.84
70.0709
3283.79
7921.23
2883.86
953.798
410.445
222.365
137.199
96.3775
73.5203
64.4926
17787.1
21001.5
19925
20199.7
22067.8
24455.6
26916.1
28912.2
29959.2
30220.5
17272.3
19956.8
19983.6
21100.5
24474
28607.3
32831
36449.2
39001
39956.4
16257.7
18330.7
19974.8
23058.8
29213.2
35874.9
41352.5
44756.8
46324
46207.8
15216.6
17296
20730.4
27998.8
37541.1
44947.3
48212.7
47985.5
47026.5
43250
14469.3
17918.9
27044.6
39638.3
49756.5
51407.5
49959.3
45001.4
40476.2
30149.4
14275.7
21145.9
43592.1
56672.2
56508.7
51979.4
43440.6
31002
23120.7
13226.5
16643.8
38466.9
63333.6
61079.3
52667
35441.3
21718.1
12978.6
9250.16
5524.22
18395.9
59079.8
60945.9
45852.4
24638.2
14677.3
9560.95
6316.42
4783.36
2871.21
16698.2
47249.6
35896.2
19743.9
12224.8
8236.41
5712.89
3981.98
2994.54
1703.58
10279.9
19744.7
15211.5
10489
7797.75
5757.22
4056.54
2780.16
1598.15
798.144
29249.2
26581.8
23946.9
21582.6
19571.6
17885.5
16462.3
15249.1
14205.2
13298.7
12504.4
11802.8
11178.6
10619.4
10115.2
9657.79
9240.55
8857.88
8505.22
8178.75
7875.31
7592.17
7327.12
7078.13
6843.68
6622.48
6413.32
6215.17
6027.12
5848.4
5678.32
5516.35
5361.97
5214.75
5074.28
4940.19
4812.13
4689.76
4572.76
4460.81
4353.63
4250.89
4152.31
4057.62
3966.57
3878.91
3794.44
3712.95
3634.26
3558.21
3484.66
3413.46
3344.51
3277.69
3212.92
3150.1
3089.15
3030.01
2972.59
2916.84
2862.69
2810.1
2759
2709.36
2661.11
2614.23
2568.66
2524.36
2481.3
2439.43
2398.73
2359.14
2320.64
2283.19
2246.75
2211.29
2176.77
2143.16
2110.42
2078.51
2047.41
2017.06
1987.48
1958.58
1930.41
1902.83
1875.97
1849.6
1824.02
1798.71
1774.4
1749.98
1727.05
1703.21
1681.92
1658.12
1639.27
1614.11
1600.18
1566.02
38913.1
35137.7
31385.6
28154.5
25436.5
23143
21206.5
19549.8
18126.2
16895.2
15821.6
14877.7
14040.9
13293.8
12622
12014
11460.4
10953.6
10487.2
10056.1
9656.04
9283.32
8934.99
8608.28
8301.72
8013.61
7741.93
7485.15
7241.99
7011.44
6792.6
6584.7
6387.05
6199.01
6019.98
5849.44
5686.85
5531.76
5383.66
5242.18
5106.83
4977.19
4852.88
4733.59
4619.01
4508.84
4402.84
4300.75
4202.36
4107.45
4015.83
3927.34
3841.83
3759.15
3679.17
3601.77
3526.85
3454.3
3384.03
3315.94
3249.94
3185.96
3123.94
3063.8
3005.47
2948.88
2893.98
2840.71
2789.01
2738.81
2690.08
2642.76
2596.8
2552.14
2508.75
2466.58
2425.58
2385.69
2346.88
2309.1
2272.33
2236.48
2201.58
2167.51
2134.35
2101.92
2070.38
2039.43
2009.46
1979.84
1951.43
1922.91
1896.17
1868.4
1843.65
1815.98
1794.09
1764.92
1748.84
1709.36
45155.7
41491.5
37352.9
33749.7
30677.2
28041.4
25779.7
23858
22203.3
20763
19499
18381.3
17385.3
16491.5
15684.4
14950.4
14278.5
13660
13087.9
12556.3
12060.7
11596.9
11161.5
10752
10365.4
9999.45
9652.87
9324.4
9012.86
8717.26
8436.55
8169.83
7916.22
7674.93
7445.19
7226.31
7017.62
6818.51
6628.32
6446.71
6272.51
6105.34
5944.99
5791.13
5643.42
5501.5
5365.04
5233.73
5107.27
4985.39
4867.87
4754.46
4644.99
4539.26
4437.1
4338.36
4242.87
4150.51
4061.14
3974.64
3890.87
3809.79
3731.31
3655.31
3581.67
3510.3
3441.12
3374.04
3308.98
3245.89
3184.67
3125.28
3067.63
3011.67
2957.33
2904.54
2853.24
2803.37
2754.87
2707.67
2661.76
2617.04
2573.52
2531.07
2489.78
2449.42
2410.22
2371.78
2334.59
2297.84
2262.67
2227.34
2194.32
2159.97
2129.47
2095.31
2068.44
2032.51
2012.81
1964.3
41551.9
38512
35329.4
32464.7
29970.9
27786.2
25860.7
24159.5
22663.1
21345.3
20180.1
19143.6
18214.8
17377.1
16617.7
15922.2
15280.7
14685.2
14129.9
13610.2
13122
12662
12227.3
11815.8
11425.4
11054.4
10701.4
10365.3
10044.9
9739.48
9448.02
9169.91
8904.4
8650.79
8408.44
8176.66
7954.85
7742.33
7538.77
7343.05
7156.04
6976.94
6804.94
6639.41
6479.9
6325.98
6177.34
6033.68
5894.75
5760.32
5630.18
5504.13
5382.03
5263.7
5148.99
5037.76
4929.87
4825.19
4723.62
4625.02
4529.34
4436.39
4346.09
4258.38
4173.18
4090.43
4010.07
3932.03
3856.23
3782.6
3711.08
3641.58
3574.06
3508.41
3444.61
3382.51
3322.05
3263.19
3205.9
3150.09
3095.76
3042.79
2991.22
2940.88
2891.89
2843.97
2797.44
2751.74
2707.58
2663.84
2622.07
2579.96
2540.76
2499.77
2463.6
2422.8
2390.93
2348.1
2324.81
2266.89
27212.5
24190.6
21784.1
19942.1
18532.1
17430.7
16545.2
15819.3
15210.9
14693.1
14246.7
13851.5
13493.5
13167.1
12864.8
12568.2
12276.4
11990
11710.9
11439.1
11174.8
10917.6
10667.5
10424.1
10187.4
9957.2
9733.23
9515.67
9303.99
9098.74
8899.09
8705.81
8518.26
8336.41
8159.58
7987.39
7819.67
7656.4
7497.28
7342.5
7191.3
7043.8
6900.01
6759.89
6623.33
6490.25
6360.51
6234.04
6110.73
5990.45
5873.16
5758.75
5647.19
5538.33
5432.12
5328.44
5227.25
5128.45
5032
4937.84
4845.92
4756.2
4668.61
4583.12
4499.69
4418.29
4338.86
4261.38
4185.79
4112.08
4040.17
3970.05
3901.63
3834.91
3769.76
3706.26
3644.36
3583.95
3524.98
3467.36
3411.08
3356.02
3302.25
3249.57
3198.18
3147.7
3098.6
3050.15
3003.33
2956.67
2912.2
2867.01
2825.15
2780.9
2742.18
2697.91
2663.77
2617.18
2592.16
2528.88
11554.6
10065.4
8957.54
8129.87
7497.81
7007.51
6622.65
6318.03
6076.04
5889.12
5745.37
5633.31
5551.13
5496.9
5453.22
5448.17
5457.94
5484.53
5528.96
5583.38
5642.63
5703.38
5763.46
5820.58
5872.92
5919.63
5959.41
5992.66
6018.09
6037.5
6048.49
6055.08
6052.94
6043.97
6026.09
5999.31
5966.66
5929.14
5887.38
5842.19
5794
5743.33
5690.49
5635.86
5579.67
5522.16
5463.5
5403.97
5343.46
5282.27
5220.66
5158.66
5096.33
5033.54
4970.5
4907.12
4843.66
4780.04
4716.55
4653.23
4590.11
4527.31
4464.91
4403.01
4341.66
4280.96
4220.95
4161.68
4103.19
4045.5
3988.62
3932.58
3877.38
3823
3769.47
3716.7
3664.74
3613.52
3563.12
3513.44
3464.57
3416.4
3369.05
3322.31
3276.49
3231.12
3186.86
3142.78
3100.15
3057.21
3016.38
2974.32
2935.61
2893.98
2857.96
2815.92
2783.97
2739.56
2716
2655.05
4978.88
4406.09
3933.96
3550.26
3233.57
2970.18
2749.82
2562.95
2404.63
2270.21
2157.96
2062.63
1983.79
1918.8
1865.93
1825.3
1794.13
1776.1
1762.52
1763.62
1770.77
1785.72
1810.82
1841.9
1879.3
1922.12
1969.74
2022.32
2078.42
2139.05
2201.71
2268.59
2336.13
2408.2
2484.42
2563.73
2644.7
2726.44
2807.73
2887.8
2965.63
3040.59
3111.96
3179.25
3242.04
3299.99
3352.95
3400.74
3443.39
3480.78
3513.03
3540.21
3561.67
3577.6
3588.89
3595.58
3598.52
3597.5
3594.4
3587.9
3578.59
3567.06
3553.54
3538.28
3521.46
3503.26
3483.82
3463.26
3441.71
3419.27
3396.01
3372.01
3347.31
3321.94
3295.96
3269.39
3242.33
3214.71
3186.78
3158.36
3129.75
3100.76
3071.61
3042.22
3012.89
2983.23
2953.88
2924.03
2894.91
2864.91
2836.3
2806.06
2778.36
2747.64
2721.35
2689.66
2665.86
2631.96
2614.21
2566.41
2602.92
2309.49
2056.87
1843.91
1660.22
1501.31
1360.46
1238.79
1132.84
1040.78
960.552
889.376
826.698
771.488
723.752
681.803
646.107
614.876
588.789
565.864
547.517
531.847
520.267
510.94
505.14
501.28
500.306
501.62
505.168
510.746
519.213
530.011
543.182
559.117
577.847
599.797
624.881
653.498
685.344
720.721
759.24
801.15
845.968
893.785
944.082
996.847
1051.54
1108.06
1165.88
1224.78
1284.47
1344.54
1405.57
1467.23
1528.75
1589.81
1649.81
1708.48
1765.32
1820.2
1872.64
1922.61
1969.77
2014.18
2055.58
2094.12
2129.63
2162.29
2192.03
2218.91
2243.06
2264.43
2282.88
2298.73
2312.08
2323.13
2332.15
2339.06
2344.44
2347.76
2350.16
2350.26
2349.55
2348.05
2345.07
2341.06
2336.09
2330.15
2323.57
2315.9
2308.04
2298.77
2289.95
2279.14
2269.67
2257.2
2247.83
2233.33
2225.6
2202.96
1532.6
1343.83
1176.27
1031.18
906.241
799.179
707.5
629.659
562.69
505.908
456.46
415.142
380.226
350.314
324.567
302.151
282.639
265.423
250.324
236.868
225.004
214.356
204.945
196.464
188.973
182.219
176.291
170.95
166.352
162.231
158.799
155.777
153.428
151.467
150.19
149.332
149.442
150.017
150.806
152.644
154.924
158.409
162.515
167.817
173.83
181.189
189.364
199.037
209.644
221.916
235.233
250.402
266.692
285.034
304.56
326.308
349.252
374.497
400.885
429.562
459.264
491.151
523.87
558.598
593.889
630.955
668.254
707.043
745.678
785.522
824.798
864.982
904.622
944.897
984.111
1023.54
1061.44
1099.2
1135.04
1170.51
1203.7
1236.44
1266.57
1296.27
1323.17
1349.72
1373.29
1396.69
1416.98
1437.35
1454.45
1471.96
1486
1500.84
1511.76
1524.19
1532
1542.77
1548.14
1558.08
687.503
586.121
506.135
443.181
392.773
351.602
317.356
288.472
263.795
242.525
223.998
207.753
193.428
180.737
169.438
159.345
150.289
142.146
134.785
128.124
122.063
116.551
111.502
106.89
102.639
98.7425
95.1263
91.8047
88.7016
85.851
83.1689
80.7089
78.3797
76.2529
74.2251
72.4066
70.6254
69.0717
67.537
66.2129
64.8944
63.8188
62.7393
61.9292
61.111
60.5765
60.0464
59.7912
59.5844
59.6392
59.8171
60.1857
60.637
61.5275
62.445
64.0119
65.3391
67.6401
69.4686
72.5568
75.082
79.0662
82.4418
87.5005
91.9018
98.2346
103.851
111.667
118.678
128.174
136.758
148.108
158.398
171.734
183.808
199.198
213.059
230.498
246.071
265.49
282.624
303.895
322.372
345.31
364.848
389.23
409.485
435.056
455.635
482.127
502.615
529.776
549.712
577.371
596.603
624.634
642.635
670.977
684.316
724.37
273.626
256.294
239.305
222.985
207.484
192.998
179.636
167.419
156.316
146.256
137.159
128.936
121.499
114.766
108.658
103.108
98.0513
93.4357
89.2015
85.3169
81.7359
78.4383
75.3826
72.5591
69.9285
67.4904
65.2062
63.0843
61.085
59.2249
57.4624
55.8214
54.2572
52.8013
51.4049
50.1067
48.8536
47.6916
46.5608
45.5169
44.4918
43.5512
42.6185
41.7693
40.9189
40.1518
39.3758
38.6839
37.9759
37.3548
36.7094
36.1565
35.5703
35.0842
34.5573
34.1376
33.6737
33.3202
32.924
32.6387
32.3177
32.104
31.867
31.7347
31.5985
31.565
31.583
31.6469
31.7797
32.0392
32.2945
32.8145
33.2248
34.0566
34.6593
35.8758
36.7132
38.3992
39.5256
41.769
43.25
46.148
48.0317
51.7191
54.049
58.6669
61.4956
67.163
70.5609
77.3607
81.381
89.4135
94.0916
103.427
108.828
119.375
125.889
137.41
142.681
162.988
170.35
159.711
149.544
139.96
131.158
123.116
115.803
109.153
103.112
97.6125
92.6052
88.0297
83.8478
80.0101
76.4875
73.2405
70.2471
67.4759
64.9174
62.5435
60.341
58.2876
56.3729
54.5794
52.899
51.3182
49.8302
48.4256
47.098
45.8414
44.6494
43.519
42.4428
41.421
40.4448
39.517
38.6274
37.7815
36.967
36.1924
35.4436
34.7314
34.04
33.3825
32.7416
32.1325
31.5363
30.9703
30.4139
29.8868
29.3661
28.8743
28.3857
27.9265
27.467
27.038
26.6051
26.2041
25.7954
25.4204
25.0335
24.6848
24.3197
23.9959
23.6498
23.35
23.0242
22.7483
22.4401
22.1885
21.9007
21.6735
21.4086
21.2063
20.9675
20.791
20.5825
20.4322
20.26
20.1362
20.0054
19.9116
19.8308
19.7744
19.7561
19.7657
19.8163
19.8858
19.9809
20.1678
20.3299
20.6221
20.9169
21.3306
21.8714
22.3371
22.9834
23.4765
24.4367
25.8199
114.686
109.204
103.933
98.8923
94.1255
89.6371
85.4412
81.5182
77.8693
74.4664
71.307
68.3605
65.6243
63.0683
60.6916
58.4657
56.3921
54.4442
52.6256
50.9111
49.3068
47.7891
46.3659
45.0148
43.7455
42.5364
41.3987
40.3112
39.2864
38.3036
37.3762
36.4838
35.6409
34.8271
34.0578
33.3125
32.6077
31.9226
31.2746
30.6426
30.0449
29.4599
28.9067
28.3634
27.85
27.3439
26.866
26.3931
25.947
25.5038
25.0865
24.67
24.2787
23.8863
23.5186
23.1481
22.8019
22.4512
22.1248
21.7923
21.484
21.168
20.8764
20.5755
20.2995
20.0125
19.7509
19.4765
19.2284
18.9657
18.7302
18.4782
18.2547
18.0126
17.8005
17.5676
17.3663
17.1419
16.9512
16.7347
16.5541
16.3451
16.1745
15.9738
15.8141
15.6218
15.4734
15.2893
15.1525
14.9766
14.8525
14.6848
14.5742
14.4156
14.3207
14.1723
14.0879
13.9538
13.8906
13.7382
82.6594
79.5478
76.4683
73.4289
70.4755
67.6291
64.918
62.3409
59.9116
57.6183
55.4682
53.4442
51.5512
49.7695
48.1041
46.5345
45.0666
43.6796
42.381
41.1502
39.9962
38.8986
37.8681
36.8843
35.9596
35.0733
34.2395
33.4372
32.6818
31.952
31.2645
30.5974
29.9689
29.3562
28.779
28.2139
27.6817
27.1581
26.6656
26.1787
25.7213
25.2669
24.8408
24.4153
24.0173
23.6176
23.2448
22.8683
22.5183
22.1626
21.8333
21.4965
21.186
20.8662
20.573
20.2688
19.9915
19.7015
19.4389
19.1619
18.9129
18.6478
18.4116
18.1574
17.933
17.6888
17.4755
17.2406
17.0378
16.8113
16.6183
16.3997
16.216
16.0046
15.8297
15.625
15.4585
15.2599
15.1015
14.9086
14.7578
14.5702
14.4267
14.244
14.1075
13.9293
13.7995
13.6255
13.5023
13.3321
13.2152
13.0487
12.9383
12.7752
12.6722
12.5141
12.4192
12.2669
12.162
11.989
63.684
61.8034
59.9083
58.0007
56.1178
54.2755
52.4993
50.7887
49.1585
47.6007
46.1254
44.7207
43.3945
42.1326
40.9426
39.8093
38.7406
37.7208
36.7585
35.8377
34.9681
34.1333
33.3442
32.584
31.8649
31.1695
30.5111
29.8721
29.2669
28.6772
28.1188
27.5725
27.0553
26.5474
26.0669
25.5931
25.1454
24.7021
24.2837
23.8677
23.4758
23.0843
22.7164
22.347
22.0009
21.6516
21.3253
20.9942
20.6861
20.3716
20.0803
19.781
19.505
19.2197
18.958
18.6854
18.437
18.1762
17.9401
17.6902
17.4656
17.2257
17.012
16.7814
16.5778
16.3559
16.1619
15.9479
15.763
15.5565
15.3801
15.1805
15.0124
14.8192
14.6588
14.4715
14.3186
14.1368
13.991
13.8143
13.6753
13.5034
13.3709
13.2033
13.0771
12.9137
12.7935
12.6338
12.5195
12.3632
12.2546
12.1015
11.9985
11.8479
11.7503
11.6034
11.5129
11.3691
11.2713
11.1096
52.2668
51.0349
49.776
48.4848
47.1914
45.9054
44.65
43.4234
42.2414
41.097
40.0029
38.9485
37.9448
36.9794
36.0624
35.1803
34.3433
33.537
32.7721
32.0338
31.3333
30.6553
30.012
29.3875
28.7949
28.2177
27.67
27.1347
26.6268
26.1288
25.6564
25.1916
24.751
24.3157
23.9037
23.4951
23.1088
22.7243
22.3614
21.9985
21.6569
21.3138
20.9916
20.6665
20.3621
20.0534
19.7653
19.4716
19.1986
18.9187
18.6597
18.3923
18.1463
17.8906
17.6566
17.4116
17.1888
16.9538
16.7415
16.5157
16.3133
16.096
15.9028
15.6935
15.5091
15.3071
15.131
14.9359
14.7677
14.579
14.4183
14.2356
14.082
13.9048
13.7581
13.5861
13.4458
13.2786
13.1447
12.982
12.854
12.6955
12.5733
12.4186
12.3021
12.1509
12.0398
11.892
11.7861
11.6413
11.5406
11.3986
11.3028
11.1632
11.0725
10.9355
10.8476
10.7142
10.6547
10.4497
45.3136
44.4255
43.5104
42.5597
41.5981
40.6309
39.6788
38.7384
37.8251
36.9318
36.0715
35.2343
34.4322
33.6534
32.9094
32.1873
31.4987
30.8298
30.1924
29.5723
28.9817
28.4058
27.8576
27.3217
26.8117
26.3117
25.8361
25.3685
24.9239
24.4854
24.0689
23.6567
23.2656
22.8772
22.5092
22.1424
21.7956
21.4484
21.1208
20.7917
20.4818
20.1691
19.8756
19.578
19.2996
19.0159
18.7514
18.4805
18.229
17.97
17.7306
17.4826
17.2545
17.0166
16.7991
16.5707
16.3631
16.1435
15.9454
15.7339
15.5446
15.3408
15.1599
14.9632
14.7902
14.6002
14.4348
14.251
14.0928
13.9148
13.7635
13.5909
13.4461
13.2787
13.1402
12.9775
12.845
12.6867
12.56
12.4059
12.2848
12.1345
12.0189
11.8721
11.7617
11.6182
11.5129
11.3725
11.2722
11.1346
11.039
10.9041
10.8132
10.6805
10.5944
10.4641
10.3807
10.2536
10.1972
10.0023
40.933
40.2284
39.5007
38.7392
37.9653
37.1807
36.4042
35.631
34.8761
34.1315
33.4108
32.704
32.0238
31.3584
30.7203
30.0968
29.5001
28.9167
28.3594
27.8137
27.293
26.7823
26.2952
25.8165
25.3603
24.9107
24.4827
24.0597
23.6574
23.2586
22.8799
22.5032
22.1459
21.7894
21.4519
21.1139
20.7946
20.4736
20.171
19.8656
19.5785
19.2876
19.0149
18.7373
18.478
18.2127
17.9658
17.7119
17.4767
17.2334
17.0091
16.7756
16.5615
16.3373
16.1328
15.9171
15.7216
15.5139
15.327
15.1268
14.948
14.7548
14.5837
14.397
14.2333
14.0527
13.8959
13.7211
13.571
13.4015
13.2578
13.0934
12.9557
12.796
12.6642
12.5089
12.3828
12.2316
12.1109
11.9635
11.848
11.7043
11.5939
11.4535
11.348
11.2107
11.11
10.9756
10.8795
10.7478
10.6563
10.527
10.4399
10.3127
10.2297
10.1055
10.0286
9.90674
9.8235
9.68642
38.0262
37.4237
36.8024
36.1512
35.4882
34.8136
34.144
33.474
32.8177
32.1672
31.5356
30.913
30.312
29.7213
29.1532
28.5955
28.0606
27.5353
27.0324
26.5379
26.0653
25.5998
25.1554
24.7167
24.2984
23.8844
23.4902
23.099
22.727
22.3566
22.005
21.6538
21.3211
20.9876
20.6723
20.3551
20.0559
19.7538
19.4696
19.1814
18.9111
18.6358
18.3785
18.1152
17.87
17.6178
17.384
17.1422
16.919
16.687
16.4738
16.2507
16.047
15.8324
15.6376
15.4309
15.2445
15.0452
14.8667
14.6744
14.5036
14.3177
14.1541
13.9743
13.8176
13.6436
13.4934
13.3247
13.1809
13.0173
12.8794
12.7206
12.5885
12.4341
12.3076
12.1573
12.0362
11.8898
11.7738
11.6311
11.5202
11.3809
11.2747
11.1386
11.0372
10.904
10.8071
10.6768
10.5843
10.4565
10.3684
10.2429
10.159
10.0356
9.95602
9.83486
9.75771
9.63947
9.58705
9.40632
36.004
35.4625
34.9055
34.3224
33.7291
33.1245
32.5236
31.921
31.3294
30.7414
30.1691
29.6034
29.0559
28.5163
27.9962
27.484
26.9919
26.5072
26.0423
25.584
25.1453
24.712
24.2978
23.8879
23.4966
23.1084
22.7384
22.3703
22.0201
21.6706
21.3387
21.0064
20.6915
20.3751
20.076
19.7743
19.4899
19.2019
18.9312
18.6559
18.398
18.1346
17.8887
17.6363
17.4017
17.1596
16.9355
16.7031
16.489
16.2655
16.0608
15.8457
15.6499
15.4427
15.2552
15.0555
14.876
14.6832
14.5113
14.325
14.1603
13.9802
13.8223
13.648
13.4966
13.3277
13.1827
13.0189
12.8798
12.7208
12.5875
12.433
12.3053
12.155
12.0326
11.8864
11.769
11.6265
11.5142
11.3752
11.2676
11.1319
11.029
10.8964
10.7979
10.6682
10.5741
10.447
10.3572
10.2326
10.147
10.0248
9.94314
9.82276
9.74498
9.62748
9.55528
9.43993
9.36159
9.23225
34.5533
34.0492
33.5325
32.9931
32.4453
31.8872
31.3324
30.7752
30.2277
29.6826
29.1513
28.6251
28.1152
27.6115
27.1254
26.6458
26.1842
25.7287
25.2913
24.8592
24.4451
24.0354
23.6433
23.2546
22.8833
22.5141
22.1621
21.8113
21.4773
21.1434
20.8262
20.508
20.2066
19.903
19.6161
19.3262
19.053
18.7757
18.5153
18.2499
18.0015
17.7471
17.51
17.2659
17.0394
16.8049
16.5885
16.3631
16.156
15.9391
15.741
15.532
15.3424
15.1408
14.9592
14.7646
14.5907
14.4027
14.2361
14.0543
13.8946
13.7186
13.5656
13.395
13.2484
13.0829
12.9424
12.7817
12.6471
12.491
12.362
12.2101
12.0866
11.9387
11.8204
11.6762
11.563
11.4224
11.3141
11.1767
11.0732
10.9388
10.8399
10.7084
10.614
10.4851
10.3952
10.2687
10.1831
10.0588
9.97744
9.85515
9.77809
9.65765
9.58405
9.46566
9.39844
9.27987
9.2285
9.05575
33.4776
32.9977
32.5071
31.9968
31.4798
30.9534
30.4303
29.9048
29.3883
28.8736
28.3715
27.8737
27.3907
26.9132
26.4518
25.996
25.5568
25.123
24.706
24.2936
23.8979
23.506
23.1305
22.758
22.4017
22.0473
21.7089
21.3714
21.0498
20.7281
20.4223
20.1153
19.824
19.5307
19.2532
18.9727
18.7081
18.4395
18.187
17.9296
17.6884
17.4414
17.211
16.9738
16.7534
16.5254
16.3146
16.0951
15.8934
15.682
15.4889
15.285
15.1
14.9033
14.726
14.536
14.3661
14.1824
14.0196
13.8418
13.6856
13.5134
13.3637
13.1968
13.0533
12.8912
12.7536
12.5962
12.4644
12.3114
12.185
12.0361
11.915
11.7699
11.654
11.5125
11.4015
11.2634
11.1572
11.0223
10.9208
10.7888
10.6918
10.5625
10.47
10.3433
10.255
10.1306
10.0466
9.92445
9.84456
9.72434
9.64863
9.53023
9.45789
9.3415
9.27544
9.15884
9.10832
8.93838
32.6591
32.1947
31.7216
31.231
30.7354
30.2314
29.7312
29.2285
28.7346
28.2421
27.7617
27.285
26.8224
26.3645
25.9219
25.4843
25.0625
24.6453
24.244
23.8469
23.4656
23.0876
22.7253
22.3654
22.021
21.6782
21.3507
21.0238
20.7121
20.4001
20.1032
19.8051
19.5221
19.237
18.967
18.694
18.4363
18.1747
17.9284
17.6774
17.4421
17.201
16.9759
16.7443
16.5288
16.3059
16.0997
15.885
15.6875
15.4806
15.2913
15.0917
14.9102
14.7175
14.5435
14.3573
14.1905
14.0103
13.8503
13.6758
13.5224
13.3533
13.2061
13.0422
12.901
12.7418
12.6064
12.4518
12.3219
12.1715
12.047
11.9006
11.7813
11.6386
11.5244
11.3852
11.2758
11.1399
11.0352
10.9023
10.8022
10.6722
10.5766
10.4493
10.358
10.2332
10.1461
10.0235
9.94067
9.82022
9.74142
9.62288
9.54821
9.43142
9.36011
9.24524
9.18009
9.06507
9.01524
8.84777
32.0251
31.5708
31.1095
30.6326
30.1526
29.6649
29.1816
28.6959
28.2192
27.7435
27.2799
26.8193
26.3726
25.9299
25.5022
25.0787
24.6706
24.2665
23.878
23.4928
23.1231
22.7561
22.4045
22.0547
21.72
21.3864
21.0677
20.7493
20.4456
20.1413
19.8518
19.5608
19.2845
19.0058
18.742
18.475
18.2228
17.9667
17.7256
17.4796
17.249
17.0126
16.7919
16.5645
16.3531
16.1342
15.9316
15.7207
15.5265
15.3231
15.137
14.9406
14.7621
14.5723
14.4011
14.2176
14.0534
13.8758
13.7182
13.5463
13.395
13.2283
13.0832
12.9215
12.7822
12.6251
12.4916
12.3389
12.2108
12.0622
11.9394
11.7948
11.677
11.536
11.4232
11.2856
11.1776
11.0432
10.9398
10.8085
10.7096
10.5811
10.4866
10.3606
10.2704
10.1469
10.0609
9.93965
9.85776
9.73855
9.66068
9.54333
9.46955
9.35392
9.28347
9.16968
9.10531
8.99137
8.94203
8.77645
31.5347
31.0867
30.6334
30.1661
29.6975
29.2219
28.7514
28.2787
27.8153
27.3527
26.9022
26.4543
26.0202
25.5896
25.1737
24.7615
24.3645
23.9708
23.5924
23.2168
22.8564
22.4982
22.155
21.8132
21.4862
21.1598
20.8482
20.5363
20.239
19.9407
19.6569
19.3713
19.1003
18.8266
18.5675
18.305
18.0572
17.8051
17.568
17.3258
17.0988
16.8659
16.6484
16.4242
16.2158
15.9999
15.8001
15.5919
15.4003
15.1994
15.0156
14.8216
14.6453
14.4578
14.2886
14.1072
13.9448
13.7692
13.6134
13.4433
13.2936
13.1287
12.9851
12.825
12.6872
12.5317
12.3994
12.2483
12.1214
11.9743
11.8526
11.7093
11.5927
11.453
11.3412
11.2049
11.0978
10.9647
10.8622
10.7321
10.6341
10.5067
10.413
10.2882
10.1987
10.0763
9.99101
9.87079
9.78957
9.67139
9.59419
9.4779
9.4045
9.28963
9.22076
9.1085
9.04338
8.93529
8.8628
8.74069
31.1734
30.7287
30.28
29.8189
29.358
28.8908
28.4295
27.9661
27.5124
27.0593
26.6185
26.1798
25.755
25.3332
24.926
24.5219
24.1328
23.7466
23.3754
23.0066
22.6528
22.3006
21.9633
21.6269
21.3053
20.9838
20.6768
20.3693
20.0763
19.7819
19.5019
19.2198
18.9522
18.6817
18.4257
18.1661
17.921
17.6717
17.4371
17.1974
16.9726
16.7421
16.5267
16.3047
16.0982
15.8843
15.6863
15.48
15.29
15.091
14.9087
14.7164
14.5415
14.3557
14.1878
14.008
13.8468
13.6728
13.5181
13.3495
13.2009
13.0375
12.8948
12.7362
12.5993
12.4452
12.3138
12.1641
12.0379
11.8922
11.7712
11.6294
11.5134
11.3751
11.2639
11.1289
11.0224
10.8906
10.7886
10.6598
10.5622
10.4361
10.3429
10.2193
10.1303
10.0091
9.92416
9.80516
9.72428
9.6073
9.53042
9.41529
9.34222
9.22846
9.15992
9.04876
8.98404
8.87712
8.80497
8.68372
30.9132
30.4692
30.022
29.564
29.1071
28.6448
28.1887
27.731
27.2829
26.8355
26.4002
25.967
25.5473
25.1304
24.7279
24.3282
23.9433
23.5609
23.1935
22.828
22.4774
22.128
21.7935
21.4595
21.1402
20.8208
20.516
20.2103
19.9193
19.6266
19.3485
19.0681
18.8022
18.5334
18.2792
18.0212
17.7779
17.5302
17.2974
17.0594
16.8364
16.6075
16.3938
16.1734
15.9685
15.7561
15.5596
15.3549
15.1664
14.9689
14.7881
14.5975
14.4239
14.2398
14.0731
13.8952
13.7352
13.563
13.4094
13.2427
13.0951
12.9336
12.7919
12.6353
12.4992
12.3472
12.2165
12.0689
11.9433
11.7999
11.6793
11.5397
11.424
11.288
11.177
11.0445
10.9379
10.8087
10.7065
10.5803
10.4823
10.359
10.2651
10.1445
10.0546
9.93651
9.85053
9.73476
9.65259
9.539
9.46057
9.34903
9.27424
9.16442
9.0934
8.98556
8.91661
8.81134
8.76465
8.60318
30.6989
30.2546
29.8078
29.3512
28.896
28.4358
27.9815
27.5253
27.0782
26.6318
26.1966
25.7637
25.3437
24.9267
24.5236
24.1239
23.7384
23.3564
22.9884
22.6219
22.2703
21.9199
21.5846
21.2502
20.931
20.612
20.3081
20.0037
19.7145
19.4238
19.1482
18.8704
18.6076
18.3417
18.0909
17.8362
17.5966
17.3523
17.1233
16.8887
16.6696
16.4441
16.2344
16.0176
15.8168
15.6081
15.4157
15.2145
15.0299
14.8358
14.6588
14.4713
14.3014
14.1202
13.9571
13.7818
13.6251
13.4554
13.3049
13.1405
12.9959
12.8364
12.6975
12.5427
12.4093
12.259
12.1308
11.9847
11.8616
11.7194
11.6012
11.4627
11.3492
11.2144
11.1054
10.9739
10.8693
10.7409
10.6406
10.5152
10.4191
10.2965
10.2043
10.0844
9.99613
9.87863
9.79421
9.67903
9.59832
9.4853
9.40821
9.29728
9.22372
9.11439
9.04418
8.93743
8.87211
8.7673
8.69626
8.5787
30.5432
30.0914
29.634
29.1632
28.6927
28.2153
27.7443
27.2715
26.81
26.35
25.9047
25.463
25.0377
24.6167
24.213
23.8134
23.4313
23.0526
22.6914
22.3342
21.9936
21.6554
21.333
21.0118
20.7057
20.3996
20.1083
19.8159
19.538
19.2581
18.9927
18.7244
18.4706
18.213
17.9699
17.7224
17.4895
17.2514
17.0281
16.7988
16.5846
16.3637
16.1582
15.9451
15.7478
15.5422
15.3528
15.1542
14.9723
14.7803
14.6056
14.4199
14.2521
14.0724
13.9111
13.7371
13.5821
13.4134
13.2645
13.1009
12.9578
12.799
12.6615
12.5073
12.3752
12.2253
12.0984
11.9526
11.8307
11.6887
11.5718
11.4333
11.3212
11.1861
11.0785
10.9467
10.8436
10.7148
10.616
10.49
10.3954
10.2721
10.1816
10.0607
9.97435
9.85573
9.7733
9.65679
9.57824
9.46368
9.38894
9.27614
9.20527
9.09408
9.02633
8.91693
8.85499
8.74535
8.69788
8.53856
30.0097
29.5374
29.073
28.6077
28.1522
27.6978
27.2552
26.815
26.3879
25.9638
25.5537
25.1469
24.7544
24.3648
23.9898
23.6172
23.259
22.9026
22.5605
22.2195
21.8927
21.5662
21.2538
20.9411
20.6422
20.3423
20.0564
19.7686
19.4947
19.2183
18.956
18.6903
18.4388
18.1834
17.9422
17.6963
17.465
17.2282
17.0062
16.7781
16.565
16.345
16.1404
15.9281
15.7316
15.5267
15.3379
15.1399
14.9586
14.7672
14.593
14.4078
14.2404
14.0611
13.9002
13.7265
13.5719
13.4035
13.255
13.0916
12.9488
12.7903
12.6531
12.499
12.3672
12.2174
12.0908
11.9451
11.8235
11.6816
11.5649
11.4265
11.3145
11.1796
11.0722
10.9404
10.8375
10.7087
10.6101
10.4841
10.3897
10.2664
10.1761
10.0553
9.96901
9.85042
9.76811
9.65164
9.5732
9.45869
9.38403
9.27131
9.20051
9.08947
9.02178
8.91257
8.85075
8.74142
8.69411
8.53513
54.5523
58.5611
61.5347
66.7478
73.5235
80.4922
95.2342
113.009
147.689
281.716
48.7778
50.0849
53.0389
55.7928
60.6638
66.6708
73.5589
87.3
100.577
179.042
44.6437
45.9877
46.7975
49.3877
51.1492
56.3592
59.7589
69.7042
76.5191
119.128
42.2714
43.166
43.5723
45.1708
46.077
49.1848
51.1599
57.4135
61.478
84.9628
40.3063
40.8962
41.1405
42.1916
42.7273
44.609
45.7523
49.4528
51.8667
64.9067
38.8631
39.1923
39.3214
39.9844
40.3067
41.4873
42.1627
44.3589
45.7614
53.0132
37.7304
37.8806
37.928
38.3162
38.4967
39.2304
39.6303
40.9614
41.7735
45.85
36.8416
36.8516
36.8465
37.0281
37.1133
37.5373
37.7643
38.5656
39.0339
41.3813
36.1459
36.055
36.0005
36.0308
36.044
36.2441
36.3529
36.8015
37.0602
38.4393
35.5929
35.4469
35.321
35.2549
35.2144
35.2546
35.278
35.4811
35.6005
36.4092
35.1425
34.9633
34.7795
34.6592
34.5402
34.4803
34.4437
34.477
34.5024
34.9497
34.7965
34.5608
34.3608
34.1708
34.0208
33.8764
33.7747
33.6928
33.6514
33.8577
34.512
34.2562
34.0128
33.8043
33.5876
33.4266
33.2289
33.1234
32.9378
33.0293
34.2789
34.0275
33.7316
33.5236
33.245
33.0744
32.8083
32.6729
32.3782
32.3896
34.0974
33.8513
33.5137
33.3051
32.9805
32.7996
32.4833
32.3242
31.9927
31.8966
33.9583
33.7247
33.3486
33.1447
32.7822
32.5942
32.2414
32.0602
31.7194
31.5353
33.8641
33.6118
33.2379
33.0047
32.6501
32.4213
32.0802
31.8469
31.5175
31.2772
33.7945
33.5059
33.1497
32.8774
32.5393
32.2706
31.9414
31.6689
31.3436
31.0657
33.7626
33.4513
33.1002
32.8039
32.4686
32.1758
31.8462
31.5498
31.2199
30.9177
33.5448
33.1819
32.8082
32.4655
32.1056
31.774
31.4194
31.0926
30.7382
30.4126
53.9455
59.8338
69.1602
85.3273
115.406
175.618
330.817
887.405
5140.62
3156.42
54.42
60.2494
70.5202
86.3835
115.419
178.51
349.309
921.292
5500.68
3210.53
54.4405
60.0232
71.188
89.5216
123.748
192.403
377.137
989.929
5899.17
3260.35
55.0604
60.6392
71.668
89.4247
123.709
195.79
396.362
1045.67
6325.06
3300.09
55.0124
60.5
73.1239
94.0789
134.469
216.092
445.209
1134.13
6746.09
3334.08
56.3401
62.2729
73.2948
94.3101
135.169
219.551
464.475
1238.05
7205.46
3356.68
56.5094
62.6675
76.8517
100.88
150.343
250.158
545.219
1352.55
7630.76
3350.73
58.7893
65.4825
77.9483
102.88
154.138
255.902
569.339
1537.34
8032.08
3333.28
59.4375
66.8218
83.9541
113.56
176.089
303.955
693.043
1807.94
8185.95
3325.08
63.1112
71.0567
86.4951
118.351
185.207
322.374
742.807
2326.34
8102.79
3299.91
54.8712
62.2676
72.2146
80.3831
118.633
130.687
365.609
638.849
3507.82
2686.88
55.7244
60.5284
70.7657
80.0094
91.311
160.916
204.697
760.908
3084.41
2639.27
55.7477
60.5674
70.5983
79.7749
93.8773
154.08
217.039
724.224
3104.18
2635.6
55.2904
60.4327
70.0733
80.2674
98.2123
150.547
243.811
711.834
3261.5
2666.08
55.134
60.2441
69.5555
80.9588
101.827
150.963
260.08
719.215
3456.05
2716.64
54.8128
60.1772
69.0003
81.4461
103.416
153.573
272.64
744.027
3643.96
2778
54.5167
59.8505
69.1818
81.5332
104.451
156.308
283.445
758.591
3918.15
2859.28
54.1481
59.6608
68.716
83.2814
106.546
157.372
292.693
791.292
4144.26
2918.77
53.7454
59.2724
68.4868
83.1194
109.548
163.799
300.94
812.149
4482.77
3017.36
53.6785
59.3834
68.6599
84.1648
110.012
165.837
315.368
842.302
4767.22
3073.94
13886.2
10422.4
8079.86
6429.74
5227.73
4327.31
3636.69
3096.2
2665.77
2317.75
2032.58
1796.15
1598.05
1430.51
1287.59
1164.76
1058.43
965.819
884.671
813.19
749.909
693.632
643.369
598.3
557.738
521.107
487.918
457.757
430.267
405.147
382.131
360.995
341.539
323.592
307.002
291.638
277.38
264.129
251.789
240.283
229.534
219.48
210.061
201.227
192.929
185.126
177.778
170.853
164.316
158.142
152.301
146.774
141.535
136.568
131.85
127.371
123.107
119.053
115.188
111.508
107.993
104.642
101.436
98.376
95.4433
92.6422
89.953
87.3823
84.9103
82.5456
80.2681
78.0884
75.9856
73.9728
72.0276
70.166
68.3635
66.6399
64.9677
63.3706
61.8184
60.3388
58.8988
57.5299
56.197
54.9357
53.7091
52.5579
51.4432
50.4119
49.4225
48.5434
47.7458
47.0957
46.5761
46.3041
46.5062
46.9998
49.1724
52.7129
13884.6
10419.5
8076.64
6426.51
5224.66
4324.45
3634.07
3093.81
2663.59
2315.76
2030.77
1794.49
1596.53
1429.1
1286.3
1163.56
1057.33
964.794
883.719
812.302
749.081
692.857
642.643