/*--------------------------------*- C++ -*----------------------------------*\
  =========                 |
  \\      /  F ield         | OpenFOAM: The Open Source CFD Toolbox
   \\    /   O peration     | Website:  https://openfoam.org
    \\  /    A nd           | Version:  8
     \\/     M anipulation  |
\*---------------------------------------------------------------------------*/
FoamFile
{
    version     2.0;
    format      ascii;
    class       volScalarField;
    location    "1.499985";
    object      k;
}
// * * * * * * * * * * * * * * * * * * * * * * * * * * * * * * * * * * * * * //

dimensions      [0 2 -2 0 0 0 0];

internalField   nonuniform List<scalar> 
6800
(
56.7547
124.78
116.141
101.685
88.8651
67.8843
47.0558
28.8275
19.0458
15.0512
43.9309
95.8834
97.9498
92.3616
74.4055
48.6868
29.3051
19.867
14.3026
10.8105
44.4688
87.7492
91.5529
82.0809
56.3908
33.6416
22.1333
15.1793
10.257
7.71244
45.7727
82.261
86.0565
72.5509
42.9044
26.2285
16.1888
10.9011
7.9995
6.57594
46.1537
80.2946
82.5625
59.5947
32.5439
18.9697
12.5698
9.32594
7.07352
5.5816
46.9079
81.3884
79.2395
47.6187
25.6825
16.3596
11.0067
7.71862
5.81094
4.95032
47.1458
85.2693
74.1868
37.1689
21.1745
12.9685
8.85518
6.69643
5.4046
4.72522
47.6294
89.3429
65.3391
31.3117
17.9341
11.8699
8.21589
6.19396
4.86766
4.31568
47.8061
93.7327
56.6049
27.2968
15.8184
9.98678
7.03288
5.49879
4.61914
4.19808
48.1844
96.8373
48.7009
23.7876
13.5769
9.46282
6.7177
5.30471
4.37122
3.94677
339.237
446.935
465.515
477.128
497.55
526.25
556.845
583.32
597.866
602.079
312.346
429.596
455.267
478.175
511.235
552.992
594.857
628.773
648.886
654.868
282.573
404.906
439.361
481.204
534.472
589.757
630.746
654.674
665.452
659.302
257.766
372.265
429.525
496.342
566.968
610.869
626.418
616.769
594.885
540.349
235.188
356.843
446.578
539.951
588.452
586.423
563.412
504.907
453.267
343.685
228.641
368.284
510.635
574.044
560.194
511.268
432.097
316.864
247.18
158.339
244.885
429.673
561.984
534.017
457.407
324.022
217.834
147.952
119.545
81.3743
275.583
496.88
485.264
378.571
231.592
159.292
118.926
88.3374
75.1962
52.3823
259.942
386.625
304.072
187.905
135.13
105.552
82.8567
65.3897
55.5062
35.5969
162.218
185.148
152.434
119.695
100.91
84.1116
65.6094
50.8558
32.6857
20.72
593.183
562.251
528.954
497.31
469.16
444.663
423.317
404.704
388.357
373.858
360.889
349.207
338.621
328.975
320.136
311.995
304.457
297.441
290.882
284.723
278.918
273.426
268.212
263.246
258.504
253.963
249.606
245.417
241.386
237.498
233.747
230.128
226.635
223.265
220.014
216.879
213.855
210.939
208.125
205.41
202.788
200.255
197.805
195.433
193.135
190.904
188.737
186.63
184.578
182.579
180.628
178.724
176.864
175.045
173.267
171.526
169.821
168.153
166.518
164.916
163.347
161.81
160.303
158.826
157.378
155.96
154.57
153.208
151.873
150.565
149.284
148.029
146.8
145.596
144.416
143.26
142.127
141.017
139.929
138.861
137.814
136.786
135.777
134.786
133.812
132.855
131.914
130.987
130.078
129.18
128.303
127.429
126.586
125.728
124.932
124.069
123.346
122.436
121.833
120.694
647.077
613.913
576.957
542.88
512.652
485.972
462.535
441.916
423.673
407.454
392.951
379.903
368.089
357.333
347.48
338.401
329.987
322.149
314.813
307.919
301.414
295.254
289.4
283.822
278.493
273.388
268.49
263.786
259.255
254.884
250.672
246.615
242.707
238.943
235.317
231.823
228.455
225.208
222.075
219.051
216.131
213.308
210.576
207.931
205.366
202.876
200.455
198.102
195.813
193.582
191.407
189.283
187.209
185.181
183.2
181.261
179.365
177.508
175.692
173.913
172.171
170.466
168.796
167.16
165.558
163.989
162.452
160.947
159.472
158.029
156.615
155.231
153.877
152.55
151.251
149.979
148.734
147.513
146.317
145.145
143.995
142.867
141.76
140.674
139.606
138.558
137.527
136.514
135.519
134.537
133.578
132.624
131.704
130.768
129.899
128.959
128.172
127.181
126.529
125.287
653.696
627.428
592.512
560.276
531.469
505.708
482.78
462.379
444.216
428.012
413.507
400.454
388.632
377.869
368
358.886
350.418
342.506
335.08
328.077
321.45
315.151
309.147
303.405
297.902
292.617
287.536
282.638
277.935
273.423
269.079
264.891
260.851
256.949
253.179
249.536
246.012
242.603
239.304
236.108
233.01
230.005
227.087
224.251
221.493
218.806
216.187
213.631
211.133
208.692
206.306
203.972
201.69
199.456
197.271
195.131
193.036
190.984
188.974
187.005
185.076
183.185
181.333
179.518
177.739
175.998
174.29
172.615
170.975
169.37
167.797
166.258
164.751
163.276
161.832
160.417
159.031
157.673
156.342
155.037
153.756
152.5
151.266
150.054
148.864
147.694
146.544
145.413
144.303
143.207
142.137
141.071
140.045
139
138.033
136.983
136.108
135.003
134.279
132.895
528.729
510.839
490.083
470.409
452.668
436.562
421.902
408.676
396.784
386.119
376.545
367.893
360.012
352.796
346.101
339.823
333.9
328.279
322.924
317.799
312.876
308.127
303.535
299.081
294.754
290.547
286.452
282.47
278.585
274.799
271.115
267.535
264.057
260.677
257.392
254.198
251.091
248.069
245.126
242.26
239.466
236.739
234.075
231.47
228.922
226.428
223.985
221.591
219.243
216.939
214.679
212.459
210.28
208.14
206.037
203.971
201.939
199.942
197.979
196.048
194.15
192.284
190.449
188.647
186.876
185.136
183.431
181.758
180.118
178.509
176.93
175.381
173.86
172.367
170.902
169.463
168.049
166.661
165.295
163.954
162.633
161.335
160.057
158.799
157.56
156.34
155.139
153.954
152.79
151.638
150.513
149.389
148.306
147.199
146.177
145.061
144.136
142.96
142.19
140.721
321.269
301.427
286.206
275.189
267.462
262.134
258.448
255.952
254.304
253.387
252.949
252.771
252.78
252.834
252.728
252.456
252.068
251.564
250.962
250.264
249.478
248.603
247.645
246.608
245.499
244.323
243.091
241.808
240.485
239.126
237.742
236.333
234.896
233.436
231.951
230.449
228.931
227.403
225.868
224.328
222.785
221.243
219.7
218.159
216.619
215.08
213.543
212.01
210.474
208.94
207.414
205.893
204.378
202.866
201.357
199.852
198.351
196.855
195.365
193.881
192.405
190.938
189.481
188.036
186.603
185.185
183.78
182.39
181.017
179.66
178.321
176.999
175.694
174.406
173.135
171.88
170.64
169.415
168.203
167.007
165.823
164.653
163.495
162.351
161.218
160.098
158.991
157.895
156.813
155.739
154.687
153.631
152.614
151.566
150.603
149.54
148.666
147.544
146.807
145.407
147.013
136.859
129.02
123.167
118.805
115.633
113.419
111.934
111.171
111.22
111.474
112.118
113.358
114.7
116.628
118.949
121.634
124.609
127.789
131.095
134.473
137.856
141.201
144.457
147.605
150.609
153.473
156.166
158.707
161.071
163.288
165.255
166.99
168.514
169.853
171.037
172.081
173.003
173.814
174.528
175.149
175.688
176.146
176.53
176.844
177.085
177.265
177.365
177.383
177.361
177.303
177.18
176.993
176.746
176.442
176.085
175.679
175.228
174.735
174.205
173.641
173.048
172.428
171.786
171.124
170.445
169.751
169.046
168.329
167.603
166.869
166.128
165.38
164.627
163.866
163.102
162.331
161.555
160.775
159.993
159.205
158.416
157.622
156.828
156.029
155.233
154.433
153.635
152.837
152.039
151.248
150.449
149.673
148.864
148.119
147.286
146.602
145.711
145.122
144.006
76.8352
71.8111
67.4402
63.7837
60.6574
58.0039
55.7165
53.7801
52.1376
50.7723
49.697
48.7883
48.1809
47.6867
47.3889
47.2487
47.3289
47.5396
48.0236
48.6878
49.5909
50.6683
51.9474
53.3859
55.0019
56.7677
58.69
60.7465
62.9415
65.2577
67.6783
70.2761
73.0327
75.9342
78.9393
82.0295
85.1656
88.3305
91.4885
94.6242
97.7078
100.727
103.659
106.494
109.219
111.825
114.306
116.66
118.881
120.931
122.822
124.564
126.159
127.625
128.965
130.196
131.319
132.349
133.288
134.145
134.926
135.639
136.286
136.873
137.402
137.879
138.303
138.682
139.012
139.3
139.54
139.742
139.898
140.019
140.095
140.142
140.138
140.11
140.06
139.971
139.851
139.709
139.536
139.347
139.128
138.897
138.638
138.371
138.078
137.78
137.46
137.132
136.792
136.433
136.085
135.689
135.354
134.908
134.597
134.017
49.5381
46.2792
43.329
40.7155
38.3333
36.1638
34.1477
32.3223
30.6067
29.0648
27.5998
26.2917
25.0429
23.948
23.0052
22.1539
21.4421
20.7987
20.2852
19.833
19.5037
19.2306
19.0679
18.9523
18.9388
18.9845
19.0933
19.2829
19.5604
19.9128
20.3434
20.8599
21.4683
22.1871
23.0125
23.9674
25.0382
26.2466
27.5744
29.0424
30.6289
32.3496
34.18
36.1321
38.1783
40.3296
42.5541
44.8644
47.2234
49.6758
52.1886
54.7623
57.364
59.9887
62.6065
65.2128
67.7828
70.3132
72.7837
75.1928
77.5254
79.7841
81.9552
84.0459
86.0434
87.9588
89.7789
91.5196
93.151
94.6946
96.1358
97.4985
98.767
99.9697
101.086
102.149
103.132
104.069
104.933
105.761
106.52
107.249
107.913
108.553
109.126
109.686
110.177
110.664
111.078
111.498
111.839
112.198
112.47
112.772
112.979
113.233
113.381
113.592
113.698
113.884
33.274
30.7037
28.3015
26.0863
24.0746
22.2613
20.6428
19.1999
17.9232
16.786
15.7806
14.8808
14.0823
13.3591
12.7257
12.1625
11.6655
11.2179
10.821
10.4607
10.1407
9.84912
9.59063
9.35458
9.14714
8.95752
8.79463
8.64502
8.52216
8.40979
8.32494
8.24864
8.20171
8.16306
8.16374
8.18208
8.20859
8.27053
8.35077
8.47678
8.62636
8.82446
9.04959
9.33125
9.64442
10.022
10.4371
10.9252
11.4565
12.0688
12.73
13.484
14.293
15.2043
16.1735
17.2506
18.3861
19.6308
20.9316
22.3391
23.7966
25.3553
26.9548
28.647
30.368
32.1706
33.9876
35.873
37.7701
39.7349
41.6895
43.6948
45.667
47.6725
49.6228
51.5919
53.486
55.3889
57.1991
59.0133
60.72
62.4308
64.0213
65.6224
67.0883
68.5782
69.9173
71.3005
72.513
73.784
74.8592
76.0314
76.974
78.0658
78.8749
79.9062
80.5903
81.5775
82.1746
83.2551
19.049
17.2896
15.7906
14.5581
13.5271
12.6476
11.885
11.2155
10.6225
10.0922
9.61441
9.18291
8.79136
8.43513
8.10945
7.81207
7.53906
7.28906
7.0586
6.84699
6.65099
6.47064
6.30268
6.14789
6.00283
5.86901
5.74272
5.62639
5.51581
5.41417
5.31699
5.22795
5.14225
5.06468
4.98895
4.92163
4.85614
4.79773
4.7405
4.69165
4.64352
4.60598
4.56767
4.54261
4.51606
4.50332
4.49149
4.49278
4.50051
4.51162
4.53858
4.57092
4.61418
4.68241
4.74567
4.8506
4.93655
5.08243
5.20303
5.39314
5.55653
5.80053
6.01625
6.32508
6.6038
6.98947
7.34194
7.8161
8.25263
8.82683
9.35831
10.043
10.6771
11.4785
12.218
13.1383
13.9814
15.0186
15.9593
17.108
18.136
19.3879
20.4897
21.834
22.9926
24.4166
25.6122
27.1027
28.3132
29.8697
31.0834
32.6917
33.881
35.5306
36.662
38.338
39.3834
41.0708
42.117
44.0403
10.8048
10.3369
9.87499
9.42688
8.99742
8.59058
8.20865
7.85316
7.52298
7.21862
6.93876
6.68179
6.44495
6.22718
6.02577
5.84017
5.66764
5.50818
5.35904
5.22081
5.09068
4.96976
4.85517
4.74853
4.64681
4.55211
4.46117
4.37659
4.29481
4.21888
4.14496
4.07646
4.00933
3.94726
3.88599
3.82952
3.7733
3.72175
3.67033
3.62356
3.5763
3.53385
3.49029
3.45179
3.41163
3.37673
3.33978
3.30827
3.27432
3.24616
3.21504
3.19017
3.16198
3.14044
3.11545
3.0973
3.0758
3.0612
3.04362
3.033
3.01994
3.01396
3.00636
3.00601
3.00737
3.01171
3.01957
3.03475
3.05017
3.07924
3.1038
3.15081
3.18659
3.25634
3.30618
3.40389
3.47104
3.6031
3.69112
3.86466
3.97719
4.20067
4.34098
4.62427
4.79813
5.14657
5.35771
5.78168
6.03325
6.53919
6.83544
7.4296
7.77299
8.46039
8.84975
9.62858
10.0688
10.9242
11.3116
12.7579
7.76186
7.46543
7.17616
6.89677
6.63176
6.38187
6.14885
5.93144
5.73
5.54258
5.36904
5.20733
5.05728
4.91712
4.78669
4.66453
4.55047
4.44336
4.34295
4.24839
4.15933
4.07521
3.99558
3.92015
3.84839
3.78028
3.71521
3.65338
3.59408
3.53774
3.48351
3.43205
3.38229
3.33516
3.28935
3.24606
3.20371
3.16379
3.12443
3.08744
3.05068
3.01624
2.98175
2.94956
2.91708
2.88691
2.85625
2.82792
2.79891
2.77227
2.74478
2.71972
2.69365
2.67005
2.64532
2.62309
2.5996
2.57864
2.55629
2.5365
2.51516
2.49647
2.47598
2.45836
2.43876
2.42242
2.40386
2.38894
2.37148
2.35805
2.34184
2.33001
2.31533
2.30515
2.29231
2.28389
2.27324
2.26667
2.25877
2.2541
2.24947
2.24713
2.24781
2.24947
2.25366
2.25994
2.2671
2.28145
2.29372
2.31721
2.33578
2.37219
2.39837
2.45059
2.4901
2.55807
2.59693
2.7068
2.75256
2.95489
5.91746
5.74862
5.58248
5.41902
5.26092
5.10821
4.96272
4.82352
4.69193
4.56657
4.44854
4.33626
4.23073
4.13028
4.03593
3.94595
3.86142
3.78063
3.70468
3.63192
3.56345
3.49769
3.43577
3.37614
3.31993
3.26567
3.21445
3.16488
3.11804
3.07257
3.02955
2.98768
2.94801
2.90932
2.87262
2.83673
2.80266
2.76928
2.73756
2.70642
2.67679
2.64766
2.61992
2.59259
2.56652
2.5408
2.51624
2.49198
2.46877
2.44583
2.42384
2.40208
2.38121
2.36053
2.34068
2.32099
2.30207
2.28329
2.26523
2.24728
2.23002
2.21283
2.1963
2.1798
2.16395
2.1481
2.13287
2.11762
2.10298
2.08828
2.07418
2.06001
2.04643
2.03275
2.01967
2.00647
1.99385
1.98113
1.96895
1.9567
1.94495
1.93317
1.92187
1.9107
1.89993
1.88936
1.87917
1.86921
1.85971
1.85039
1.84171
1.83308
1.82542
1.81753
1.8112
1.80414
1.79917
1.79294
1.79006
1.78517
4.74199
4.63798
4.53291
4.42634
4.32084
4.21671
4.11602
4.01824
3.92494
3.83508
3.75001
3.66839
3.59145
3.51769
3.44833
3.38174
3.31921
3.25902
3.20254
3.14797
3.09679
3.04715
3.00061
2.95529
2.91282
2.87127
2.83239
2.79415
2.7584
2.72308
2.69008
2.6573
2.62672
2.59616
2.56771
2.53912
2.51255
2.48569
2.4608
2.4355
2.41211
2.38819
2.36616
2.34348
2.32268
2.30112
2.28143
2.26088
2.2422
2.22257
2.20482
2.18601
2.16911
2.15106
2.13495
2.1176
2.10222
2.08549
2.0708
2.05466
2.04059
2.02499
2.01152
1.9964
1.98348
1.96881
1.95642
1.94215
1.93025
1.91636
1.90492
1.89138
1.88039
1.86716
1.85659
1.84365
1.8335
1.82083
1.81108
1.79865
1.78928
1.77708
1.76808
1.75609
1.74745
1.73564
1.72736
1.71572
1.70779
1.69631
1.68871
1.67737
1.67013
1.65893
1.65205
1.641
1.63439
1.62331
1.61845
1.60222
3.97233
3.90578
3.83745
3.76673
3.69576
3.62469
3.5553
3.4871
3.42144
3.35749
3.29646
3.23727
3.18106
3.12662
3.07508
3.02513
2.97792
2.93208
2.88881
2.84667
2.80692
2.76807
2.73145
2.69551
2.66166
2.6283
2.5969
2.5658
2.53657
2.50748
2.48019
2.45288
2.42731
2.4016
2.37759
2.3533
2.33068
2.30768
2.28633
2.26449
2.24428
2.22348
2.20432
2.18447
2.16626
2.14728
2.12995
2.11175
2.09523
2.07775
2.06197
2.04515
2.03006
2.01384
1.99939
1.98373
1.96988
1.95472
1.94143
1.92675
1.91399
1.89974
1.88747
1.87363
1.86183
1.84836
1.83702
1.8239
1.81298
1.80019
1.78967
1.77718
1.76706
1.75485
1.74511
1.73316
1.72377
1.71207
1.70302
1.69154
1.68283
1.67155
1.66316
1.65207
1.644
1.63308
1.62531
1.61455
1.60708
1.59647
1.58928
1.5788
1.5719
1.56152
1.55488
1.54468
1.53845
1.52839
1.52156
1.51013
3.47435
3.4294
3.38271
3.33327
3.28303
3.23179
3.18132
3.1309
3.08203
3.03375
2.98741
2.94188
2.89846
2.8559
2.81547
2.77584
2.73829
2.70142
2.66656
2.63223
2.59982
2.56781
2.53763
2.5077
2.47951
2.45146
2.42507
2.39869
2.37391
2.34903
2.32571
2.30218
2.28017
2.25785
2.23703
2.21581
2.19608
2.17586
2.15712
2.1378
2.11997
2.10148
2.08449
2.06676
2.05053
2.03349
2.01798
2.00158
1.98672
1.97091
1.95667
1.94139
1.92772
1.91294
1.89981
1.88548
1.87285
1.85895
1.84679
1.83328
1.82157
1.80843
1.79714
1.78434
1.77346
1.76098
1.75048
1.7383
1.72818
1.71627
1.7065
1.69486
1.68543
1.67403
1.66493
1.65376
1.64498
1.63401
1.62554
1.61477
1.60659
1.596
1.58811
1.57768
1.57008
1.5598
1.55247
1.54233
1.53527
1.52526
1.51846
1.50857
1.50202
1.49223
1.48595
1.47627
1.4701
1.46061
1.45639
1.44171
3.15274
3.11984
3.08545
3.04839
3.01044
2.97118
2.93228
2.89292
2.85457
2.81621
2.77925
2.7425
2.70734
2.67247
2.63927
2.60636
2.57512
2.54411
2.51476
2.48556
2.45798
2.43045
2.40451
2.37852
2.35407
2.32949
2.30641
2.2831
2.26126
2.23913
2.21842
2.19734
2.17768
2.15756
2.13885
2.11961
2.10177
2.08334
2.06632
2.04862
2.03234
2.01533
1.99975
1.98337
1.96842
1.95262
1.93828
1.92302
1.90924
1.89447
1.88122
1.86691
1.85416
1.84028
1.828
1.81452
1.80268
1.78958
1.77816
1.7654
1.75438
1.74196
1.73132
1.7192
1.70892
1.69709
1.68717
1.6756
1.66601
1.65469
1.64543
1.63435
1.62539
1.61453
1.60588
1.59522
1.58686
1.57639
1.56831
1.55802
1.55022
1.5401
1.53256
1.52259
1.51531
1.50548
1.49847
1.48877
1.482
1.47242
1.4659
1.45643
1.45015
1.44076
1.43471
1.42549
1.4198
1.41069
1.40444
1.39409
2.93915
2.91296
2.88553
2.85562
2.82488
2.79273
2.76078
2.7281
2.69618
2.66392
2.63275
2.60146
2.57147
2.54144
2.51282
2.48418
2.45699
2.42976
2.404
2.37813
2.35373
2.32916
2.30604
2.28268
2.26075
2.23851
2.21769
2.19647
2.17667
2.15641
2.13755
2.11815
2.10016
2.08156
2.06437
2.04652
2.03007
2.0129
1.99714
1.9806
1.96549
1.94954
1.93503
1.91961
1.90567
1.89076
1.87734
1.8629
1.84998
1.83597
1.82352
1.80993
1.79792
1.78471
1.77312
1.76026
1.74908
1.73655
1.72575
1.71354
1.7031
1.69119
1.68109
1.66946
1.6597
1.64833
1.63889
1.62776
1.61863
1.60774
1.5989
1.58823
1.57968
1.5692
1.56094
1.55065
1.54265
1.53255
1.52481
1.51487
1.50739
1.49761
1.49038
1.48074
1.47375
1.46424
1.45749
1.44812
1.4416
1.43233
1.42604
1.41689
1.41082
1.40176
1.39592
1.38697
1.38122
1.37244
1.36853
1.35484
2.79205
2.76973
2.74631
2.72067
2.69426
2.66651
2.63886
2.61043
2.58258
2.55428
2.52687
2.49919
2.4726
2.44584
2.42029
2.39457
2.37014
2.34552
2.32222
2.29869
2.2765
2.25401
2.23288
2.21138
2.19124
2.17067
2.15146
2.13174
2.1134
2.09449
2.07695
2.05877
2.04199
2.02449
2.00841
1.99155
1.97612
1.95985
1.94504
1.92932
1.91508
1.89986
1.88617
1.87143
1.85824
1.84395
1.83125
1.81737
1.80512
1.79164
1.77982
1.7667
1.75529
1.74251
1.7315
1.71904
1.7084
1.69624
1.68596
1.67408
1.66415
1.65254
1.64293
1.63157
1.62228
1.61116
1.60218
1.59127
1.58259
1.57189
1.5635
1.55299
1.54488
1.53456
1.52671
1.51657
1.50899
1.499
1.49168
1.48184
1.47477
1.46506
1.45824
1.44867
1.44209
1.43263
1.42629
1.41694
1.41084
1.40159
1.39572
1.38656
1.38092
1.37184
1.36638
1.3574
1.35235
1.34332
1.3394
1.32611
2.68652
2.6666
2.64558
2.62257
2.59889
2.57398
2.54912
2.52351
2.49835
2.47273
2.44784
2.42266
2.39839
2.37392
2.35047
2.32683
2.3043
2.28157
2.25998
2.23816
2.21751
2.19657
2.17682
2.15673
2.13784
2.11854
2.10046
2.0819
2.06458
2.04672
2.03012
2.0129
1.99697
1.98035
1.96504
1.94899
1.93428
1.91875
1.90459
1.88955
1.87591
1.86134
1.84819
1.83405
1.82137
1.80763
1.7954
1.78204
1.77023
1.75722
1.74582
1.73315
1.72213
1.70977
1.69912
1.68705
1.67675
1.66497
1.65501
1.64348
1.63385
1.62257
1.61325
1.60221
1.59319
1.58236
1.57364
1.56302
1.55458
1.54416
1.53599
1.52575
1.51786
1.50779
1.50015
1.49025
1.48287
1.47311
1.46598
1.45636
1.44947
1.43999
1.43334
1.42397
1.41756
1.4083
1.40212
1.39297
1.38701
1.37796
1.37223
1.36326
1.35775
1.34887
1.34353
1.33474
1.3298
1.32095
1.31711
1.30411
2.60947
2.59078
2.57122
2.54992
2.52803
2.50503
2.48205
2.45837
2.43506
2.4113
2.38818
2.36475
2.34212
2.31927
2.29733
2.2752
2.25404
2.23268
2.21235
2.19178
2.17226
2.15246
2.13374
2.11469
2.09673
2.07838
2.06114
2.04346
2.02691
2.00985
1.99394
1.97746
1.96216
1.94623
1.9315
1.91608
1.90189
1.88695
1.87327
1.85878
1.84558
1.83152
1.81878
1.80511
1.79281
1.77952
1.76763
1.75469
1.7432
1.73059
1.71947
1.70718
1.69643
1.68442
1.67402
1.6623
1.65223
1.64077
1.63102
1.61981
1.61037
1.59939
1.59026
1.5795
1.57065
1.5601
1.55154
1.54118
1.53289
1.52272
1.5147
1.5047
1.49694
1.48711
1.47959
1.46992
1.46265
1.45312
1.44609
1.43669
1.42991
1.42063
1.41408
1.40492
1.39859
1.38954
1.38344
1.37449
1.36861
1.35975
1.35409
1.34531
1.33987
1.33114
1.32596
1.31739
1.31242
1.30413
1.2985
1.28903
2.55134
2.5334
2.51478
2.4946
2.47394
2.45224
2.43057
2.40823
2.38624
2.36381
2.34196
2.3198
2.29837
2.27672
2.25589
2.23487
2.21474
2.19441
2.17501
2.15539
2.13672
2.11781
2.09986
2.08162
2.06436
2.04676
2.03017
2.01318
1.9972
1.98078
1.9654
1.94952
1.9347
1.91932
1.90503
1.89012
1.87633
1.86188
1.84856
1.83452
1.82166
1.80801
1.79558
1.78231
1.77029
1.75737
1.74574
1.73315
1.7219
1.70962
1.69873
1.68675
1.67621
1.6645
1.65429
1.64285
1.63296
1.62177
1.61218
1.60123
1.59195
1.58121
1.57222
1.5617
1.55298
1.54266
1.53422
1.52408
1.51591
1.50595
1.49804
1.48824
1.48058
1.47094
1.46353
1.45404
1.44686
1.43751
1.43058
1.42135
1.41465
1.40554
1.39907
1.39007
1.38382
1.37492
1.3689
1.3601
1.35429
1.34557
1.33999
1.33135
1.32598
1.31738
1.31228
1.30383
1.29894
1.29077
1.28523
1.27588
2.50699
2.48951
2.4715
2.45204
2.43223
2.41142
2.39071
2.36933
2.34832
2.32685
2.30595
2.28473
2.26421
2.24345
2.22348
2.20329
2.18395
2.16441
2.14574
2.12685
2.10885
2.09061
2.07327
2.05566
2.03896
2.02194
2.00585
1.9894
1.97388
1.95797
1.943
1.92759
1.91314
1.89821
1.88425
1.86976
1.85628
1.84221
1.82917
1.81551
1.80289
1.7896
1.77739
1.76445
1.75263
1.74003
1.72858
1.7163
1.7052
1.69323
1.68247
1.67078
1.66035
1.64893
1.63882
1.62765
1.61785
1.60693
1.59741
1.58672
1.57749
1.56703
1.55807
1.54781
1.53912
1.52906
1.52064
1.51076
1.50259
1.49289
1.48496
1.47543
1.46774
1.45837
1.45091
1.44169
1.43447
1.42538
1.41839
1.40943
1.40266
1.39383
1.38727
1.37855
1.37221
1.3636
1.35746
1.34895
1.34303
1.33461
1.32889
1.32056
1.31504
1.30678
1.30147
1.2933
1.28808
1.28005
1.27649
1.26405
2.47282
2.45561
2.438
2.41899
2.39978
2.37958
2.35957
2.33885
2.31858
2.29779
2.27762
2.25707
2.23727
2.21714
2.19785
2.17827
2.15958
2.14059
2.12252
2.10416
2.08672
2.06896
2.05214
2.03498
2.01876
2.00216
1.98651
1.97044
1.95533
1.93977
1.92518
1.9101
1.896
1.88137
1.86773
1.85353
1.84034
1.82654
1.81377
1.80035
1.78798
1.77492
1.76294
1.75022
1.73861
1.72622
1.71496
1.70288
1.69196
1.68016
1.66958
1.65806
1.64778
1.63653
1.62656
1.61555
1.60588
1.59511
1.58571
1.57517
1.56605
1.55572
1.54687
1.53675
1.52816
1.51822
1.50989
1.50013
1.49205
1.48247
1.47462
1.4652
1.45759
1.44833
1.44094
1.43183
1.42467
1.41569
1.40875
1.3999
1.39318
1.38446
1.37795
1.36933
1.36303
1.35452
1.34843
1.34002
1.33413
1.32581
1.32013
1.31189
1.30641
1.29823
1.29294
1.28489
1.27991
1.27194
1.26647
1.25745
2.44593
2.42885
2.41149
2.39279
2.37401
2.35425
2.33477
2.31455
2.29484
2.27457
2.25499
2.23496
2.21573
2.19611
2.17738
2.15828
2.14011
2.12158
2.10401
2.08607
2.06909
2.05173
2.03534
2.01853
2.00272
1.98644
1.97116
1.95539
1.94063
1.92534
1.91107
1.89624
1.88243
1.86803
1.85466
1.84066
1.82772
1.81411
1.80157
1.78832
1.77617
1.76326
1.75148
1.73891
1.72748
1.71522
1.70413
1.69217
1.68141
1.66973
1.65928
1.64787
1.63773
1.62658
1.61674
1.60582
1.59627
1.58558
1.5763
1.56584
1.55683
1.54658
1.53783
1.52778
1.51928
1.50942
1.50117
1.49148
1.48348
1.47396
1.46619
1.45684
1.4493
1.4401
1.43279
1.42373
1.41664
1.40772
1.40084
1.39205
1.38539
1.37672
1.37027
1.36171
1.35546
1.347
1.34097
1.33261
1.32677
1.3185
1.31286
1.30468
1.29924
1.29111
1.28587
1.27786
1.27294
1.26502
1.25961
1.25061
2.42563
2.40858
2.39135
2.37284
2.35436
2.33492
2.31582
2.29598
2.2767
2.25683
2.23769
2.21805
2.19927
2.18003
2.16172
2.14298
2.12521
2.107
2.08981
2.07215
2.05553
2.03842
2.02236
2.00578
1.99026
1.97417
1.95917
1.94357
1.92906
1.91391
1.89987
1.88515
1.87156
1.85725
1.84408
1.83017
1.81741
1.80387
1.7915
1.77831
1.76632
1.75347
1.74184
1.72931
1.71803
1.7058
1.69485
1.68292
1.67229
1.66064
1.65032
1.63893
1.62891
1.61778
1.60805
1.59715
1.58771
1.57704
1.56787
1.55742
1.54852
1.53828
1.52963
1.51959
1.51119
1.50134
1.49319
1.48352
1.4756
1.46611
1.45842
1.44909
1.44163
1.43245
1.42522
1.41618
1.40917
1.40027
1.39346
1.3847
1.3781
1.36946
1.36307
1.35454
1.34835
1.33993
1.33394
1.32562
1.31983
1.3116
1.30601
1.29787
1.29247
1.28439
1.27919
1.27121
1.26609
1.25824
1.25475
1.24253
2.41091
2.39383
2.37658
2.35816
2.3398
2.32055
2.30164
2.28204
2.26298
2.24336
2.22444
2.20504
2.18646
2.16743
2.14931
2.13074
2.11314
2.09509
2.07804
2.0605
2.044
2.02697
2.01101
1.99448
1.97904
1.963
1.94807
1.93249
1.91805
1.90291
1.88894
1.87423
1.86071
1.8464
1.83332
1.81941
1.80674
1.7932
1.78093
1.76774
1.75586
1.743
1.7315
1.71895
1.70779
1.69554
1.68473
1.67276
1.66227
1.65058
1.64042
1.62899
1.61913
1.60795
1.5984
1.58746
1.57819
1.56748
1.55849
1.54799
1.53928
1.52899
1.52054
1.51044
1.50225
1.49234
1.4844
1.47466
1.46696
1.45739
1.44993
1.44051
1.43329
1.42401
1.41702
1.40788
1.40111
1.39211
1.38556
1.37667
1.37034
1.36157
1.35545
1.34678
1.34087
1.3323
1.32659
1.31812
1.31262
1.30423
1.29892
1.29061
1.28551
1.27727
1.27233
1.26417
1.2596
1.25138
1.24782
1.23576
2.39898
2.38183
2.36452
2.34612
2.32776
2.30856
2.28965
2.27006
2.25095
2.23129
2.21227
2.1928
2.17407
2.15495
2.13666
2.118
2.10023
2.08211
2.06488
2.04719
2.03048
2.0133
1.99715
1.98051
1.96493
1.94883
1.93382
1.91825
1.90379
1.88872
1.87478
1.86018
1.84673
1.83258
1.8196
1.80587
1.79333
1.77998
1.76787
1.75488
1.74316
1.73052
1.71918
1.70687
1.6959
1.6839
1.67327
1.66156
1.65126
1.63982
1.62983
1.61864
1.60896
1.59802
1.58863
1.5779
1.5688
1.55829
1.54945
1.53915
1.53057
1.52047
1.51215
1.50222
1.49415
1.4844
1.47657
1.46699
1.4594
1.44997
1.44261
1.43332
1.42619
1.41705
1.41014
1.40113
1.39444
1.38555
1.37907
1.3703
1.36404
1.35537
1.34931
1.34075
1.3349
1.32643
1.32078
1.3124
1.30695
1.29865
1.2934
1.28517
1.28012
1.27197
1.26707
1.259
1.25446
1.24633
1.24281
1.23085
2.39031
2.37268
2.35472
2.33545
2.31614
2.29585
2.27588
2.25519
2.23512
2.21453
2.19477
2.17461
2.15542
2.1359
2.11742
2.09861
2.08089
2.06282
2.04588
2.02864
2.0125
1.99597
1.98053
1.96463
1.94981
1.93446
1.92018
1.90533
1.89155
1.87713
1.86381
1.84981
1.83691
1.82328
1.81078
1.79751
1.78539
1.77244
1.76069
1.74806
1.73665
1.72431
1.71324
1.70119
1.69043
1.67865
1.66821
1.65669
1.64654
1.63526
1.62541
1.61437
1.6048
1.59398
1.58468
1.57408
1.56505
1.55465
1.54588
1.53568
1.52716
1.51714
1.50887
1.49903
1.491
1.48133
1.47354
1.46402
1.45646
1.4471
1.43977
1.43055
1.42344
1.41436
1.40747
1.39852
1.39184
1.38301
1.37654
1.36783
1.36157
1.35296
1.34691
1.3384
1.33255
1.32413
1.31848
1.31015
1.3047
1.29645
1.2912
1.28303
1.27796
1.26983
1.26501
1.25702
1.25239
1.24465
1.2394
1.23057
2.36069
2.34175
2.3232
2.30402
2.28535
2.26616
2.2476
2.2286
2.21034
2.19168
2.17384
2.15561
2.13825
2.12051
2.10366
2.08642
2.07009
2.05334
2.03753
2.02126
2.00594
1.99013
1.97529
1.95991
1.94552
1.93056
1.91661
1.90204
1.88851
1.87432
1.86118
1.84735
1.8346
1.82111
1.80873
1.79556
1.78354
1.77069
1.75901
1.74646
1.73511
1.72285
1.71183
1.69983
1.68913
1.6774
1.66699
1.65552
1.64541
1.63417
1.62435
1.61334
1.6038
1.59301
1.58374
1.57316
1.56415
1.55378
1.54503
1.53485
1.52634
1.51635
1.50809
1.49827
1.49025
1.4806
1.47281
1.46332
1.45576
1.44642
1.43909
1.42989
1.42278
1.41372
1.40683
1.39789
1.39122
1.3824
1.37593
1.36723
1.36097
1.35238
1.34632
1.33782
1.33198
1.32357
1.31792
1.3096
1.30415
1.29591
1.29066
1.28249
1.27744
1.26931
1.2645
1.25652
1.25191
1.2442
1.23897
1.23013
3.55007
3.67245
3.88116
4.04511
4.41868
4.64618
5.28141
5.99245
7.06934
11.0221
3.26628
3.31271
3.47524
3.60078
3.81818
4.11986
4.37009
5.00277
5.48319
7.96222
3.05453
3.12547
3.17197
3.30732
3.39349
3.65179
3.80303
4.25399
4.53981
6.02474
2.93495
2.98778
3.01312
3.10097
3.15004
3.31072
3.40836
3.70813
3.89413
4.79444
2.84212
2.88037
2.89715
2.95815
2.98913
3.09065
3.15072
3.33746
3.4553
4.00232
2.76759
2.79347
2.80498
2.84778
2.86879
2.93713
2.97526
3.09246
3.16503
3.49417
2.71058
2.72711
2.734
2.76298
2.7767
2.82311
2.84787
2.92385
2.96876
3.16712
2.66585
2.67493
2.67883
2.69727
2.70592
2.73652
2.75248
2.80194
2.83035
2.95056
2.62919
2.63336
2.63467
2.6456
2.65037
2.66981
2.67945
2.71136
2.72882
2.80377
2.59988
2.59962
2.59935
2.60416
2.60621
2.6172
2.62249
2.64192
2.65164
2.69989
2.57665
2.57369
2.57095
2.57127
2.57122
2.57572
2.57783
2.58794
2.59281
2.62265
2.55788
2.55322
2.54818
2.54575
2.54295
2.54284
2.54258
2.54599
2.54751
2.56472
2.54307
2.53637
2.53024
2.52527
2.52085
2.51737
2.51452
2.51286
2.51193
2.52013
2.53102
2.52316
2.51555
2.50933
2.50266
2.49783
2.49173
2.48838
2.48242
2.48583
2.52131
2.51322
2.50372
2.49712
2.48814
2.48261
2.47377
2.46922
2.45855
2.45888
2.51391
2.50599
2.4948
2.48814
2.47725
2.47128
2.46034
2.45471
2.44289
2.43866
2.50783
2.50019
2.48768
2.48094
2.46886
2.46233
2.45032
2.44353
2.43151
2.42412
2.50356
2.49472
2.48242
2.47418
2.46243
2.45412
2.44247
2.43364
2.42187
2.41237
2.50144
2.49153
2.47941
2.46996
2.45833
2.44872
2.43708
2.42693
2.41495
2.40413
2.4893
2.47668
2.46332
2.45135
2.43837
2.42662
2.41358
2.40171
2.38833
2.37618
3.4114
3.67428
4.08798
4.74304
5.94792
7.66765
11.6588
22.0955
71.846
48.9937
3.43841
3.71964
4.11671
4.76681
5.93168
8.13464
12.7347
22.7657
74.5156
49.3807
3.4358
3.71709
4.20088
4.90142
6.25366
8.15569
12.7485
24.0266
78.7433
49.6487
3.47786
3.72694
4.1973
4.89324
6.25171
8.77555
14.0657
24.5549
82.1306
49.7718
3.47808
3.75688
4.30794
5.08594
6.64394
8.83003
14.1646
26.6551
86.2727
49.8563
3.54837
3.7804
4.31332
5.10158
6.68453
9.61698
15.9545
27.3891
90.1873
49.8363
3.56251
3.87362
4.47477
5.37399
7.19953
9.76155
16.2078
30.2183
94.1451
49.4798
3.67279
3.9255
4.52208
5.44256
7.33021
10.8476
18.4101
31.8419
97.6793
49.0116
3.70814
4.06986
4.77596
5.86375
8.07106
11.1674
19.3085
36.403
99.0871
48.7694
3.87861
4.18314
4.88845
6.03264
8.32592
12.7806
21.7925
41.4696
98.3847
48.3728
3.4236
3.66416
4.03754
4.44096
5.51426
6.36281
11.8365
16.781
52.4658
46.063
3.4253
3.63814
4.00133
4.40822
5.08036
6.95949
9.62708
19.0624
48.3684
43.8631
3.43812
3.65695
4.02859
4.4471
5.19366
7.08504
9.65979
19.5439
49.1031
43.4417
3.42875
3.66823
4.02042
4.48629
5.30654
7.1023
9.85549
19.9551
51.9603
43.856
3.42382
3.67268
4.00699
4.52885
5.38269
7.11892
10.2993
19.9761
54.243
44.3296
3.41735
3.69353
3.99008
4.53901
5.42072
7.14041
10.6489
20.3776
56.6176
45.0184
3.41023
3.67261
4.05498
4.54218
5.43271
7.19624
10.8416
20.2831
59.56
45.8088
3.39845
3.66615
4.03508
4.67035
5.46687
7.18607
11.0694
21.0552
61.7462
46.8086
3.38354
3.64233
4.02771
4.66329
5.71096
7.32884
10.9429
20.8413
65.5106
47.4504
3.39332
3.67656
4.02596
4.68369
5.68348
7.61063
11.7416
21.7117
67.7007
48.3647
57.852
49.6857
43.4318
38.5054
34.534
31.2705
28.5449
26.2369
24.2591
22.5467
21.0506
19.7329
18.5639
17.5204
16.5833
15.7376
14.9705
14.2719
13.6331
13.0468
12.5069
12.0082
11.5462
11.1171
10.7175
10.3445
9.99555
9.66852
9.36132
9.07234
8.7999
8.54277
8.29958
8.06938
7.85101
7.64377
7.44666
7.25913
7.08035
6.9099
6.74703
6.59144
6.44247
6.2999
6.16313
6.03203
5.90605
5.7851
5.66867
5.55675
5.44885
5.34499
5.2447
5.14807
5.05462
4.9645
4.87721
4.79298
4.71126
4.63235
4.55568
4.48161
4.40954
4.33988
4.27201
4.20638
4.14236
4.08043
4.01995
3.96141
3.90419
3.8488
3.79459
3.74213
3.69072
3.64101
3.59221
3.5451
3.49879
3.45416
3.41025
3.36804
3.3265
3.28673
3.24764
3.21045
3.17404
3.13978
3.10656
3.07599
3.04704
3.02175
2.99936
2.98274
2.972
2.97238
2.99838
3.031
3.12065
3.27651
57.8485
49.6785
43.4225
38.495
34.5231
31.2594
28.5338
26.2259
24.2484
22.5363
21.0405
19.7231