/*--------------------------------*- C++ -*----------------------------------*\
  =========                 |
  \\      /  F ield         | OpenFOAM: The Open Source CFD Toolbox
   \\    /   O peration     | Website:  https://openfoam.org
    \\  /    A nd           | Version:  8
     \\/     M anipulation  |
\*---------------------------------------------------------------------------*/
FoamFile
{
    version     2.0;
    format      ascii;
    class       volScalarField;
    location    "1.499985";
    object      nut;
}
// * * * * * * * * * * * * * * * * * * * * * * * * * * * * * * * * * * * * * //

dimensions      [0 2 -1 0 0 0 0];

internalField   nonuniform List<scalar> 
6800
(
0.0800272
0.11311
0.114822
0.1112
0.111204
0.0950617
0.0761508
0.0568396
0.0464067
0.0473877
0.0608035
0.099449
0.106359
0.107337
0.099822
0.0773628
0.0570968
0.0493257
0.0455127
0.0383808
0.0615249
0.0961327
0.105751
0.100392
0.0822976
0.0609831
0.0513122
0.0450557
0.0351415
0.031812
0.0627151
0.0949899
0.100893
0.0924962
0.0696113
0.0564149
0.0462755
0.0377327
0.032692
0.0305671
0.0627782
0.093746
0.0986552
0.0840353
0.0617167
0.0486177
0.0397514
0.0354754
0.0311462
0.0265524
0.0632825
0.0959063
0.0955208
0.0726397
0.0547496
0.0465932
0.0393997
0.0329164
0.0275112
0.0251735
0.0631473
0.0979863
0.0922327
0.0675699
0.0542887
0.0421743
0.0344044
0.0291614
0.026333
0.024513
0.0633927
0.101549
0.086436
0.0584962
0.0462284
0.0404157
0.0330555
0.029273
0.0250127
0.0230687
0.0633324
0.1041
0.0778838
0.0614028
0.0497806
0.0374334
0.0303083
0.0265185
0.0237541
0.0226364
0.0636325
0.106546
0.0740186
0.0533933
0.0404192
0.0362424
0.0296029
0.0262779
0.0233905
0.0217379
0.582296
0.856015
0.978841
1.0143
1.00962
1.01917
1.03681
1.05919
1.07379
1.07957
0.508351
0.832285
0.933471
0.975264
0.961125
0.962064
0.970026
0.976209
0.971637
0.96597
0.442024
0.804955
0.869771
0.903782
0.88006
0.872566
0.865864
0.861854
0.860338
0.846636
0.392986
0.72111
0.800964
0.791891
0.770642
0.747196
0.732504
0.713474
0.677276
0.607583
0.344052
0.639568
0.663677
0.661967
0.626347
0.602058
0.571844
0.509846
0.456826
0.352602
0.329573
0.577274
0.538339
0.523315
0.499808
0.452594
0.38682
0.291474
0.237831
0.170598
0.324276
0.431948
0.448803
0.420202
0.357527
0.266613
0.196641
0.151795
0.139046
0.107881
0.371558
0.376103
0.34774
0.281304
0.195921
0.155591
0.133136
0.111189
0.10639
0.0860095
0.364187
0.284725
0.231818
0.160948
0.134433
0.121741
0.108154
0.0966411
0.0925967
0.0669432
0.230383
0.156255
0.137478
0.122932
0.117528
0.110597
0.0955036
0.0837247
0.0601646
0.0484108
1.08269
1.07033
1.05155
1.03132
1.01218
0.994954
0.979676
0.966661
0.955558
0.945902
0.937405
0.929872
0.923174
0.91721
0.911884
0.907111
0.902808
0.898905
0.895344
0.892075
0.889057
0.886251
0.883621
0.881147
0.878795
0.876523
0.874315
0.872167
0.870072
0.868013
0.865995
0.864029
0.862128
0.860301
0.858559
0.856908
0.855352
0.853895
0.852539
0.851279
0.850115
0.849043
0.848061
0.847165
0.846345
0.845597
0.844911
0.844278
0.843698
0.843161
0.842664
0.842199
0.841762
0.841347
0.840953
0.840574
0.84021
0.839858
0.839517
0.839185
0.838863
0.83855
0.838245
0.837948
0.837661
0.837383
0.837115
0.836858
0.836613
0.83638
0.836161
0.835957
0.835769
0.835598
0.835444
0.835308
0.835189
0.835088
0.835003
0.834937
0.834882
0.834847
0.834818
0.834813
0.834802
0.834825
0.834824
0.83488
0.834877
0.834976
0.834953
0.835115
0.835046
0.835294
0.83518
0.835512
0.835304
0.835847
0.834844
0.837172
0.968408
0.965345
0.954553
0.942109
0.929886
0.918428
0.907952
0.899039
0.891244
0.884375
0.878349
0.873076
0.868465
0.864451
0.860945
0.857863
0.855136
0.852706
0.850529
0.848565
0.84678
0.845142
0.843619
0.842207
0.840818
0.839408
0.838012
0.836653
0.835295
0.833913
0.832564
0.831274
0.830054
0.828912
0.827851
0.826874
0.825982
0.825173
0.824451
0.823802
0.823235
0.822756
0.822358
0.822032
0.821768
0.821556
0.821382
0.821253
0.821168
0.82111
0.821071
0.821044
0.821025
0.82101
0.820998
0.820985
0.820972
0.820957
0.82094
0.82092
0.820899
0.820875
0.820848
0.820818
0.820784
0.820753
0.820721
0.82069
0.820663
0.820641
0.820627
0.820625
0.820634
0.820658
0.820696
0.82075
0.820817
0.820902
0.820999
0.821114
0.821237
0.821378
0.821521
0.821687
0.821842
0.822031
0.822189
0.822406
0.822553
0.822809
0.822927
0.823242
0.823307
0.82371
0.823717
0.824207
0.824117
0.824831
0.823894
0.82646
0.851688
0.853909
0.845888
0.837098
0.828673
0.82081
0.813698
0.8065
0.799857
0.794083
0.789217
0.785185
0.781877
0.779229
0.777084
0.775357
0.773983
0.772908
0.772093
0.771494
0.771075
0.770797
0.770635
0.770543
0.770551
0.770663
0.770852
0.771052
0.771379
0.771846
0.772389
0.772975
0.773585
0.774215
0.774858
0.775516
0.776186
0.776868
0.777569
0.778259
0.77902
0.779841
0.780687
0.781538
0.782382
0.783211
0.784023
0.7848
0.785539
0.786242
0.786915
0.78756
0.78818
0.788776
0.789348
0.789897
0.790422
0.790925
0.791407
0.791866
0.792311
0.792726
0.793112
0.793478
0.793825
0.794168
0.794485
0.794789
0.795088
0.79539
0.795697
0.796013
0.796338
0.796675
0.797022
0.797381
0.797753
0.798139
0.798533
0.798942
0.799352
0.799778
0.800196
0.800635
0.801051
0.801502
0.801907
0.802374
0.802754
0.803252
0.803588
0.804142
0.804413
0.805055
0.805256
0.80599
0.806057
0.807044
0.806223
0.809195
0.605506
0.609837
0.61185
0.613454
0.615321
0.617312
0.619477
0.622177
0.625216
0.628614
0.632344
0.636299
0.640401
0.644634
0.648752
0.652746
0.656648
0.660466
0.664206
0.667856
0.671408
0.674842
0.678155
0.681331
0.684374
0.687291
0.690092
0.6928
0.695366
0.697809
0.700179
0.702489
0.704746
0.706956
0.709114
0.711231
0.713301
0.715346
0.717332
0.719334
0.721205
0.722965
0.724648
0.726276
0.727861
0.729412
0.730934
0.732427
0.733887
0.735314
0.736712
0.738082
0.739423
0.740733
0.742012
0.743259
0.744473
0.745654
0.746801
0.747918
0.749
0.750062
0.751109
0.752138
0.753154
0.754145
0.755151
0.756162
0.757173
0.75818
0.759181
0.760178
0.761166
0.762152
0.763124
0.764103
0.765084
0.766065
0.767034
0.767999
0.768944
0.769888
0.7708
0.77172
0.772594
0.773494
0.774321
0.775211
0.775982
0.776879
0.777579
0.778509
0.779107
0.780103
0.7806
0.781677
0.782024
0.783351
0.782701
0.786196
0.341359
0.338033
0.338424
0.34177
0.34741
0.354793
0.363342
0.372712
0.382641
0.393275
0.404196
0.415146
0.426192
0.436941
0.446831
0.456398
0.465809
0.475029
0.484026
0.492773
0.501264
0.509478
0.517418
0.525069
0.532451
0.539554
0.546417
0.553024
0.559437
0.565606
0.571621
0.577407
0.582967
0.588299
0.593428
0.598393
0.603204
0.607872
0.612418
0.61683
0.621167
0.625423
0.629584
0.63365
0.637615
0.641478
0.645242
0.648912
0.652448
0.655883
0.659243
0.66252
0.665697
0.668776
0.67175
0.674622
0.677392
0.680066
0.682644
0.685134
0.68754
0.689868
0.692127
0.694323
0.696463
0.698554
0.700589
0.702582
0.704535
0.706458
0.708349
0.710213
0.71205
0.713859
0.715646
0.717391
0.719085
0.720745
0.722361
0.723954
0.725502
0.727037
0.728519
0.730005
0.73142
0.732865
0.734211
0.735629
0.736895
0.738308
0.739482
0.740919
0.741976
0.74347
0.744413
0.745989
0.746744
0.748599
0.7483
0.752456
0.168344
0.16748
0.167251
0.167939
0.169424
0.171728
0.174817
0.178477
0.183065
0.189041
0.194657
0.200829
0.208337
0.215402
0.224489
0.23373
0.243963
0.254801
0.265818
0.277025
0.288425
0.29989
0.311339
0.322664
0.33388
0.344868
0.355714
0.366266
0.376685
0.386742
0.396736
0.405911
0.414628
0.422856
0.430879
0.438856
0.446658
0.454316
0.461837
0.469241
0.476516
0.483683
0.490725
0.497645
0.504443
0.511089
0.517627
0.523923
0.529961
0.535969
0.541935
0.547691
0.553217
0.558557
0.563698
0.568673
0.573469
0.57812
0.582611
0.586963
0.591188
0.595299
0.599302
0.60321
0.607024
0.610758
0.614409
0.617991
0.621496
0.624938
0.628305
0.631615
0.634846
0.638026
0.64112
0.644175
0.647145
0.650061
0.652908
0.65571
0.658424
0.661105
0.663691
0.666266
0.668723
0.671205
0.673534
0.675943
0.67814
0.680502
0.682557
0.684905
0.686796
0.689169
0.690893
0.693334
0.694799
0.697499
0.697879
0.702963
0.106716
0.105335
0.104052
0.103134
0.102407
0.101947
0.101603
0.101565
0.101741
0.102195
0.103005
0.103861
0.105317
0.106662
0.108318
0.110075
0.112368
0.114521
0.117766
0.12097
0.124993
0.12939
0.134121
0.139261
0.144878
0.150892
0.157384
0.164223
0.171547
0.179179
0.187233
0.19593
0.205485
0.215489
0.225737
0.236216
0.246828
0.257553
0.2683
0.279049
0.289724
0.300313
0.310758
0.321048
0.331145
0.341045
0.350714
0.360178
0.369385
0.378133
0.386471
0.394457
0.402185
0.409755
0.417088
0.424294
0.431293
0.438211
0.444833
0.451391
0.457852
0.464197
0.470415
0.476525
0.482508
0.48839
0.494143
0.499802
0.505328
0.510751
0.516029
0.521204
0.526224
0.53116
0.535924
0.540649
0.545123
0.549591
0.554008
0.558288
0.562421
0.566529
0.570488
0.574439
0.57821
0.582024
0.585617
0.589321
0.592732
0.596355
0.599571
0.603146
0.606141
0.609707
0.612461
0.616076
0.61851
0.622359
0.623694
0.629844
0.0848518
0.0834639
0.0821473
0.0809138
0.0796578
0.0784004
0.0771398
0.0759015
0.0744231
0.0730498
0.0713727
0.0699514
0.0682757
0.0669041
0.065812
0.0647864
0.0640431
0.063318
0.062899
0.0625613
0.0625288
0.0625808
0.0628956
0.0632701
0.0639053
0.0647082
0.0655799
0.0667135
0.0681649
0.069872
0.071737
0.0738892
0.0763644
0.0792392
0.0824819
0.0861943
0.0902928
0.0948731
0.0998495
0.105327
0.111205
0.117562
0.124289
0.131461
0.138952
0.146846
0.154989
0.163488
0.172149
0.181332
0.190839
0.200739
0.210702
0.220742
0.230751
0.240748
0.250638
0.26044
0.270076
0.279561
0.288852
0.297977
0.306888
0.31563
0.324147
0.332505
0.340633
0.348623
0.356264
0.363708
0.370827
0.377814
0.384576
0.391284
0.397765
0.404236
0.410463
0.416716
0.422698
0.428788
0.434517
0.440466
0.44607
0.451666
0.457032
0.462522
0.467665
0.473007
0.477905
0.483119
0.487738
0.492849
0.497151
0.502198
0.506149
0.511236
0.51471
0.519982
0.522762
0.529856
0.0650167
0.0631364
0.0612849
0.0593925
0.0575596
0.0558086
0.0542069
0.0526908
0.0513811
0.0501261
0.0491007
0.0480066
0.0469407
0.0458499
0.0449054
0.0440621
0.0433328
0.0426701
0.0420997
0.0415775
0.041133
0.0407287
0.0403924
0.0400875
0.0398486
0.0396301
0.0394865
0.0393464
0.0392929
0.0392355
0.0392788
0.03931
0.0394592
0.039594
0.0399374
0.0403476
0.0405795
0.0410362
0.0416175
0.0423666
0.0432294
0.0442424
0.0453532
0.0466967
0.0481582
0.0498904
0.0517732
0.053972
0.0563464
0.0590721
0.0620013
0.0653498
0.0689413
0.0729923
0.0772992
0.0820769
0.0871128
0.0926128
0.0983618
0.104556
0.110971
0.117805
0.124822
0.132221
0.139755
0.147625
0.155576
0.163807
0.172182
0.180896
0.189648
0.198653
0.207482
0.216468
0.225196
0.234046
0.242566
0.251194
0.259424
0.267772
0.275668
0.283706
0.291248
0.298986
0.30614
0.313597
0.320367
0.327587
0.333972
0.340881
0.346765
0.353454
0.35885
0.365452
0.37037
0.377019
0.381549
0.388223
0.39256
0.400382
0.0475022
0.0459014
0.0443377
0.0430399
0.0419287
0.0409458
0.0400586
0.039244
0.0384974
0.037797
0.0371401
0.0365306
0.0359613
0.0354307
0.0349314
0.0344695
0.0340368
0.0336397
0.0332688
0.0329314
0.0326159
0.0323312
0.0320634
0.0318242
0.0315967
0.0313956
0.0312017
0.031034
0.0308695
0.0307299
0.0305924
0.0304778
0.0303631
0.0302754
0.0301794
0.030108
0.0300513
0.0299926
0.0299467
0.0299193
0.029904
0.0299184
0.029929
0.0299887
0.0300361
0.0301303
0.0302368
0.0303833
0.0305938
0.0307168
0.0309925
0.0312432
0.0316005
0.0320709
0.0324594
0.0330805
0.0335673
0.0343701
0.0350726
0.0360785
0.0370096
0.0382989
0.0395136
0.0411495
0.0427078
0.0447576
0.0467146
0.0492378
0.0516486
0.0547083
0.0576348
0.0612897
0.0647735
0.0690493
0.0730933
0.0779897
0.0825741
0.0880717
0.0931554
0.0992181
0.104741
0.111322
0.117208
0.12425
0.130408
0.13785
0.144178
0.151957
0.158345
0.166549
0.173007
0.181562
0.18794
0.196785
0.202763
0.211775
0.217222
0.226257
0.233292
0.240981
0.0383988
0.0375218
0.0366745
0.0358677
0.035115
0.0344139
0.0337592
0.0331532
0.0325852
0.0320655
0.0315924
0.0311641
0.0307688
0.0304099
0.0300751
0.0297715
0.0294844
0.0292244
0.0289764
0.028753
0.0285352
0.028339
0.0281436
0.0279685
0.0277906
0.0276328
0.0274696
0.027327
0.0271767
0.0270478
0.0269091
0.0267922
0.0266642
0.0265577
0.0264388
0.0263412
0.0262294
0.0261394
0.0260395
0.0259621
0.025872
0.0258071
0.0257257
0.0256728
0.0256002
0.0255582
0.0254947
0.0254633
0.0254083
0.0253885
0.0253418
0.0253327
0.0252972
0.0252995
0.025278
0.0252915
0.0252853
0.0253114
0.0253227
0.0253661
0.025398
0.0254659
0.0255261
0.0256264
0.0257603
0.025862
0.0259824
0.0261914
0.0263476
0.0266348
0.0268474
0.0272284
0.0275063
0.0280222
0.0283842
0.0290664
0.0295352
0.030428
0.0310228
0.0321818
0.0329163
0.0344133
0.0353094
0.0372115
0.0383353
0.0406336
0.0420105
0.0447941
0.0464281
0.0497473
0.0516716
0.055561
0.057792
0.062286
0.0647685
0.0698961
0.0724786
0.0781624
0.0807099
0.0898769
0.0318297
0.0314064
0.0309926
0.0305864
0.030179
0.029773
0.0293839
0.0290087
0.0286577
0.0283244
0.0280156
0.0277232
0.0274527
0.0271969
0.0269602
0.0267367
0.0265294
0.026334
0.0261488
0.0259722
0.0258034
0.0256428
0.0254877
0.0253407
0.0251973
0.0250623
0.0249297
0.024806
0.024684
0.0245718
0.0244603
0.0243596
0.0242583
0.0241688
0.0240769
0.0239978
0.023914
0.0238439
0.0237667
0.023704
0.0236319
0.023575
0.0235069
0.0234551
0.0233905
0.0233434
0.0232822
0.0232398
0.0231818
0.0231438
0.0230894
0.0230557
0.0230052
0.0229755
0.0229291
0.0229031
0.0228607
0.0228378
0.0227992
0.0227787
0.0227433
0.0227231
0.0226871
0.022667
0.0226337
0.0226181
0.0225879
0.0225789
0.0225556
0.0225538
0.0225371
0.0225438
0.0225363
0.0225517
0.022555
0.0225796
0.0225962
0.022631
0.0226645
0.0227096
0.0227644
0.0228241
0.022931
0.0230304
0.0231375
0.0232555
0.0233432
0.0235571
0.0236979
0.0239614
0.0241529
0.0245589
0.0247503
0.0253384
0.0255153
0.0263657
0.0264087
0.028088
0.0279045
0.0304348
0.0274791
0.0272352
0.0269864
0.0267253
0.0264642
0.0261995
0.0259426
0.0256872
0.0254436
0.0252036
0.0249773
0.0247552
0.0245476
0.0243439
0.0241546
0.0239687
0.0237968
0.0236277
0.0234719
0.0233185
0.0231781
0.0230397
0.0229135
0.0227891
0.022676
0.0225645
0.0224631
0.0223631
0.0222722
0.0221824
0.0221005
0.0220197
0.0219459
0.021873
0.0218063
0.0217406
0.0216802
0.0216211
0.0215664
0.0215133
0.0214636
0.021416
0.0213707
0.021328
0.0212866
0.0212483
0.0212102
0.0211759
0.0211406
0.02111
0.0210771
0.0210498
0.0210191
0.0209949
0.020966
0.0209448
0.0209175
0.020899
0.0208732
0.0208572
0.0208327
0.0208189
0.0207954
0.0207838
0.0207611
0.0207515
0.0207294
0.0207217
0.0206999
0.0206942
0.0206726
0.020669
0.0206472
0.0206459
0.0206238
0.0206252
0.0206025
0.0206068
0.0205832
0.0205908
0.0205663
0.0205777
0.0205524
0.0205691
0.0205434
0.0205655
0.0205394
0.020567
0.0205422
0.0205757
0.0205535
0.020594
0.0205771
0.020624
0.0206163
0.02067
0.0206795
0.0207339
0.0207614
0.0208773
0.0244834
0.0243373
0.0241833
0.0240141
0.0238419
0.0236622
0.0234873
0.02331
0.0231418
0.0229737
0.0228172
0.0226617
0.0225187
0.0223765
0.0222473
0.0221181
0.0220018
0.0218846
0.0217801
0.0216737
0.0215798
0.0214831
0.0213988
0.0213108
0.0212352
0.0211551
0.0210872
0.0210142
0.0209533
0.0208864
0.0208315
0.0207701
0.0207204
0.0206636
0.0206185
0.0205658
0.0205248
0.0204756
0.0204382
0.0203924
0.0203583
0.0203155
0.0202845
0.0202443
0.020216
0.0201784
0.0201525
0.0201171
0.0200935
0.0200601
0.0200386
0.0200069
0.0199874
0.0199575
0.0199398
0.0199113
0.0198953
0.0198683
0.0198539
0.0198282
0.0198151
0.0197906
0.0197788
0.0197553
0.0197446
0.019722
0.0197122
0.0196905
0.0196814
0.0196605
0.0196521
0.0196319
0.0196242
0.0196047
0.0195975
0.0195786
0.019572
0.0195537
0.0195477
0.0195299
0.0195243
0.019507
0.019502
0.0194851
0.0194806
0.0194641
0.01946
0.0194439
0.0194403
0.0194246
0.0194212
0.0194059
0.0194028
0.0193879
0.0193837
0.019367
0.019358
0.0193336
0.0193837
0.0192709
0.0222999
0.022215
0.0221229
0.022016
0.0219053
0.0217861
0.0216692
0.0215478
0.021432
0.0213138
0.021203
0.0210908
0.0209871
0.0208822
0.0207864
0.0206893
0.0206017
0.0205123
0.0204325
0.0203505
0.0202782
0.0202031
0.0201376
0.0200687
0.0200095
0.0199463
0.0198927
0.0198345
0.0197861
0.0197324
0.0196886
0.019639
0.0195994
0.0195534
0.0195175
0.0194749
0.0194424
0.0194027
0.0193733
0.0193362
0.0193097
0.019275
0.0192509
0.0192183
0.0191966
0.019166
0.0191463
0.0191174
0.0190997
0.0190723
0.0190563
0.0190302
0.0190158
0.018991
0.0189779
0.0189541
0.0189423
0.0189195
0.0189088
0.0188869
0.0188772
0.0188561
0.0188473
0.0188269
0.018819
0.0187994
0.0187922
0.0187732
0.0187668
0.0187485
0.0187426
0.0187249
0.0187196
0.0187026
0.0186978
0.0186812
0.0186768
0.0186609
0.0186568
0.0186413
0.0186375
0.0186226
0.0186189
0.0186045
0.0186009
0.018587
0.0185834
0.0185701
0.0185665
0.0185538
0.0185499
0.0185378
0.0185338
0.0185223
0.0185178
0.018507
0.0185022
0.0184921
0.0184861
0.0184745
0.0207857
0.0207402
0.0206896
0.0206242
0.0205555
0.0204769
0.0204002
0.0203169
0.0202385
0.0201554
0.0200789
0.0199987
0.0199262
0.0198504
0.0197829
0.019712
0.0196499
0.0195841
0.0195272
0.0194663
0.0194144
0.0193581
0.0193109
0.0192588
0.0192159
0.0191677
0.0191286
0.0190838
0.0190481
0.0190064
0.0189739
0.018935
0.0189053
0.0188688
0.0188418
0.0188075
0.0187828
0.0187505
0.018728
0.0186975
0.0186769
0.018648
0.0186292
0.0186017
0.0185845
0.0185584
0.0185426
0.0185176
0.0185032
0.0184792
0.018466
0.018443
0.0184308
0.0184086
0.0183974
0.0183759
0.0183656
0.0183447
0.0183352
0.0183149
0.0183061
0.0182864
0.0182782
0.0182591
0.0182515
0.0182329
0.0182259
0.0182078
0.0182014
0.0181838
0.0181778
0.0181607
0.0181552
0.0181386
0.0181334
0.0181172
0.0181124
0.0180967
0.018092
0.0180768
0.0180723
0.0180575
0.0180532
0.0180389
0.0180346
0.0180207
0.0180164
0.018003
0.0179986
0.0179858
0.0179812
0.0179689
0.0179642
0.0179525
0.0179474
0.0179364
0.0179309
0.0179204
0.0179166
0.0179017
0.019742
0.0197185
0.0196919
0.019651
0.0196078
0.0195543
0.0195027
0.0194434
0.0193885
0.0193274
0.0192724
0.0192119
0.0191586
0.0191003
0.0190498
0.0189944
0.0189472
0.0188949
0.0188512
0.0188021
0.0187618
0.0187159
0.0186789
0.0186359
0.0186019
0.0185616
0.0185305
0.0184927
0.0184641
0.0184286
0.0184024
0.0183689
0.0183449
0.0183132
0.0182912
0.0182612
0.0182409
0.0182125
0.0181939
0.0181668
0.0181497
0.0181238
0.0181081
0.0180834
0.0180689
0.0180452
0.018032
0.0180092
0.017997
0.017975
0.0179638
0.0179426
0.0179323
0.0179118
0.0179023
0.0178824
0.0178737
0.0178544
0.0178463
0.0178276
0.0178202
0.017802
0.0177951
0.0177774
0.017771
0.0177538
0.0177479
0.0177311
0.0177256
0.0177092
0.0177041
0.0176881
0.0176832
0.0176677
0.0176631
0.0176479
0.0176435
0.0176288
0.0176245
0.0176102
0.017606
0.0175921
0.0175879
0.0175744
0.0175703
0.0175572
0.017553
0.0175404
0.017536
0.0175239
0.0175194
0.0175079
0.0175031
0.0174918
0.0174862
0.0174769
0.0174772
0.0174675
0.0174088
0.0174873
0.0189938
0.0189835
0.0189709
0.0189449
0.0189171
0.0188791
0.0188431
0.0187991
0.0187592
0.0187124
0.0186713
0.0186241
0.0185837
0.0185373
0.0184986
0.0184539
0.0184174
0.0183747
0.0183406
0.0183001
0.0182686
0.0182303
0.0182012
0.018165
0.0181382
0.018104
0.0180794
0.018047
0.0180244
0.0179937
0.017973
0.0179437
0.0179247
0.0178969
0.0178794
0.0178528
0.0178367
0.0178112
0.0177965
0.017772
0.0177584
0.0177348
0.0177224
0.0176996
0.0176882
0.0176661
0.0176556
0.0176342
0.0176245
0.0176037
0.0175948
0.0175746
0.0175664
0.0175467
0.0175392
0.01752
0.0175131
0.0174943
0.0174879
0.0174697
0.0174638
0.0174459
0.0174405
0.017423
0.017418
0.0174009
0.0173962
0.0173795
0.0173751
0.0173588
0.0173547
0.0173387
0.0173348
0.0173192
0.0173155
0.0173002
0.0172966
0.0172818
0.0172783
0.0172638
0.0172603
0.0172462
0.0172427
0.017229
0.0172254
0.0172122
0.0172084
0.0171957
0.0171917
0.0171796
0.0171753
0.0171637
0.017159
0.0171482
0.0171435
0.0171325
0.0171209
0.0171119
0.0171587
0.017055
0.0184504
0.0184489
0.0184445
0.0184277
0.0184093
0.0183815
0.0183553
0.0183214
0.0182912
0.0182543
0.0182224
0.0181844
0.0181525
0.0181147
0.0180838
0.0180468
0.0180174
0.0179817
0.0179542
0.0179199
0.0178943
0.0178616
0.0178378
0.0178065
0.0177846
0.0177548
0.0177346
0.017706
0.0176875
0.01766
0.017643
0.0176167
0.0176011
0.0175757
0.0175614
0.0175368
0.0175238
0.0175
0.0174881
0.017465
0.0174541
0.0174317
0.0174218
0.0173999
0.017391
0.0173696
0.0173615
0.0173405
0.0173333
0.0173127
0.0173062
0.017286
0.0172802
0.0172603
0.0172551
0.0172355
0.017231
0.0172116
0.0172076
0.0171885
0.0171851
0.0171661
0.0171632
0.0171444
0.0171421
0.0171234
0.0171215
0.017103
0.0171015
0.0170831
0.017082
0.0170638
0.0170631
0.017045
0.0170446
0.0170266
0.0170265
0.0170086
0.0170088
0.016991
0.0169915
0.0169738
0.0169745
0.016957
0.0169578
0.0169404
0.0169414
0.0169242
0.0169252
0.0169082
0.0169093
0.0168924
0.0168938
0.0168774
0.0168772
0.0168614
0.0168683
0.0168479
0.0168413
0.016826
0.0180416
0.0180463
0.0180463
0.0180352
0.0180224
0.0180013
0.0179814
0.0179546
0.0179307
0.0179008
0.0178751
0.0178438
0.0178176
0.0177861
0.0177604
0.0177294
0.0177047
0.0176745
0.0176512
0.017622
0.0176002
0.0175722
0.0175518
0.0175249
0.017506
0.0174801
0.0174626
0.0174377
0.0174216
0.0173976
0.0173827
0.0173594
0.0173457
0.0173232
0.0173106
0.0172887
0.0172771
0.0172558
0.0172451
0.0172244
0.0172146
0.0171943
0.0171854
0.0171655
0.0171573
0.0171378
0.0171304
0.0171112
0.0171045
0.0170855
0.0170795
0.0170608
0.0170554
0.017037
0.0170321
0.0170139
0.0170096
0.0169915
0.0169878
0.0169698
0.0169666
0.0169487
0.016946
0.0169282
0.0169259
0.0169082
0.0169064
0.0168888
0.0168873
0.0168698
0.0168687
0.0168513
0.0168505
0.0168332
0.0168328
0.0168155
0.0168153
0.0167981
0.0167983
0.0167811
0.0167815
0.0167644
0.016765
0.016748
0.0167488
0.0167319
0.0167328
0.016716
0.0167171
0.0167005
0.0167016
0.0166849
0.0166863
0.0166704
0.0166709
0.0166542
0.016656
0.0166359
0.0166778
0.0165791
0.0177361
0.0177417
0.0177441
0.0177367
0.0177278
0.0177113
0.0176958
0.017674
0.0176546
0.0176297
0.0176083
0.0175819
0.0175598
0.017533
0.0175111
0.0174845
0.0174634
0.0174373
0.0174172
0.0173919
0.0173729
0.0173485
0.0173307
0.0173072
0.0172905
0.0172678
0.0172523
0.0172304
0.0172159
0.0171947
0.0171813
0.0171607
0.0171482
0.0171283
0.0171166
0.0170972
0.0170863
0.0170674
0.0170573
0.0170388
0.0170295
0.0170113
0.0170027
0.0169849
0.0169768
0.0169594
0.0169519
0.0169347
0.0169278
0.0169109
0.0169045
0.0168878
0.0168819
0.0168654
0.0168599
0.0168437
0.0168386
0.0168226
0.0168179
0.016802
0.0167977
0.016782
0.0167779
0.0167624
0.0167587
0.0167434
0.0167399
0.0167248
0.0167215
0.0167066
0.0167035
0.0166888
0.0166858
0.0166713
0.0166685
0.0166542
0.0166515
0.0166375
0.0166348
0.016621
0.0166183
0.0166049
0.0166021
0.016589
0.0165861
0.0165734
0.0165704
0.0165581
0.0165548
0.016543
0.0165394
0.0165282
0.0165239
0.0165127
0.0165104
0.0165013
0.0164944
0.0164945
0.0164435
0.0165138
0.0174995
0.0175051
0.0175091
0.0175041
0.017498
0.0174847
0.0174724
0.0174541
0.017438
0.0174168
0.0173987
0.017376
0.0173571
0.0173339
0.017315
0.0172918
0.0172734
0.0172507
0.017233
0.0172109
0.0171941
0.0171726
0.0171568
0.017136
0.0171212
0.0171011
0.0170871
0.0170676
0.0170545
0.0170356
0.0170232
0.0170049
0.0169933
0.0169754
0.0169645
0.016947
0.0169369
0.0169198
0.0169102
0.0168934
0.0168845
0.016868
0.0168596
0.0168435
0.0168356
0.0168197
0.0168123
0.0167966
0.0167897
0.0167742
0.0167677
0.0167525
0.0167464
0.0167313
0.0167255
0.0167106
0.0167053
0.0166905
0.0166855
0.0166709
0.0166661
0.0166517
0.0166472
0.0166329
0.0166287
0.0166146
0.0166105
0.0165966
0.0165928
0.016579
0.0165753
0.0165617
0.0165582
0.0165448
0.0165414
0.0165281
0.0165248
0.0165118
0.0165085
0.0164958
0.0164925
0.01648
0.0164766
0.0164644
0.016461
0.0164491
0.0164456
0.016434
0.0164304
0.0164192
0.0164154
0.0164047
0.0164002
0.0163894
0.016387
0.0163783
0.0163715
0.016372
0.0163218
0.0163909
0.0173198
0.0173255
0.0173304
0.0173266
0.0173225
0.0173113
0.0173015
0.0172857
0.0172723
0.0172536
0.0172383
0.0172182
0.017202
0.0171812
0.0171648
0.0171441
0.017128
0.0171075
0.0170919
0.017072
0.017057
0.0170376
0.0170234
0.0170046
0.0169911
0.0169729
0.01696
0.0169424
0.0169302
0.016913
0.0169014
0.0168847
0.0168737
0.0168575
0.016847
0.0168311
0.0168212
0.0168057
0.0167962
0.016781
0.0167719
0.0167571
0.0167484
0.0167339
0.0167256
0.0167114
0.0167034
0.0166894
0.0166818
0.0166681
0.0166607
0.0166473
0.0166402
0.016627
0.0166201
0.0166071
0.0166005
0.0165877
0.0165813
0.0165688
0.0165625
0.0165503
0.016544
0.0165321
0.016526
0.0165143
0.0165082
0.0164969
0.0164908
0.0164798
0.0164737
0.016463
0.0164569
0.0164465
0.0164403
0.0164303
0.016424
0.0164144
0.0164079
0.0163988
0.016392
0.0163834
0.0163763
0.0163682
0.0163608
0.0163533
0.0163455
0.0163386
0.0163304
0.0163241
0.0163154
0.01631
0.0163005
0.0162955
0.0162867
0.0162825
0.0162661
0.0162678
0.0162667
0.0162532
0.0171846
0.01719
0.0171955
0.0171921
0.0171894
0.0171792
0.0171712
0.0171565
0.0171451
0.0171278
0.0171145
0.0170956
0.0170815
0.0170619
0.0170475
0.0170279
0.0170137
0.0169943
0.0169805
0.0169615
0.0169482
0.0169297
0.016917
0.016899
0.0168869
0.0168694
0.0168579
0.0168409
0.01683
0.0168134
0.016803
0.0167868
0.0167769
0.0167611
0.0167516
0.0167363
0.0167271
0.0167121
0.0167034
0.0166887
0.0166803
0.0166659
0.0166578
0.0166438
0.016636
0.0166222
0.0166147
0.0166011
0.0165939
0.0165806
0.0165736
0.0165605
0.0165537
0.0165409
0.0165343
0.0165218
0.0165153
0.016503
0.0164966
0.0164846
0.0164783
0.0164665
0.0164603
0.0164489
0.0164427
0.0164315
0.0164253
0.0164145
0.0164083
0.0163977
0.0163915
0.0163813
0.016375
0.0163652
0.0163587
0.0163493
0.0163426
0.0163337
0.0163268
0.0163183
0.0163112
0.0163031
0.0162957
0.0162882
0.0162804
0.0162735
0.0162653
0.016259
0.0162504
0.0162447
0.0162356
0.0162308
0.0162208
0.0162163
0.0162065
0.0162039
0.0161923
0.016194
0.0161435
0.0162147
0.0170742
0.0170793
0.0170851
0.0170818
0.01708
0.0170703
0.0170636
0.0170496
0.0170398
0.0170233
0.0170116
0.0169936
0.0169811
0.0169624
0.0169497
0.0169309
0.0169184
0.0168997
0.0168876
0.0168693
0.0168576
0.0168397
0.0168285
0.0168111
0.0168005
0.0167834
0.0167734
0.0167567
0.0167471
0.0167309
0.0167217
0.0167059
0.0166971
0.0166816
0.0166732
0.016658
0.0166499
0.016635
0.0166273
0.0166126
0.0166052
0.0165908
0.0165836
0.0165695
0.0165626
0.0165487
0.016542
0.0165284
0.0165219
0.0165085
0.0165022
0.016489
0.0164828
0.0164699
0.0164639
0.0164512
0.0164452
0.0164328
0.0164269
0.0164148
0.016409
0.0163971
0.0163913
0.0163797
0.0163739
0.0163626
0.0163568
0.0163458
0.01634
0.0163293
0.0163234
0.016313
0.0163071
0.0162971
0.0162909
0.0162813
0.016275
0.0162658
0.0162593
0.0162506
0.0162438
0.0162356
0.0162285
0.0162207
0.0162133
0.0162061
0.0161983
0.0161917
0.0161834
0.0161775
0.0161686
0.0161635
0.0161543
0.0161499
0.0161387
0.0161348
0.016126
0.0161187
0.0161117
0.0161042
0.0169866
0.0169911
0.016997
0.0169937
0.0169927
0.0169835
0.0169778
0.0169646
0.0169561
0.0169404
0.0169301
0.016913
0.016902
0.0168841
0.0168729
0.0168548
0.0168437
0.0168257
0.016815
0.0167971
0.0167869
0.0167693
0.0167596
0.0167422
0.016733
0.0167159
0.0167072
0.0166904
0.016682
0.0166655
0.0166576
0.0166412
0.0166337
0.0166176
0.0166104
0.0165945
0.0165877
0.016572
0.0165655
0.01655
0.0165437
0.0165284
0.0165224
0.0165073
0.0165016
0.0164866
0.0164811
0.0164664
0.0164611
0.0164465
0.0164414
0.0164271
0.0164221
0.016408
0.0164032
0.0163892
0.0163845
0.0163708
0.0163662
0.0163528
0.0163483
0.016335
0.0163306
0.0163176
0.0163131
0.0163005
0.016296
0.0162837
0.0162791
0.0162671
0.0162625
0.0162509
0.0162461
0.0162349
0.01623
0.0162191
0.016214
0.0162036
0.0161983
0.0161884
0.0161827
0.0161734
0.0161673
0.0161586
0.0161521
0.0161441
0.0161371
0.0161297
0.0161221
0.0161156
0.0161073
0.0161016
0.0160928
0.0160882
0.0160776
0.0160726
0.0160583
0.0160509
0.0160928
0.0160012
0.0169223
0.0169265
0.016932
0.0169289
0.0169279
0.0169192
0.0169139
0.0169014
0.0168933
0.0168783
0.0168685
0.0168521
0.0168415
0.0168242
0.0168133
0.0167956
0.0167848
0.0167669
0.0167565
0.0167386
0.0167285
0.0167107
0.0167011
0.0166834
0.0166742
0.0166566
0.0166478
0.0166304
0.0166221
0.0166048
0.0165971
0.0165798
0.0165726
0.0165555
0.0165487
0.0165317
0.0165255
0.0165086
0.0165028
0.016486
0.0164807
0.016464
0.0164591
0.0164425
0.016438
0.0164214
0.0164173
0.0164007
0.0163971
0.0163805
0.0163772
0.0163607
0.0163579
0.0163413
0.0163389
0.0163224
0.0163203
0.0163038
0.0163021
0.0162857
0.0162843
0.0162679
0.0162669
0.0162504
0.0162497
0.0162333
0.0162329
0.0162165
0.0162164
0.0162
0.0162002
0.0161838
0.0161842
0.0161678
0.0161685
0.0161522
0.0161531
0.0161367
0.0161379
0.0161216
0.0161229
0.0161066
0.0161081
0.0160919
0.0160934
0.0160773
0.016079
0.016063
0.0160647
0.0160489
0.0160506
0.0160348
0.0160368
0.0160214
0.016022
0.016007
0.0160142
0.0159949
0.0159887
0.0159754
0.0168722
0.0168761
0.016881
0.0168778
0.0168765
0.0168678
0.016862
0.0168493
0.0168404
0.016825
0.0168141
0.016797
0.0167849
0.0167669
0.0167544
0.0167359
0.0167234
0.0167049
0.0166926
0.0166736
0.0166615
0.0166426
0.016631
0.0166124
0.0166015
0.0165833
0.0165731
0.0165555
0.016546
0.0165288
0.0165201
0.0165033
0.0164954
0.0164789
0.0164716
0.0164555
0.0164488
0.016433
0.0164269
0.0164112
0.0164056
0.0163902
0.0163851
0.0163699
0.0163653
0.0163502
0.016346
0.0163311
0.0163273
0.0163125
0.0163091
0.0162943
0.0162913
0.0162766
0.0162739
0.0162592
0.0162568
0.0162421
0.01624
0.0162253
0.0162235
0.0162089
0.0162073
0.0161926
0.0161914
0.0161767
0.0161757
0.016161
0.0161602
0.0161456
0.016145
0.0161303
0.01613
0.0161153
0.0161152
0.0161005
0.0161005
0.0160859
0.0160861
0.0160715
0.0160718
0.0160572
0.0160577
0.0160432
0.0160438
0.0160293
0.01603
0.0160156
0.0160164
0.0160021
0.0160029
0.0159885
0.0159897
0.0159759
0.0159763
0.0159617
0.0159635
0.0159456
0.0159852
0.015894
0.0168359
0.0168376
0.0168396
0.0168324
0.0168268
0.016813
0.0168022
0.0167842
0.0167706
0.0167504
0.0167356
0.0167147
0.0166999
0.0166791
0.0166651
0.016645
0.016632
0.016613
0.0166013
0.0165837
0.0165736
0.0165572
0.0165483
0.0165327
0.0165248
0.0165097
0.0165026
0.016488
0.0164815
0.0164671
0.0164611
0.016447
0.0164413
0.0164274
0.0164221
0.0164082
0.0164033
0.0163894
0.0163848
0.016371
0.0163666
0.0163529
0.0163488
0.016335
0.0163312
0.0163174
0.0163138
0.0163001
0.0162967
0.016283
0.0162798
0.0162662
0.0162632
0.0162495
0.0162468
0.0162331
0.0162305
0.0162169
0.0162145