/*--------------------------------*- C++ -*----------------------------------*\
  =========                 |
  \\      /  F ield         | OpenFOAM: The Open Source CFD Toolbox
   \\    /   O peration     | Website:  https://openfoam.org
    \\  /    A nd           | Version:  8
     \\/     M anipulation  |
\*---------------------------------------------------------------------------*/
FoamFile
{
    version     2.0;
    format      ascii;
    class       volScalarField;
    location    "1.499985";
    object      p;
}
// * * * * * * * * * * * * * * * * * * * * * * * * * * * * * * * * * * * * * //

dimensions      [1 -1 -2 0 0 0 0];

internalField   nonuniform List<scalar> 
6800
(
99491.4
99821.6
99853.4
99874.8
99919.6
99970.1
100026
100085
100143
100191
99049.9
99618
99611.6
99658.4
99734.1
99806.8
99880.9
99957.2
100033
100102
98349.5
99248.6
99242.6
99361.1
99488.1
99598.8
99704.8
99808.1
99907.3
100001
97464.9
98737.2
98764.9
98996.4
99191
99354.1
99502.4
99640
99767.7
99885.8
96474.1
98124.9
98215.1
98588.6
98860.4
99087
99284.7
99461.3
99620.5
99763.9
95457
97463.9
97639.1
98168
98519.7
98815.9
99066
99283.6
99475.1
99644.5
94489.8
96807.7
97084.8
97766.6
98194.4
98561
98862.2
99120.1
99342.8
99537.3
93638.9
96207.5
96594.1
97414.1
97910
98342.4
98689.7
98984.4
99234.7
99451.8
92956.4
95706.4
96202.9
97136.6
97689.1
98177.9
98563.4
98889
99161.6
99398
92479.4
95339.3
95937.3
96953.3
97550.3
98082.2
98496.5
98844.7
99132.9
99383.9
100334
100206
100158
100164
100205
100270
100358
100465
100581
100698
100283
100175
100130
100133
100169
100232
100321
100434
100559
100686
100192
100112
100080
100081
100117
100182
100276
100396
100534
100681
100087
100044
100029
100037
100074
100148
100254
100379
100520
100676
99994.4
99991.5
99998.9
100021
100067
100149
100255
100376
100506
100655
99926.1
99967.9
100004
100039
100095
100174
100268
100371
100483
100610
99874.5
99972.9
100030
100076
100129
100195
100272
100358
100450
100551
99808.3
99967
100045
100094
100140
100194
100258
100330
100404
100484
99737.1
99924.5
100030
100075
100113
100160
100215
100277
100342
100413
99679.4
99880.8
99974.3
100008
100043
100087
100138
100195
100258
100329
100832
100966
101072
101159
101230
101287
101334
101372
101404
101431
101453
101472
101487
101499
101509
101517
101523
101527
101530
101531
101532
101532
101530
101529
101526
101523
101520
101516
101512
101508
101503
101499
101494
101489
101484
101479
101475
101470
101465
101460
101456
101451
101446
101442
101438
101433
101429
101425
101421
101418
101414
101411
101407
101404
101401
101397
101394
101392
101389
101386
101383
101381
101379
101376
101374
101372
101370
101368
101366
101364
101362
101360
101359
101357
101356
101354
101353
101351
101350
101349
101347
101346
101345
101344
101343
101341
101340
101339
101338
101337
101336
101335
101334
101333
101333
101332
101331
101330
101330
101330
100817
100956
101064
101151
101222
101280
101327
101367
101399
101427
101450
101468
101484
101497
101507
101515
101521
101525
101528
101530
101531
101530
101529
101528
101525
101522
101519
101515
101511
101507
101503
101498
101494
101489
101484
101479
101474
101469
101465
101460
101455
101451
101446
101442
101438
101433
101429
101425
101421
101418
101414
101410
101407
101404
101400
101397
101394
101391
101389
101386
101383
101381
101378
101376
101374
101372
101370
101368
101366
101364
101362
101360
101359
101357
101356
101354
101353
101351
101350
101349
101347
101346
101345
101344
101343
101341
101340
101339
101338
101337
101336
101335
101334
101333
101332
101332
101331
101330
101329
101329
100798
100936
101045
101134
101206
101266
101315
101356
101391
101419
101443
101462
101479
101492
101503
101511
101518
101522
101526
101528
101529
101529
101528
101526
101524
101521
101518
101514
101510
101506
101502
101497
101493
101488
101483
101479
101474
101469
101464
101460
101455
101450
101446
101441
101437
101433
101429
101425
101421
101417
101414
101410
101407
101403
101400
101397
101394
101391
101388
101386
101383
101381
101378
101376
101374
101372
101370
101368
101366
101364
101362
101360
101359
101357
101355
101354
101353
101351
101350
101348
101347
101346
101345
101344
101343
101341
101340
101339
101338
101337
101336
101335
101334
101333
101332
101332
101331
101330
101329
101329
100763
100897
101014
101107
101183
101245
101298
101341
101377
101408
101433
101454
101471
101485
101497
101506
101513
101518
101522
101524
101525
101526
101525
101524
101522
101519
101516
101513
101509
101505
101501
101496
101492
101487
101482
101478
101473
101468
101463
101459
101454
101450
101445
101441
101437
101432
101428
101424
101421
101417
101413
101410
101406
101403
101400
101397
101394
101391
101388
101386
101383
101380
101378
101376
101374
101371
101369
101367
101365
101364
101362
101360
101358
101357
101355
101354
101352
101351
101350
101348
101347
101346
101345
101344
101342
101341
101340
101339
101338
101337
101336
101335
101334
101333
101332
101331
101330
101330
101329
101328
100701
100835
100967
101069
101149
101217
101273
101321
101360
101393
101420
101442
101461
101476
101489
101499
101506
101512
101517
101520
101521
101522
101522
101520
101519
101516
101514
101510
101507
101503
101499
101495
101490
101486
101481
101476
101472
101467
101462
101458
101453
101449
101444
101440
101436
101432
101428
101424
101420
101416
101413
101409
101406
101403
101399
101396
101393
101391
101388
101385
101383
101380
101378
101375
101373
101371
101369
101367
101365
101363
101362
101360
101358
101357
101355
101354
101352
101351
101350
101348
101347
101346
101345
101343
101342
101341
101340
101339
101338
101337
101336
101335
101334
101333
101332
101331
101330
101329
101328
101328
100621
100755
100903
101017
101104
101176
101238
101290
101334
101370
101400
101425
101446
101463
101477
101489
101498
101505
101510
101513
101516
101517
101517
101517
101515
101513
101511
101508
101504
101501
101497
101492
101488
101484
101479
101475
101470
101466
101461
101457
101452
101448
101443
101439
101435
101431
101427
101423
101419
101416
101412
101409
101405
101402
101399
101396
101393
101390
101387
101385
101382
101380
101377
101375
101373
101371
101369
101367
101365
101363
101361
101360
101358
101356
101355
101353
101352
101351
101349
101348
101347
101346
101344
101343
101342
101341
101340
101339
101338
101337
101336
101335
101334
101333
101332
101331
101330
101329
101328
101327
100543
100673
100829
100953
101048
101126
101193
101250
101298
101338
101372
101400
101424
101444
101460
101473
101484
101492
101499
101503
101507
101509
101510
101510
101509
101508
101506
101504
101501
101497
101494
101490
101486
101482
101477
101473
101469
101464
101460
101455
101451
101447
101442
101438
101434
101430
101426
101422
101418
101415
101411
101408
101404
101401
101398
101395
101392
101389
101387
101384
101382
101379
101377
101375
101372
101370
101368
101366
101364
101363
101361
101359
101358
101356
101355
101353
101352
101350
101349
101348
101347
101345
101344
101343
101342
101341
101340
101339
101338
101337
101336
101335
101334
101333
101332
101331
101330
101329
101327
101326
100475
100598
100754
100885
100988
101072
101144
101206
101258
101303
101340
101371
101397
101419
101438
101453
101465
101475
101483
101489
101494
101497
101499
101500
101500
101499
101498
101496
101494
101491
101488
101484
101481
101477
101473
101469
101465
101461
101457
101453
101449
101445
101440
101436
101432
101429
101425
101421
101417
101414
101410
101407
101404
101401
101397
101395
101392
101389
101386
101384
101381
101379
101376
101374
101372
101370
101368
101366
101364
101362
101360
101359
101357
101356
101354
101353
101351
101350
101349
101348
101346
101345
101344
101343
101342
101341
101340
101339
101338
101337
101336
101335
101334
101333
101332
101331
101330
101328
101327
101325
100417
100530
100679
100814
100925
101017
101095
101162
101219
101268
101309
101343
101372
101397
101417
101434
101448
101460
101469
101476
101481
101486
101488
101490
101491
101491
101490
101488
101487
101484
101481
101478
101475
101472
101468
101464
101460
101457
101453
101449
101445
101441
101437
101433
101429
101426
101422
101418
101415
101411
101408
101405
101402
101399
101396
101393
101390
101388
101385
101383
101380
101378
101376
101373
101371
101369
101367
101365
101364
101362
101360
101358
101357
101355
101354
101352
101351
101350
101349
101347
101346
101345
101344
101343
101342
101341
101339
101338
101337
101336
101336
101335
101334
101333
101332
101330
101329
101328
101327
101325
100365
100468
100601
100730
100844
100943
101027
101101
101164
101218
101264
101303
101336
101364
101388
101408
101424
101438
101449
101458
101465
101471
101475
101478
101479
101480
101480
101480
101478
101477
101475
101472
101469
101466
101463
101459
101456
101452
101449
101445
101441
101437
101434
101430
101426
101423
101419
101416
101412
101409
101406
101403
101400
101397
101394
101391
101388
101386
101383
101381
101379
101376
101374
101372
101370
101368
101366
101364
101363
101361
101359
101358
101356
101355
101353
101352
101351
101349
101348
101347
101346
101345
101344
101343
101342
101341
101340
101339
101338
101337
101336
101335
101334
101333
101332
101331
101329
101328
101327
101325
100339
100458
100582
100705
100816
100915
101000
101074
101138
101194
101241
101282
101316
101345
101370
101391
101409
101423
101436
101445
101453
101459
101464
101467
101470
101471
101472
101471
101470
101469
101467
101465
101463
101460
101457
101454
101450
101447
101444
101440
101437
101433
101429
101426
101422
101419
101416
101412
101409
101406
101403
101400
101397
101394
101391
101389
101386
101384
101381
101379
101377
101374
101372
101370
101368
101366
101365
101363
101361
101360
101358
101356
101355
101354
101352
101351
101350
101348
101347
101346
101345
101344
101343
101342
101341
101340
101339
101338
101337
101336
101335
101334
101333
101332
101331
101330
101329
101328
101327
101325
100368
100491
100613
100728
100833
100925
101005
101075
101136
101189
101235
101274
101307
101336
101360
101381
101398
101413
101425
101435
101443
101449
101454
101457
101460
101461
101462
101462
101461
101460
101459
101457
101455
101452
101449
101446
101443
101440
101437
101434
101431
101427
101424
101421
101417
101414
101411
101408
101405
101402
101399
101396
101393
101391
101388
101386
101383
101381
101378
101376
101374
101372
101370
101368
101366
101364
101363
101361
101359
101358
101356
101355
101354
101352
101351
101350
101348
101347
101346
101345
101344
101343
101342
101341
101340
101339
101338
101337
101336
101335
101335
101334
101333
101332
101331
101330
101329
101328
101327
101325
100399
100515
100631
100739
100836
100922
100999
101066
101125
101177
101222
101260
101294
101322
101347
101368
101385
101400
101412
101423
101431
101438
101443
101447
101450
101452
101453
101453
101453
101452
101451
101449
101447
101445
101443
101440
101437
101434
101431
101428
101425
101422
101419
101416
101413
101410
101407
101404
101401
101398
101395
101393
101390
101388
101385
101383
101380
101378
101376
101374
101372
101370
101368
101366
101364
101363
101361
101359
101358
101356
101355
101354
101352
101351
101350
101349
101347
101346
101345
101344
101343
101342
101341
101340
101339
101338
101338
101337
101336
101335
101334
101333
101332
101331
101331
101330
101329
101328
101327
101326
100438
100546
100656
100758
100849
100930
101003
101067
101124
101173
101216
101254
101286
101314
101338
101359
101376
101391
101403
101413
101421
101428
101433
101437
101440
101443
101444
101444
101444
101444
101443
101441
101440
101438
101435
101433
101431
101428
101425
101422
101419
101417
101414
101411
101408
101405
101402
101400
101397
101394
101392
101389
101387
101384
101382
101380
101377
101375
101373
101371
101369
101367
101366
101364
101362
101361
101359
101358
101356
101355
101353
101352
101351
101350
101348
101347
101346
101345
101344
101343
101342
101341
101340
101339
101339
101338
101337
101336
101335
101334
101334
101333
101332
101331
101330
101329
101328
101327
101327
101326
100481
100580
100684
100780
100864
100940
101008
101068
101122
101169
101211
101247
101278
101305
101329
101349
101366
101380
101393
101403
101411
101418
101424
101428
101431
101433
101435
101436
101436
101436
101435
101434
101432
101430
101428
101426
101424
101422
101419
101416
101414
101411
101408
101406
101403
101401
101398
101395
101393
101390
101388
101385
101383
101381
101379
101377
101375
101373
101371
101369
101367
101365
101363
101362
101360
101359
101357
101356
101354
101353
101352
101351
101349
101348
101347
101346
101345
101344
101343
101342
101341
101340
101339
101339
101338
101337
101336
101335
101335
101334
101333
101332
101332
101331
101330
101329
101328
101327
101326
101326
100530
100619
100716
100804
100883
100953
101017
101073
101124
101169
101208
101243
101273
101299
101322
101341
101358
101372
101384
101394
101403
101409
101415
101419
101422
101425
101426
101427
101428
101428
101427
101426
101425
101423
101422
101420
101417
101415
101413
101411
101408
101406
101403
101401
101398
101396
101393
101391
101389
101386
101384
101382
101380
101377
101375
101373
101371
101370
101368
101366
101364
101363
101361
101360
101358
101357
101355
101354
101353
101351
101350
101349
101348
101347
101346
101345
101344
101343
101342
101341
101340
101339
101339
101338
101337
101336
101335
101335
101334
101333
101333
101332
101331
101330
101330
101329
101328
101327
101326
101326
100581
100662
100750
100832
100904
100969
101028
101081
101128
101171
101208
101241
101269
101294
101316
101335
101351
101364
101376
101386
101394
101401
101406
101411
101414
101416
101418
101419
101420
101420
101419
101419
101417
101416
101415
101413
101411
101409
101407
101405
101402
101400
101398
101396
101393
101391
101389
101387
101384
101382
101380
101378
101376
101374
101372
101370
101368
101367
101365
101363
101362
101360
101359
101357
101356
101355
101353
101352
101351
101350
101349
101347
101346
101345
101344
101344
101343
101342
101341
101340
101339
101338
101338
101337
101336
101336
101335
101334
101333
101333
101332
101331
101331
101330
101329
101329
101328
101327
101326
101326
100636
100707
100787
100862
100928
100988
101042
101091
101135
101174
101209
101240
101267
101291
101311
101329
101345
101358
101369
101378
101386
101393
101398
101402
101406
101408
101410
101411
101412
101412
101412
101411
101410
101409
101408
101406
101404
101403
101401
101399
101397
101395
101393
101390
101388
101386
101384
101382
101380
101378
101376
101374
101372
101371
101369
101367
101365
101364
101362
101361
101359
101358
101356
101355
101354
101352
101351
101350
101349
101348
101347
101346
101345
101344
101343
101342
101341
101341
101340
101339
101338
101337
101337
101336
101335
101335
101334
101333
101333
101332
101332
101331
101330
101330
101329
101328
101328
101327
101326
101326
100691
100754
100827
100894
100954
101008
101058
101103
101144
101180
101212
101241
101266
101289
101308
101325
101339
101352
101363
101372
101379
101385
101391
101395
101398
101400
101402
101403
101404
101404
101404
101404
101403
101402
101401
101399
101398
101396
101395
101393
101391
101389
101387
101385
101383
101381
101380
101378
101376
101374
101372
101370
101369
101367
101365
101364
101362
101361
101359
101358
101357
101355
101354
101353
101352
101350
101349
101348
101347
101346
101345
101344
101343
101343
101342
101341
101340
101339
101339
101338
101337
101337
101336
101335
101335
101334
101333
101333
101332
101332
101331
101330
101330
101329
101329
101328
101327
101327
101326
101326
100748
100803
100868
100928
100982
101031
101076
101117
101154
101187
101217
101244
101267
101288
101306
101321
101335
101347
101357
101365
101372
101378
101383
101387
101390
101393
101395
101396
101397
101397
101397
101397
101396
101395
101394
101393
101392
101390
101389
101387
101385
101384
101382
101380
101378
101377
101375
101373
101371
101370
101368
101367
101365
101363
101362
101361
101359
101358
101356
101355
101354
101353
101352
101350
101349
101348
101347
101346
101345
101344
101344
101343
101342
101341
101340
101340
101339
101338
101337
101337
101336
101336
101335
101334
101334
101333
101333
101332
101332
101331
101330
101330
101329
101329
101328
101328
101327
101327
101326
101325
100806
100853
100910
100963
101011
101055
101095
101132
101166
101196
101223
101248
101269
101288
101305
101319
101332
101342
101352
101360
101366
101372
101377
101380
101383
101386
101387
101389
101389
101390
101390
101389
101389
101388
101387
101386
101385
101384
101382
101381
101379
101378
101376
101375
101373
101372
101370
101369
101367
101366
101364
101363
101361
101360
101359
101357
101356
101355
101353
101352
101351
101350
101349
101348
101347
101346
101345
101344
101343
101343
101342
101341
101340
101340
101339
101338
101338
101337
101336
101336
101335
101335
101334
101334
101333
101332
101332
101331
101331
101330
101330
101329
101329
101328
101328
101327
101327
101326
101326
101325
100863
100904
100953
101000
101042
101081
101116
101149
101179
101206
101231
101253
101272
101289
101304
101317
101329
101339
101347
101355
101361
101366
101370
101374
101376
101379
101380
101381
101382
101382
101383
101382
101382
101381
101381
101380
101379
101378
101376
101375
101374
101372
101371
101370
101368
101367
101365
101364
101363
101361
101360
101359
101357
101356
101355
101354
101353
101352
101351
101350
101349
101348
101347
101346
101345
101344
101343
101342
101342
101341
101340
101339
101339
101338
101337
101337
101336
101336
101335
101335
101334
101334
101333
101333
101332
101332
101331
101331
101330
101330
101329
101329
101329
101328
101328
101327
101327
101326
101326
101325
100921
100954
100997
101037
101074
101107
101139
101167
101194
101218
101239
101259
101276
101291
101305
101316
101327
101336
101343
101350
101355
101360
101364
101367
101370
101372
101373
101374
101375
101375
101376
101375
101375
101375
101374
101373
101372
101371
101370
101369
101368
101367
101366
101364
101363
101362
101361
101360
101358
101357
101356
101355
101354
101353
101352
101351
101350
101349
101348
101347
101346
101345
101344
101343
101342
101342
101341
101340
101340
101339
101338
101338
101337
101337
101336
101335
101335
101334
101334
101334
101333
101333
101332
101332
101331
101331
101331
101330
101330
101329
101329
101329
101328
101328
101327
101327
101327
101326
101326
101325
100977
101005
101041
101075
101106
101135
101162
101187
101209
101230
101249
101266
101281
101294
101306
101316
101325
101333
101340
101346
101351
101355
101358
101361
101363
101365
101366
101367
101368
101368
101369
101369
101368
101368
101367
101367
101366
101365
101364
101363
101362
101361
101360
101359
101358
101357
101356
101355
101354
101353
101352
101351
101350
101349
101348
101347
101346
101345
101345
101344
101343
101342
101342
101341
101340
101340
101339
101338
101338
101337
101337
101336
101336
101335
101335
101334
101334
101333
101333
101332
101332
101332
101331
101331
101330
101330
101330
101329
101329
101329
101328
101328
101328
101327
101327
101327
101326
101326
101326
101325
101033
101056
101085
101113
101139
101163
101186
101207
101226
101243
101259
101274
101286
101298
101308
101317
101324
101331
101337
101342
101346
101350
101353
101355
101357
101359
101360
101361
101361
101362
101362
101362
101362
101361
101361
101360
101360
101359
101358
101357
101357
101356
101355
101354
101353
101352
101351
101350
101349
101349
101348
101347
101346
101345
101345
101344
101343
101342
101342
101341
101340
101340
101339
101338
101338
101337
101337
101336
101336
101335
101335
101334
101334
101334
101333
101333
101332
101332
101332
101331
101331
101331
101330
101330
101330
101329
101329
101329
101328
101328
101328
101328
101327
101327
101327
101326
101326
101326
101326
101325
101088
101106
101129
101152
101173
101192
101210
101227
101243
101257
101270
101282
101293
101302
101310
101317
101324
101329
101334
101338
101342
101345
101347
101349
101351
101352
101353
101354
101355
101355
101355
101355
101355
101355
101354
101354
101353
101353
101352
101351
101351
101350
101349
101349
101348
101347
101346
101346
101345
101344
101344
101343
101342
101342
101341
101340
101340
101339
101339
101338
101338
101337
101337
101336
101336
101335
101335
101334
101334
101333
101333
101333
101332
101332
101332
101331
101331
101331
101330
101330
101330
101330
101329
101329
101329
101329
101328
101328
101328
101328
101327
101327
101327
101327
101326
101326
101326
101326
101325
101325
101142
101155
101173
101190
101207
101221
101236
101249
101261
101272
101282
101291
101299
101307
101313
101319
101324
101328
101332
101335
101338
101340
101342
101344
101345
101346
101347
101347
101348
101348
101348
101348
101348
101348
101348
101347
101347
101347
101346
101346
101345
101345
101344
101343
101343
101342
101342
101341
101341
101340
101340
101339
101338
101338
101337
101337
101337
101336
101336
101335
101335
101334
101334
101334
101333
101333
101333
101332
101332
101332
101331
101331
101331
101330
101330
101330
101330
101329
101329
101329
101329
101329
101328
101328
101328
101328
101328
101327
101327
101327
101327
101327
101326
101326
101326
101326
101326
101326
101325
101325
101195
101205
101217
101229
101240
101251
101261
101270
101279
101287
101294
101300
101306
101312
101316
101320
101324
101327
101330
101332
101334
101336
101337
101338
101339
101340
101341
101341
101341
101342
101342
101342
101342
101341
101341
101341
101341
101340
101340
101340
101339
101339
101339
101338
101338
101337
101337
101337
101336
101336
101335
101335
101335
101334
101334
101334
101333
101333
101333
101332
101332
101332
101331
101331
101331
101331
101330
101330
101330
101330
101329
101329
101329
101329
101329
101329
101328
101328
101328
101328
101328
101328
101327
101327
101327
101327
101327
101327
101327
101326
101326
101326
101326
101326
101326
101326
101326
101325
101325
101325
101248
101253
101260
101268
101274
101281
101287
101292
101297
101302
101306
101310
101314
101317
101320
101322
101324
101326
101328
101329
101330
101331
101332
101333
101334
101334
101334
101335
101335
101335
101335
101335
101335
101335
101335
101335
101334
101334
101334
101334
101334
101333
101333
101333
101333
101332
101332
101332
101332
101331
101331
101331
101331
101331
101330
101330
101330
101330
101330
101329
101329
101329
101329
101329
101329
101328
101328
101328
101328
101328
101328
101328
101327
101327
101327
101327
101327
101327
101327
101327
101327
101327
101326
101326
101326
101326
101326
101326
101326
101326
101326
101326
101326
101326
101325
101325
101325
101325
101325
101325
101299
101301
101304
101306
101308
101310
101312
101314
101316
101317
101319
101320
101321
101322
101323
101324
101325
101325
101326
101326
101327
101327
101327
101328
101328
101328
101328
101328
101328
101328
101328
101328
101328
101328
101328
101328
101328
101328
101328
101328
101328
101328
101328
101328
101328
101327
101327
101327
101327
101327
101327
101327
101327
101327
101327
101327
101327
101327
101327
101326
101326
101326
101326
101326
101326
101326
101326
101326
101326
101326
101326
101326
101326
101326
101326
101326
101326
101326
101326
101326
101326
101326
101325
101325
101325
101325
101325
101325
101325
101325
101325
101325
101325
101325
101325
101325
101325
101325
101325
101325
99598.3
99604.6
99644.9
99712.3
99799.1
99897.5
99999.4
100097
100180
100226
99778.3
99776.1
99801.1
99848.2
99912.1
99986.8
100067
100146
100219
100263
99940.7
99931.5
99944.4
99975.6
100021
100077
100138
100201
100263
100307
100083
100070
100076
100096
100129
100171
100218
100268
100319
100359
100211
100196
100196
100208
100232
100263
100299
100339
100380
100415
100326
100310
100306
100313
100329
100352
100380
100411
100444
100474
100430
100414
100408
100410
100421
100437
100459
100483
100510
100535
100526
100509
100502
100502
100508
100520
100536
100555
100576
100597
100613
100597
100589
100587
100591
100599
100611
100625
100643
100660
100694
100679
100671
100667
100669
100674
100683
100695
100708
100723
100769
100756
100747
100743
100743
100747
100753
100762
100773
100785
100840
100827
100819
100815
100814
100816
100821
100828
100837
100847
100906
100895
100888
100884
100882
100883
100887
100892
100899
100907
100969
100959
100953
100949
100947
100948
100950
100954
100960
100967
101029
101021
101015
101012
101010
101010
101012
101015
101019
101025
101086
101080
101075
101072
101070
101070
101071
101074
101077
101081
101142
101137
101133
101131
101129
101129
101130
101131
101134
101137
101195
101192
101189
101187
101186
101186
101187
101188
101189
101192
101248
101246
101244
101243
101243
101242
101243
101243
101244
101246
101299
101299
101298
101298
101298
101298
101298
101298
101298
101299
101719
101677
101601
101500
101362
101169
100898
100480
100004
98714.7
101370
101278
101155
101006
100810
100545
100188
99651.6
99083.1
97513.4
101006
100875
100714
100521
100270
99935.8
99500.9
98846.7
98197.6
96355
100659
100492
100297
100061
99758.5
99360.9
98855.5
98089.6
97374.5
95275.4
100342
100144
99916.9
99642
99292.6
98838.4
98273.6
97405.2
96641.1
94311.2
100062
99839
99584.5
99275.3
98887.2
98385.1
97774.8
96817.5
96023.6
93498.7
99826.6
99583.3
99307.6
98971.3
98554.4
98015.6
97376.3
96349.6
95546.4
92868.1
99639
99382.5
99092.7
98737.8
98303.6
97741.4
97090.9
96022.3
95231.1
92435.3
99502.4
99240
98943
98579.3
98139.7
97570.2
96924.4
95841.9
95092
92216.5
99417.2
99156.9
98860.6
98499.3
98066.7
97507.6
96879.8
95814
95129.4
92229.8
103961
104182
104396
104622
104873
105151
105452
105768
106083
106379
103929
104150
104364
104588
104836
105111
105409
105719
106022
106327
103839
104051
104254
104466
104701
104959
105236
105521
105789
106075
103700
103895
104083
104275
104486
104715
104955
105196
105403
105615
103514
103686
103852
104019
104197
104386
104578
104759
104888
104981
103284
103429
103568
103702
103840
103981
104113
104220
104260
104194
103016
103129
103236
103331
103423
103507
103570
103591
103532
103271
102716
102792
102864
102916
102955
102976
102961
102885
102722
102233
102392
102430
102462
102466
102448
102400
102302
102118
101848
101108
102045
102047
102037
101990
101912
101792
101608
101310
100934
99924.2
101328
101328
101328
101328
101328
101328
101328
101328
101328
101328
101328
101329
101329
101329
101329
101330
101330
101330
101330
101331
101331
101332
101332
101333
101333
101334
101334
101335
101336
101337
101337
101338
101339
101340
101342
101343
101344
101346
101347
101349
101351
101353
101355
101357
101359
101362
101365
101368
101371
101375
101378
101382
101387
101391
101396
101402
101408
101414
101420
101428
101435
101444
101453
101462
101473
101484
101496
101508
101522
101537
101553
101570
101588
101608
101630
101652
101677
101704
101732
101763
101797
101833
101872
101914
101960
102010
102065
102124
102190
102261
102341
102428
102526
102635
102759
102898
103058
103240
103452
103697
101328
101328
101328
101328
101328
101328
101328
101328
101328
101328
101328
101329
101329
101329
101329
101330
101330
101330
101330
101331
101331
101332
101332
101333
101333
101334
101334
101335
101336
101337
101337
101338
101339
101340
101342
101343
101344
101346
101347
101349
101351
101353
101355
101357
101359
101362
101365
101368
101371
101375
101378
101382
101387
101391
101396
101402
101407
101414
101420
101428
101435
101444
101453
101462
101472
101484
101495
101508
101522
101537
101553
101570
101588
101608
101629
101652
101677
101704
101732
101763
101797
101833
101872
101914
101960
102010
102064
102124
102189
102260
102339
102426
102523
102631
102753
102890
103047
103226
103432
103670
101328
101328
101328
101328
101328
101328
101328
101328
101328
101328
101328
101329
101329
101329
101329
101330
101330
101330
101330
101331
101331
101332
101332
101333
101333
101334
101334
101335
101336
101337
101337
101338
101339
101340
101342
101343
101344
101346
101347
101349
101351
101353
101355
101357
101359
101362
101365
101368
101371
101374
101378
101382
101387
101391
101396
101402
101407
101414
101420
101427
101435
101443
101452
101462
101472
101483
101495
101508
101522
101537
101553
101570
101588
101608
101629
101652
101677
101704
101732
101763
101796
101833
101871
101914
101959
102009
102063
102122
102186
102257
102335
102420
102515
102621
102739
102872
103022
103192
103385
103602
101328
101328
101328
101328
101328
101328
101328
101328
101328
101328
101328
101329
101329
101329
101329
101329
101330
101330
101330
101331
101331
101332
101332
101333
101333
101334
101334
101335
101336
101336
101337
101338
101339
101340
101341
101343
101344
101346
101347
101349
101351
101352
101355
101357
101359
101362
101365
101368
101371
101374
101378
101382
101386
101391
101396
101401
101407
101413
101420
101427
101435
101443
101452
101462
101472
101483
101495
101508
101522
101537
101553
101570
101588
101608
101629
101652
101677
101704
101732
101763
101796
101832
101871
101913
101958
102008
102061
102119
102183
102252
102328
102412
102504
102606
102719
102844
102984
103139
103312
103498
101328
101328
101328
101328
101328
101328
101328
101328
101328
101328
101328
101329
101329
101329
101329
101329
101330
101330
101330
101331
101331
101332
101332
101332
101333
101334
101334
101335
101336
101336
101337
101338
101339
101340
101341
101343
101344
101345
101347
101349
101350
101352
101354
101357
101359
101362
101364
101367
101371
101374
101378
101382
101386
101391
101396
101401
101407
101413
101420
101427
101435
101443
101452
101462
101472
101483
101495
101508
101522
101537
101552
101570
101588
101608
101629
101652
101677
101703
101732
101763
101796
101831
101870
101912
101957
102005
102058
102115
102178
102245
102319
102400
102488
102585
102690
102806
102932
103068
103212
103357
101328
101328
101328
101328
101328
101328
101328
101328
101328
101328
101328
101328
101329
101329
101329
101329
101330
101330
101330
101331
101331
101331
101332
101332
101333
101334
101334
101335
101336
101336
101337
101338
101339
101340
101341
101342
101344
101345
101347
101348
101350
101352
101354
101356
101359
101361
101364
101367
101370
101374
101378
101382
101386
101391
101396
101401
101407
101413
101420
101427
101435
101443
101452
101462