/*--------------------------------*- C++ -*----------------------------------*\
  =========                 |
  \\      /  F ield         | OpenFOAM: The Open Source CFD Toolbox
   \\    /   O peration     | Website:  https://openfoam.org
    \\  /    A nd           | Version:  8
     \\/     M anipulation  |
\*---------------------------------------------------------------------------*/
FoamFile
{
    version     2.0;
    format      ascii;
    class       surfaceScalarField;
    location    "1.499985";
    object      phi;
}
// * * * * * * * * * * * * * * * * * * * * * * * * * * * * * * * * * * * * * //

dimensions      [1 0 -1 0 0 0 0];

internalField   nonuniform List<scalar> 
13330
(
0.589991
-0.764898
0.174007
1.17707
-2.17272
1.5852
1.67174
-2.66714
2.17222
2.10277
-2.93589
2.50469
2.48093
-3.08666
2.70838
2.81726
-3.16759
2.83119
3.12253
-3.20903
2.9037
3.40561
-3.22761
2.9445
3.67502
-3.23401
2.96458
-3.23485
2.96966
3.9402
0.636038
-1.40112
1.20219
-2.73897
1.65656
-3.12158
2.04473
-3.32414
2.37986
-3.42184
2.67608
-3.46385
2.94423
-3.47721
3.19236
-3.47577
3.42597
-3.46763
-3.4568
3.64791
0.62835
-2.02954
1.16337
-3.27405
1.57343
-3.53169
1.9194
-3.67014
2.21491
-3.71739
2.47496
-3.72393
2.71024
-3.71252
2.92816
-3.6937
3.13346
-3.67295
-3.65222
3.32887
0.595541
-2.62511
1.08259
-3.76112
1.44522
-3.89436
1.75056
-3.97551
2.00844
-3.97529
2.23574
-3.95125
2.44235
-3.91915
2.63484
-3.8862
2.81722
-3.85535
-3.8264
2.99139
0.547007
-3.17214
0.975724
-4.18986
1.29058
-4.20923
1.55574
-4.24069
1.77856
-4.19812
1.97646
-4.14917
2.15733
-4.10003
2.32648
-4.05536
2.48706
-4.01594
-3.97979
2.64044
0.489353
-3.6615
0.854653
-4.55517
1.12248
-4.47707
1.34876
-4.467
1.53854
-4.3879
1.70845
-4.3191
1.86425
-4.25584
2.01029
-4.20141
2.14914
-4.1548
-4.1123
2.28164
0.427015
-4.08852
0.727813
-4.85598
0.951218
-4.70049
1.13869
-4.65448
1.29649
-4.54571
1.43883
-4.46145
1.56945
-4.38646
1.69186
-4.32383
1.80804
-4.27099
-4.22252
1.91825
0.363366
-4.4519
0.601221
-5.09385
0.781778
-4.88105
0.930927
-4.80364
1.05756
-4.67236
1.17165
-4.57555
1.27601
-4.49082
1.37346
-4.42129
1.46562
-4.36316
-4.30926
1.55235
0.30034
-4.75224
0.478046
-5.27156
0.617679
-5.0207
0.728668
-4.91464
0.823895
-4.7676
0.908673
-4.66033
0.985632
-4.56779
1.05689
-4.49255
1.12378
-4.43006
-4.37134
1.18585
0.239101
-4.99135
0.360068
-5.39254
0.459703
-5.12034
0.532817
-4.98776
0.59637
-4.83115
0.650772
-4.71474
0.699166
-4.61619
0.742957
-4.53636
0.783287
-4.47039
0.819617
-4.40768
-0.253063
0.25474
-0.470568
0.218164
-0.630023
0.159972
-0.749922
0.120099
-0.832109
0.0823646
-0.87293
0.0408666
-0.867349
-0.00550393
-0.81377
-0.0535934
-0.718339
-0.0954388
-0.123585
-0.594754
-0.239728
0.497305
-0.400127
0.380751
-0.527257
0.287925
-0.6141
0.207464
-0.654271
0.122821
-0.642326
0.0291154
-0.577447
-0.0702936
-0.463635
-0.167414
-0.311762
-0.247285
-0.302008
-0.133392
-0.169718
0.668758
-0.284168
0.495879
-0.350951
0.3554
-0.365998
0.222892
-0.313709
0.0707976
-0.192571
-0.0918349
-0.0176098
-0.245181
0.191731
-0.376714
0.422184
-0.477815
-0.546273
0.666456
-0.101369
0.770314
-0.148213
0.543533
-0.127486
0.334911
-0.0205675
0.116296
0.176545
-0.126148
0.430047
-0.345203
0.709265
-0.524349
0.999996
-0.667486
1.30117
-0.778964
-0.856217
1.61106
-0.0418592
0.812049
-0.000387301
0.501548
0.150124
0.184391
0.415151
-0.148649
0.742006
-0.452934
1.09255
-0.695677
1.45449
-0.886281
1.82109
-1.03405
2.18865
-1.14659
-1.2258
2.55822
0.0227603
0.78825
0.165056
0.358671
0.474029
-0.124863
0.868634
-0.543296
1.28331
-0.867624
1.70426
-1.11662
2.12397
-1.30599
2.53839
-1.44849
2.94414
-1.55233
-1.62433
3.34264
0.0802836
0.707079
0.372524
0.0656062
0.814524
-0.567189
1.28434
-1.01323
1.75438
-1.33772
2.21289
-1.57515
2.65394
-1.74705
3.07534
-1.86988
3.47845
-1.95546
-2.01358
3.86769
0.159575
0.546639
0.618676
-0.394224
1.13395
-1.08279
1.64438
-1.52382
2.12987
-1.82329
2.58383
-2.02916
3.00724
-2.17049
3.40389
-2.26654
3.77913
-2.3307
-2.37177
4.13731
0.283398
0.262377
0.856513
-0.96786
1.40674
-1.63328
1.91377
-2.03101
2.37623
-2.28586
2.79818
-2.45117
3.18555
-2.5579
3.54456
-2.62557
3.88104
-2.66719
-2.69115
4.20041
0.436069
1.05325
1.5921
2.06571
2.4882
2.86817
3.21395
3.53288
3.83027
4.10876
-0.34204
-0.252727
-0.11212
-0.229885
0.0947251
-0.206807
0.278107
-0.183355
0.441401
-0.163277
0.589224
-0.147814
0.724752
-0.135523
0.850184
-0.125432
0.967108
-0.116925
1.07671
-0.109603
1.17991
-0.1032
1.27743
-0.0975193
1.36984
-0.0924125
1.45761
-0.0877755
1.54114
-0.0835249
1.62073
-0.079594
1.69667
-0.0759361
1.76919
-0.0725176
1.8385
-0.0693123
1.9048
-0.0662978
1.96826
-0.0634554
2.02903
-0.0607694
2.08726
-0.0582263
2.14308
-0.0558145
2.1966
-0.0535242
2.24795
-0.051347
2.29723
-0.0492764
2.34453
-0.0473056
2.38996
-0.0454289
2.4336
-0.0436417
2.47554
-0.0419399
2.51586
-0.0403192
2.55463
-0.038775
2.59193
-0.0373029
2.62783
-0.0358985
2.66238
-0.0345579
2.69566
-0.0332776
2.72771
-0.0320542
2.75859
-0.0308851
2.78836
-0.0297671
2.81705
-0.0286978
2.84472
-0.0276748
2.87142
-0.0266955
2.89717
-0.0257576
2.92203
-0.0248589
2.94603
-0.0239972
2.96919
-0.0231708
2.99157
-0.0223781
3.01319
-0.0216173
3.03407
-0.0208868
3.05426
-0.0201852
3.07377
-0.0195112
3.09263
-0.0188638
3.11087
-0.0182418
3.12851
-0.0176442
3.14558
-0.0170698
3.1621
-0.0165177
3.17808
-0.0159868
3.19356
-0.0154763
3.20854
-0.0149851
3.22305
-0.0145125
3.23711
-0.0140577
3.25073
-0.0136199
3.26393
-0.0131984
3.27672
-0.0127924
3.28912
-0.0124015
3.30114
-0.0120249
3.31281
-0.0116622
3.32412
-0.0113128
3.33509
-0.0109761
3.34574
-0.0106518
3.35608
-0.0103393
3.36612
-0.0100382
3.37587
-0.00974807
3.38534
-0.00946837
3.39453
-0.00919872
3.40347
-0.00893869
3.41216
-0.00868787
3.42061
-0.00844586
3.42882
-0.00821233
3.4368
-0.00798687
3.44457
-0.00776917
3.45213
-0.00755882
3.45949
-0.00735552
3.46665
-0.00715884
3.47361
-0.00696851
3.4804
-0.00678399
3.487
-0.00660501
3.49343
-0.00643084
3.4997
-0.00626111
3.50579
-0.00609463
3.51172
-0.00593069
3.51749
-0.00576715
3.52309
-0.00560246
3.52852
-0.00543259
3.53378
-0.00525353
3.53884
-0.00505832
3.54367
-0.00483898
3.54826
-0.00458956
-0.00408711
0.0875175
-0.473598
0.277217
-0.419508
0.446007
-0.375528
0.600634
-0.337934
0.742965
-0.30558
0.87406
-0.278896
0.995541
-0.257
1.1088
-0.238688
1.21491
-0.223045
1.31477
-0.209463
1.40907
-0.197507
1.49839
-0.186841
1.58318
-0.177209
1.66383
-0.168429
1.74066
-0.160351
1.81393
-0.15286
1.88387
-0.145877
1.9507
-0.139343
2.0146
-0.13321
2.07575
-0.127438
2.13429
-0.121991
2.19036
-0.116843
2.24411
-0.111967
2.29564
-0.107343
2.34507
-0.102951
2.3925
-0.0987769
2.43804
-0.0948064
2.48176
-0.0910267
2.52375
-0.087427
2.56411
-0.0839977
2.6029
-0.0807301
2.64019
-0.0776156
2.67605
-0.074645
2.71056
-0.0718097
2.74375
-0.0691018
2.77571
-0.0665145
2.80646
-0.0640419
2.83608
-0.0616784
2.86461
-0.0594187
2.8921
-0.057258
2.91859
-0.0551917
2.94412
-0.0532146
2.96874
-0.0513221
2.99249
-0.0495096
3.0154
-0.047773
3.03751
-0.0461088
3.05885
-0.0445134
3.07945
-0.042984
3.09935
-0.0415171
3.11857
-0.040109
3.13714
-0.0387573
3.15508
-0.0374599
3.17243
-0.0362143
3.18921
-0.0350183
3.20543
-0.0338697
3.22112
-0.0327661
3.23631
-0.0317056
3.25101
-0.0306861
3.26523
-0.0297059
3.27901
-0.0287631
3.29235
-0.027856
3.30527
-0.0269831
3.3178
-0.0261429
3.32993
-0.025334
3.34169
-0.0245554
3.35309
-0.0238056
3.36415
-0.0230836
3.37487
-0.0223883
3.38528
-0.0217187
3.39537
-0.021074
3.40517
-0.020453
3.41469
-0.019855
3.42393
-0.0192787
3.4329
-0.0187236
3.44162
-0.0181886
3.45009
-0.0176729
3.45833
-0.0171757
3.46634
-0.0166962
3.47413
-0.0162336
3.4817
-0.0157872
3.48907
-0.0153564
3.49624
-0.0149404
3.50322
-0.0145385
3.51001
-0.0141502
3.51663
-0.0137746
3.52307
-0.0134112
3.52935
-0.013059
3.53546
-0.0127176
3.54141
-0.0123854
3.54722
-0.0120618
3.55287
-0.0117444
3.55837
-0.0114321
3.56372
-0.0111206
3.56892
-0.0108069
3.57398
-0.0104832
3.57886
-0.0101417
3.58357
-0.00976878
3.58807
-0.00933801
3.59231
-0.00882254
-0.00817603
0.801608
-0.608784
0.924795
-0.542676
1.0441
-0.494809
1.15953
-0.453347
1.26975
-0.415793
1.37411
-0.383262
1.47277
-0.355664
1.56612
-0.332045
1.65457
-0.311495
1.73848
-0.293378
1.8182
-0.277236
1.89404
-0.262682
1.96626
-0.249427
2.03509
-0.237266
2.10075
-0.226014
2.16343
-0.215536
2.2233
-0.205745
2.28053
-0.196569
2.33527
-0.187944
2.38765
-0.179817
2.43781
-0.172142
2.48585
-0.16488
2.53189
-0.158001
2.57602
-0.151475
2.61835
-0.145277
2.65896
-0.139383
2.69793
-0.133776
2.73534
-0.128437
2.77127
-0.123351
2.80577
-0.118504
2.83892
-0.113882
2.87078
-0.109476
2.9014
-0.10527
2.93084
-0.101253
2.95915
-0.0974149
2.98638
-0.0937462
3.01257
-0.0902397
3.03777
-0.0868878
3.06203
-0.0836831
3.08539
-0.0806188
3.10788
-0.0776879
3.12955
-0.0748837
3.15042
-0.0722002
3.17054
-0.0696318
3.18994
-0.0671729
3.20864
-0.0648182
3.22669
-0.0625627
3.2441
-0.0604024
3.26092
-0.0583318
3.27715
-0.0563452
3.29283
-0.0544394
3.30798
-0.0526114
3.32262
-0.0508576
3.33677
-0.0491743
3.35046
-0.0475582
3.36369
-0.0460059
3.3765
-0.0445144
3.38889
-0.0430811
3.40089
-0.0417033
3.4125
-0.0403785
3.42375
-0.0391042
3.43464
-0.0378784
3.4452
-0.0366992
3.45542
-0.0355646
3.46534
-0.0344729
3.47495
-0.0334224
3.48428
-0.0324114
3.49333
-0.0314384
3.50211
-0.030502
3.51064
-0.0296006
3.51891
-0.0287327
3.52696
-0.0278971
3.53477
-0.0270922
3.54236
-0.0263169
3.54974
-0.02557
3.55692
-0.0248503
3.5639
-0.0241567
3.57069
-0.0234877
3.5773
-0.0228425
3.58373
-0.02222
3.58999
-0.0216193
3.59609
-0.0210395
3.60203
-0.0204796
3.60782
-0.0199388
3.61346
-0.0194161
3.61896
-0.0189106
3.62432
-0.018421
3.62955
-0.0179466
3.63465
-0.0174854
3.63963
-0.0170365
3.64448
-0.0165966
3.64921
-0.0161639
3.65382
-0.0157325
3.65831
-0.0152984
3.66268
-0.0148503
3.66692
-0.0143773
3.67101
-0.01386
3.67493
-0.0132602
3.67865
-0.0125458
-0.0117045
1.67049
-0.668237
1.7336
-0.605804
1.80272
-0.563942
1.87552
-0.526164
1.94929
-0.48957
2.02225
-0.45623
2.09347
-0.426896
2.16246
-0.401044
2.22894
-0.377986
2.2928
-0.357249
2.35403
-0.338468
2.41264
-0.3213
2.46872
-0.305504
2.52234
-0.290889
2.57361
-0.277281
2.62264
-0.264567
2.66955
-0.252655
2.71445
-0.241467
2.75744
-0.23093
2.79861
-0.22098
2.83804
-0.211568
2.87582
-0.202654
2.91202
-0.194199
2.94672
-0.186171
2.97998
-0.178538
3.01188
-0.171277
3.04247
-0.164364
3.07181
-0.157779
3.09996
-0.151502
3.12697
-0.145516
3.15289
-0.139808
3.17778
-0.134362
3.20167
-0.129162
3.22461
-0.124193
3.24663
-0.119445
3.26779
-0.114908
3.28812
-0.110575
3.30767
-0.106435
3.32646
-0.10248
3.34454
-0.0986992
3.36193
-0.0950851
3.37867
-0.0916297
3.39479
-0.0883256
3.41032
-0.0851652
3.42529
-0.0821413
3.43971
-0.0792469
3.45362
-0.0764756
3.46704
-0.0738232
3.47999
-0.0712817
3.49248
-0.0688432
3.50455
-0.0665051
3.5162
-0.0642635
3.52745
-0.0621129
3.53832
-0.0600488
3.54883
-0.0580672
3.55898
-0.0561642
3.5688
-0.0543361
3.5783
-0.05258
3.58749
-0.0508929
3.59638
-0.0492715
3.60498
-0.047713
3.61332
-0.0462152
3.62139
-0.0447756
3.62922
-0.0433917
3.6368
-0.0420613
3.64416
-0.0407823
3.6513
-0.0395525
3.65823
-0.03837
3.66496
-0.0372328
3.6715
-0.0361389
3.67785
-0.0350865
3.68403
-0.0340737
3.69003
-0.0330987
3.69587
-0.03216
3.70156
-0.031256
3.70709
-0.0303852
3.71248
-0.0295461
3.71773
-0.0287372
3.72285
-0.0279574
3.72783
-0.0272056
3.73269
-0.0264807
3.73743
-0.0257816
3.74206
-0.0251071
3.74658
-0.0244565
3.75099
-0.023828
3.7553
-0.0232211
3.75951
-0.0226338
3.76363
-0.0220655
3.76766
-0.0215137
3.7716
-0.0209773
3.77546
-0.0204523
3.77923
-0.0199366
3.78292
-0.0194228
3.78653
-0.0189065
3.79005
-0.0183737
3.79349
-0.0178114
3.79682
-0.0171954
3.80004
-0.01648
3.80312
-0.0156255
-0.0146315
2.57286
-0.68293
2.59945
-0.632438
2.63374
-0.598261
2.67274
-0.565196
2.7148
-0.531649
2.75843
-0.499876
2.80242
-0.470908
2.84599
-0.444625
2.88866
-0.420662
2.93013
-0.398724
2.97022
-0.378565
3.00887
-0.359945
3.04605
-0.342689
3.0818
-0.32664
3.11618
-0.311657
3.14923
-0.297623
3.18101
-0.284433
3.21156
-0.272005
3.24089
-0.260264
3.26907
-0.249149
3.29611
-0.238611
3.32207
-0.22861
3.34698
-0.219108
3.37088
-0.21007
3.39381
-0.201466
3.41581
-0.193269
3.4369
-0.185459
3.45714
-0.178012
3.47654
-0.170909
3.49516
-0.16413
3.513
-0.157655
3.53011
-0.151467
3.5465
-0.145554
3.56221
-0.139908
3.57728
-0.134519
3.59175
-0.129376
3.60564
-0.124469
3.61898
-0.119784
3.63181
-0.11531
3.64414
-0.111037
3.65601
-0.106956
3.66743
-0.103055
3.67843
-0.0993264
3.68902
-0.0957599
3.69923
-0.0923474
3.70906
-0.0890806
3.71853
-0.0859514
3.72766
-0.0829554
3.73646
-0.080085
3.74495
-0.0773321
3.75313
-0.0746927
3.76102
-0.0721606
3.76864
-0.0697305
3.77599
-0.0673982
3.78308
-0.0651605
3.78992
-0.0630128
3.79654
-0.060951
3.80293
-0.0589726
3.8091
-0.0570742
3.81508
-0.0552513
3.82087
-0.0535015
3.82647
-0.051822
3.8319
-0.0502098
3.83717
-0.048662
3.84229
-0.0471758
3.84725
-0.0457485
3.85207
-0.0443775
3.85676
-0.0430605
3.86132
-0.0417953
3.86576
-0.0405794
3.87009
-0.0394106
3.8743
-0.0382866
3.8784
-0.0372052
3.88241
-0.0361649
3.88631
-0.0351635
3.89013
-0.0341999
3.89385
-0.033272
3.89749
-0.032378
3.90105
-0.0315174
3.90454
-0.0306889
3.90795
-0.0298909
3.91129
-0.0291222
3.91456
-0.0283818
3.91777
-0.0276688
3.92093
-0.0269812
3.92402
-0.0263182
3.92707
-0.0256778
3.93006
-0.0250593
3.93301
-0.0244598
3.93591
-0.0238784
3.93877
-0.0233103
3.94158
-0.0227535
3.94436
-0.0221998
3.9471
-0.0216445
3.9498
-0.0210721
3.95245
-0.0204691
3.95507
-0.0198072
3.95762
-0.0190375
3.96011
-0.0181089
-0.0170241
3.33771
-0.678038
3.34804
-0.642828
3.36602
-0.616284
3.3879
-0.587103
3.41271
-0.556487
3.43953
-0.526721
3.4673
-0.498695
3.4952
-0.472529
3.52266
-0.448138
3.54937
-0.425433
3.57512
-0.40432
3.59981
-0.384643
3.6234
-0.36628
3.64588
-0.349115
3.66724
-0.333016
3.68751
-0.317891
3.70672
-0.303644
3.72492
-0.290203
3.74217
-0.277507
3.75852
-0.265497
3.77403
-0.254117
3.78875
-0.243327
3.80272
-0.233083
3.81601
-0.223351
3.82864
-0.214098
3.84067
-0.205296
3.85213
-0.196918
3.86305
-0.188938
3.87348
-0.181337
3.88344
-0.174092
3.89297
-0.167182
3.9021
-0.160596
3.91086
-0.154318
3.91928
-0.148334
3.92739
-0.142623
3.93518
-0.137171
3.94267
-0.131965
3.94988
-0.126993
3.95681
-0.122242
3.96347
-0.117702
3.96988
-0.113361
3.97603
-0.109211
3.98194
-0.105241
3.98762
-0.101444
3.99308
-0.0978092
3.99833
-0.0943296
4.00337
-0.0909962
4.00821
-0.0878045
4.01287
-0.0847466
4.01735
-0.0818118
4.02165
-0.078996
4.02578
-0.0762961
4.02976
-0.0737099
4.03359
-0.0712323
4.03729
-0.0688598
4.04086
-0.066587
4.04431
-0.0644078
4.04766
-0.0623203
4.0509
-0.0603205
4.05405
-0.0584036
4.05711
-0.0565667
4.06009
-0.054806
4.063
-0.053118
4.06583
-0.0514991
4.0686
-0.0499463
4.07131
-0.0484566
4.07396
-0.0470268
4.07655
-0.0456544
4.07909
-0.0443368
4.08158
-0.0430712
4.08402
-0.0418551
4.08642
-0.0406863
4.08878
-0.0395627
4.0911
-0.0384827
4.09338
-0.0374445
4.09562
-0.036447
4.09784
-0.0354883
4.10003
-0.0345666
4.10219
-0.0336809
4.10433
-0.0328299
4.10645
-0.0320116
4.10855
-0.0312249
4.11064
-0.0304693
4.11271
-0.0297433
4.11478
-0.0290445
4.11683
-0.0283725
4.11888
-0.027725
4.12092
-0.0271014
4.12296
-0.0264985
4.125
-0.0259156
4.12703
-0.0253475
4.12907
-0.0247926
4.13112
-0.0242421
4.13316
-0.023692
4.13522
-0.0231266
4.13728
-0.0225329
4.13936
-0.0218817
4.14144
-0.0211246
4.14353
-0.0201964
-0.0190956
3.84646
-0.656847
3.84162
-0.638042
3.84608
-0.620783
3.85596
-0.59702
3.87002
-0.570569
3.88739
-0.544114
3.90704
-0.518359
3.92804
-0.493534
3.94971
-0.469814
3.97156
-0.447292
3.99324
-0.426003
4.01449
-0.405892
4.03511
-0.386901
4.05496
-0.368959
4.07394
-0.351993
4.09199
-0.335937
4.10907
-0.320724
4.12517
-0.306298
4.14027
-0.292608
4.15438
-0.279607
4.16752
-0.267249
4.1797
-0.255504
4.19095
-0.244333
4.2013
-0.233707
4.2108
-0.223597
4.21949
-0.213978
4.22739
-0.204824
4.23457
-0.196112
4.24106
-0.187827
4.24691
-0.179948
4.25219
-0.172458
4.25693
-0.165342
4.26119
-0.158578
4.265
-0.152149
4.26841
-0.146035
4.27146
-0.140221
4.27419
-0.134691
4.27662
-0.129431
4.2788
-0.124426
4.28076
-0.119661
4.28252
-0.115123
4.2841
-0.110802
4.28554
-0.106683
4.28685
-0.102758
4.28806
-0.0990135
4.28916
-0.0954398
4.29019
-0.0920278
4.29115
-0.0887706
4.29206
-0.0856589
4.29293
-0.082683
4.29377
-0.0798382
4.29459
-0.0771199
4.2954
-0.07452
4.29619
-0.0720325
4.29698
-0.0696503
4.29776
-0.0673697
4.29854
-0.065188
4.29931
-0.063099
4.30009
-0.0610993
4.30087
-0.0591841
4.30165
-0.0573503
4.30244
-0.0555942
4.30323
-0.0539123
4.30403
-0.0523013
4.30484
-0.0507579
4.30566
-0.0492792
4.30649
-0.0478617
4.30734
-0.0465023
4.3082
-0.0451976
4.30907
-0.0439455
4.30996
-0.0427442
4.31086
-0.0415923
4.31179
-0.0404882
4.31274
-0.03943
4.31371
-0.0384155
4.3147
-0.0374436
4.31573
-0.0365125
4.31678
-0.03562
4.31786
-0.0347648
4.31898
-0.0339457
4.32013
-0.0331607
4.32131
-0.0324083
4.32253
-0.0316877
4.32378
-0.0309972
4.32507
-0.030335
4.3264
-0.0297006
4.32777
-0.0290913
4.32917
-0.0285067
4.33062
-0.0279435
4.3321
-0.0274013
4.33363
-0.0268747
4.3352
-0.0263628
4.33681
-0.0258569
4.33848
-0.0253543
4.34019
-0.0248408
4.34196
-0.0243065
4.34381
-0.0237224
4.34573
-0.0230503
4.34774
-0.0222101
-0.0211808
4.10332
-0.622891
4.08412
-0.61889
4.07516
-0.611862
4.07339
-0.595284
4.07722
-0.574419
4.08547
-0.552378
4.09712
-0.530024
4.11131
-0.507725
4.12731
-0.485821
4.14458
-0.464567
4.16269
-0.444113
4.18132
-0.424516
4.2002
-0.405789
4.21916
-0.387916
4.23804
-0.370871
4.25672
-0.354616
4.27511
-0.339111
4.29313
-0.324315
4.31072
-0.31019
4.32781
-0.296702
4.34439
-0.283819
4.3604
-0.271512
4.37582
-0.259752
4.39063
-0.248514
4.4048
-0.237771
4.41833
-0.227504
4.43119
-0.21769
4.44339
-0.208308
4.4549
-0.199338
4.46572
-0.190766
4.47583
-0.182574
4.48523
-0.174747
4.49392
-0.167269
4.5019
-0.160128
4.50918
-0.153312
4.51576
-0.146809
4.52168
-0.140605
4.52693
-0.134689
4.53155
-0.129051
4.53557
-0.123681
4.53901
-0.118565
4.5419
-0.113697
4.54428
-0.109067
4.54618
-0.104664
4.54765
-0.10048
4.54871
-0.0965058
4.54941
-0.0927331
4.54979
-0.0891552
4.54989
-0.0857644
4.54976
-0.0825513
4.54942
-0.0795069
4.54892
-0.0766238
4.54829
-0.0738929
4.54756
-0.0713047
4.54676
-0.0688506
4.54591
-0.066524
4.54504
-0.0643182
4.54416
-0.0622253
4.5433
-0.0602387
4.54246
-0.058351
4.54166
-0.0565564
4.54092
-0.0548497
4.54023
-0.0532254
4.5396
-0.0516786
4.53905
-0.0502045
4.53856
-0.0487989
4.53816
-0.0474577
4.53783
-0.0461774
4.53759
-0.0449546
4.53743
-0.0437866
4.53735
-0.0426705
4.53736
-0.0416037
4.53746
-0.0405833
4.53763
-0.0396074
4.53789
-0.0386738
4.53823
-0.0377816
4.53864
-0.0369284
4.53914
-0.0361127
4.5397
-0.0353332
4.54035
-0.0345894
4.54107
-0.0338791
4.54186
-0.0332011
4.54272
-0.0325544
4.54367
-0.0319381
4.54468
-0.03135
4.54577
-0.0307899
4.54693
-0.0302551
4.54817
-0.0297453
4.54948
-0.0292567
4.55087
-0.0287892
4.55234
-0.0283379
4.55388
-0.0279034
4.5555
-0.0274781
4.5572
-0.0270613
4.559
-0.0266405
4.56091
-0.026212
4.56294
-0.0257499
4.56512
-0.0252372
4.5675
-0.0245872
-0.0237658
4.16035
-0.582855
4.13297
-0.591549
4.11536
-0.594279
4.10619
-0.586138
4.10373
-0.571976
4.10634
-0.555003
4.11286
-0.536544
4.1224
-0.517271
4.13427
-0.497689
4.14789
-0.478191
4.16283
-0.459047
4.17874
-0.440421
4.19535
-0.422401
4.21247
-0.40503
4.22993
-0.388324
4.24759
-0.372278
4.26537
-0.35688
4.28316
-0.342106
4.30091
-0.327935
4.31856
-0.314347
4.33606
-0.301319
4.35337
-0.288827
4.37047
-0.276848
4.38732
-0.265363
4.4039
-0.254352
4.4202
-0.243796
4.43618
-0.233676
4.45185
-0.223974
4.46718
-0.214674
4.48218
-0.20576
4.49682
-0.197218
4.5111
-0.189033
4.52502
-0.181189
4.53856
-0.173672
4.55172
-0.166471
4.56448
-0.159573
4.57684
-0.152968
4.5888
-0.146645
4.60033
-0.140591
4.61144
-0.134796
4.62213
-0.129253
4.63238
-0.12395
4.64218
-0.118877
4.65154
-0.114027
4.66045
-0.109391
4.6689
-0.104962
4.6769
-0.100731
4.68443
-0.0966918
4.6915
-0.0928362
4.6981
-0.0891565
4.70424
-0.0856463
4.70991
-0.0823015
4.71513
-0.0791157
4.7199
-0.0760827
4.72425
-0.0731977
4.72818
-0.0704559
4.73171
-0.0678519
4.73486
-0.0653801
4.73765
-0.0630361
4.74012
-0.0608147
4.74227
-0.0587112
4.74414
-0.0567211
4.74575
-0.0548399
4.74713
-0.0530633
4.74831
-0.0513868
4.74932
-0.0498064
4.75018
-0.0483182
4.75092
-0.0469185
4.75156
-0.0456028
4.75214
-0.0443671
4.75268
-0.0432071
4.75319
-0.0421187
4.7537
-0.0410968
4.75423
-0.0401382
4.7548
-0.0392386
4.75541
-0.0383946
4.75608
-0.037602
4.75683
-0.0368578
4.75765
-0.0361583
4.75856
-0.0355015
4.75957
-0.0348837
4.76067
-0.0343029
4.76187
-0.033757
4.76318
-0.0332442
4.76459
-0.032761
4.76611
-0.0323065
4.76773
-0.031878
4.76946
-0.0314751
4.7713
-0.0310944
4.77324
-0.0307359
4.7753
-0.0303953
4.77747
-0.0300725
4.77975
-0.0297622
4.78216
-0.029464
4.78469
-0.0291709
4.78736
-0.0288825
4.79019
-0.028586
4.79324
-0.0282838
4.79658
-0.0279274
-0.0274643
4.06442
-0.538535
4.02956
-0.556716
4.00285
-0.567591
3.98581
-0.569116
3.97713
-0.563307
3.97495
-0.552825
3.97782
-0.539425
3.9847
-0.524144
3.99471
-0.507695
4.00714
-0.490623
4.02143
-0.473338
4.03715
-0.456128
4.05393
-0.439182
4.07152
-0.422618
4.08971
-0.40651
4.10834
-0.390897
4.12726
-0.375799
4.14638
-0.361222
4.16561
-0.347166
4.18489
-0.333621
4.20415
-0.320578
4.22335
-0.308023
4.24245
-0.295945
4.26142
-0.284327
4.28022
-0.273156
4.29884
-0.262417
4.31726
-0.252098
4.33547
-0.242182
4.35345
-0.232656
4.3712
-0.223508
4.3887
-0.214724
4.40596
-0.206292
4.42297
-0.198198
4.43972
-0.19043
4.45622
-0.182977
4.47248
-0.175828
4.48848
-0.168972
4.50423
-0.162399
4.51973
-0.156098
4.53499
-0.150058
4.55
-0.144271
4.56478
-0.138726
4.57931
-0.133415
4.59361
-0.128329
4.60767
-0.123459
4.6215
-0.118797
4.6351
-0.114336
4.64847
-0.110066
4.66162
-0.105981
4.67453
-0.102073
4.68721
-0.0983345
4.69967
-0.0947586
4.71189
-0.0913391
4.72387
-0.0880708
4.73562
-0.0849475
4.74712
-0.0819625
4.75837
-0.0791108
4.76938
-0.0763874
4.78013
-0.073787
4.79061
-0.0713047
4.80084
-0.0689356
4.81079
-0.0666752
4.82046
-0.0645191
4.82986
-0.0624636
4.83898
-0.0605045
4.84781
-0.0586386
4.85635
-0.0568616
4.8646
-0.0551706
4.87256
-0.0535621
4.88022
-0.052034
4.8876
-0.0505832
4.89469
-0.0492075
4.90149
-0.0479041
4.90802
-0.0466712
4.91429
-0.0455059
4.9203
-0.0444069
4.92607
-0.0433714
4.93161
-0.0423981
4.93693
-0.0414841
4.94206
-0.0406288
4.94701
-0.0398289
4.95179
-0.039084
4.95642
-0.0383906
4.96093
-0.0377493
4.96532
-0.0371559
4.96962
-0.0366097
4.97385
-0.0361076
4.97803
-0.0356493
4.98216
-0.035231
4.98628
-0.0348529
4.99039
-0.0345098
4.99452
-0.0342025
4.99869
-0.0339246
5.0029
-0.0336781
5.00719
-0.0334567
5.01157
-0.0332682
5.0161
-0.0331092
5.02083
-0.0330137
5.0259
-0.0330051
-0.0332294
5.11459
-0.484386
-5.16875
5.05956
-0.5017
5.00849
-0.516536
4.96246
-0.523097
4.92195
-0.522793
4.88681
-0.517695
4.85667
-0.509275
4.83102
-0.498494
4.80937
-0.486049
4.79125
-0.472496
4.77619
-0.458276
4.76379
-0.443718
4.75367
-0.429059
4.74552
-0.414463
4.73906
-0.400046
4.73405
-0.385886
4.73029
-0.372036
4.72761
-0.35853
4.72584
-0.345392
4.72485
-0.332634
4.72454
-0.320263
4.7248
-0.308281
4.72555
-0.29669
4.7267
-0.285484
4.72821
-0.274658
4.73
-0.264208
4.73203
-0.254126
4.73425
-0.244405
4.73663
-0.235035
4.73913
-0.22601
4.74172
-0.217319
4.74438
-0.208955
4.74709
-0.200907
4.74982
-0.193166
4.75257
-0.185724
4.75531
-0.178571
4.75803
-0.1717
4.76073
-0.165101
4.7634
-0.158764
4.76602
-0.152682
4.76859
-0.146846
4.77111
-0.141247
4.77357
-0.135878
4.77596
-0.130729
4.77829
-0.125794
4.78056
-0.121065
4.78275
-0.116534
4.78488
-0.112194
4.78693
-0.108038
4.78891
-0.104057
4.79082
-0.100246
4.79266
-0.0965983
4.79442
-0.0931068
4.79611
-0.0897662
4.79773
-0.0865707
4.79928
-0.0835142
4.80076
-0.0805911
4.80217
-0.0777962
4.8035
-0.0751244
4.80476
-0.0725706
4.80596
-0.0701298
4.80708
-0.0677972
4.80812
-0.0655686
4.8091
-0.0634395
4.81
-0.0614058
4.81082
-0.0594638
4.81157
-0.0576092
4.81223
-0.0558388
4.81282
-0.0541488
4.81332
-0.0525366
4.81373
-0.0509982
4.81406
-0.0495316
4.81429
-0.0481336
4.81442
-0.046802
4.81444
-0.045534
4.81436
-0.0443277
4.81417
-0.0431803
4.81386
-0.0420906
4.81343
-0.0410556
4.81288
-0.0400744
4.81219
-0.0391443
4.81137
-0.0382647
4.81042
-0.0374329
4.80932
-0.0366493
4.80807
-0.0359097
4.80668
-0.0352159
4.80513
-0.0345635
4.80344
-0.0339547
4.80159
-0.0333846
4.79959
-0.0328559
4.79745
-0.0323637
4.79516
-0.0319117
4.79273
-0.0314947
4.79017
-0.0311187
4.78749
-0.0307801
4.78472
-0.0304935
4.78187
-0.0302655
4.779
-0.0301425
4.77617
-0.0301713
-0.0307354
5.15195
-0.428958
-5.20738
5.10058
-0.45034
5.05242
-0.468387
5.0091
-0.479772
4.97085
-0.484551
4.93741
-0.484255
4.90838
-0.480242
4.88335
-0.473456
4.8619
-0.4646
4.84365
-0.45424
4.82822
-0.44284
4.81526
-0.430757
4.80447
-0.418261
4.79557
-0.405553
4.7883
-0.392779
4.78247
-0.380047
4.77788
-0.367438
4.77436
-0.35501
4.77178
-0.342805
4.77
-0.330854
4.76892
-0.319181
4.76844
-0.3078
4.76848
-0.296723
4.76895
-0.285958
4.7698
-0.275509
4.77097
-0.265376
4.7724
-0.25556
4.77406
-0.246061
4.7759
-0.236875
4.77789
-0.227998
4.77999
-0.219426
4.78219
-0.211154
4.78445
-0.203175
4.78677
-0.195485
4.78912
-0.188075
4.79148
-0.18094
4.79385
-0.174073
4.79622
-0.167466
4.79856
-0.161114
4.80088
-0.155007
4.80317
-0.149139
4.80543
-0.143503
4.80764
-0.138092
4.8098
-0.132898
4.81192
-0.127913
4.81398
-0.123132
4.81599
-0.118547
4.81794
-0.114152
4.81984
-0.109939
4.82168
-0.105902
4.82347
-0.102033
4.82519
-0.0983283
4.82686
-0.0947801
4.82848
-0.0913832
4.83003
-0.0881318
4.83154
-0.0850203
4.83299
-0.0820432
4.83438
-0.0791952
4.83573
-0.0764714
4.83702
-0.0738666
4.83826
-0.0713761
4.83946
-0.0689952
4.84061
-0.0667195
4.84171
-0.0645445
4.84277
-0.0624663
4.84378
-0.060481
4.84476
-0.0585845
4.84569
-0.0567733
4.84658
-0.055044
4.84744
-0.0533933
4.84826
-0.051818
4.84904
-0.0503151
4.84979
-0.048882
4.8505
-0.047516
4.85118
-0.0462145
4.85183
-0.0449751
4.85244
-0.0437955
4.85302
-0.0426735
4.85357
-0.0416069
4.85409
-0.0405939
4.85458
-0.0396325
4.85504
-0.038721
4.85546
-0.0378577
4.85585
-0.0370412
4.85621
-0.0362694
4.85654
-0.035542
4.85683
-0.0348562
4.85709
-0.0342123
4.85731
-0.0336074
4.8575
-0.0330422
4.85765
-0.032514
4.85776
-0.0320248
4.85784
-0.0315722
4.85788
-0.0311607
4.85789
-0.0307917
4.85787
-0.0304753
4.85783
-0.0302246
4.85776
-0.0300687
4.85764
-0.0300555
-0.0303288
5.17735
-0.375109
-5.23121
5.12853
-0.401525
5.08327
-0.423129
5.0421
-0.438597
5.0053
-0.447751
4.97275
-0.451703
4.94418
-0.451669
4.91929
-0.448564
4.89777
-0.443072
4.87929
-0.435754
4.86353
-0.427074
4.85018
-0.417405
4.83896
-0.40704
4.82962
-0.396203
4.82191
-0.385068
4.81564
-0.37377
4.81061
-0.36241
4.80668
-0.35107
4.80369
-0.339811
4.80152
-0.328681
4.80006
-0.317717
4.79921
-0.30695
4.79889
-0.296402
4.79902
-0.28609
4.79954
-0.276028
4.80039
-0.266224
4.80152
-0.256687
4.80288
-0.247421
4.80443
-0.238429
4.80614
-0.229711
4.80798
-0.221268
4.80992
-0.213098
4.81195
-0.205198
4.81402
-0.197566
4.81615
-0.190198
4.81829
-0.183089
4.82045
-0.176234
4.82261
-0.169629
4.82476
-0.163268
4.8269
-0.157144
4.82901
-0.151253
4.83109
-0.145587
4.83313
-0.14014
4.83514
-0.134907
4.8371
-0.12988
4.83902
-0.125054
4.84089
-0.120421
4.84271
-0.115976
4.84448
-0.111713
4.8462
-0.107625
4.84787
-0.103705
4.84949
-0.0999483
4.85106
-0.0963488
4.85257
-0.0929008
4.85403
-0.0895988
4.85545
-0.0864374
4.85681
-0.0834112
4.85813
-0.0805152
4.8594
-0.0777442
4.86063
-0.0750935
4.86181
-0.0725583
4.86294
-0.070134
4.86404
-0.0678161
4.86509
-0.0656004
4.86611
-0.0634828
4.86709
-0.0614595
4.86803
-0.0595264
4.86893
-0.0576801
4.8698
-0.055917
4.87064
-0.0542339
4.87145
-0.0526277
4.87223
-0.0510953
4.87298
-0.0496339
4.87371
-0.048241
4.87441
-0.0469138
4.87508
-0.04565
4.87573
-0.0444473
4.87636
-0.0433033
4.87697
-0.0422161
4.87756
-0.0411836
4.87813
-0.0402039
4.87868
-0.0392753
4.87922
-0.0383962
4.87974
-0.0375649
4.88026
-0.03678
4.88075
-0.0360402
4.88124
-0.035344
4.88172
-0.0346906
4.88219
-0.0340786
4.88266
-0.0335074
4.88312
-0.0329763
4.88358
-0.0324858
4.88404
-0.0320361
4.88451
-0.03163
4.88499
-0.031271
4.88548
-0.0309671
4.88599
-0.0307296
4.8865
-0.0305774
4.88698
-0.0305346
-0.0306214
5.19191
-0.323782
-5.24324
5.14552
-0.355142
5.10287
-0.38048
5.06393
-0.399655
5.02891
-0.412731
4.99778
-0.420565
4.97031
-0.424205
4.94627
-0.424512
4.92535
-0.422154
4.90729
-0.417683
4.89178
-0.411563
4.87856
-0.40418
4.86737
-0.395842
4.85797
-0.386797
4.85015
-0.377239
4.84371
-0.367325
4.83848
-0.357179
4.83431
-0.3469
4.83107
-0.336566
4.82864
-0.326243
4.8269
-0.31598
4.82578
-0.305821
4.82518
-0.295798
4.82503
-0.285939
4.82526
-0.276265
4.82583
-0.266794
4.82669
-0.257538
4.82777
-0.248509
4.82906
-0.239716
4.83051
-0.231163
4.8321
-0.222855
4.83379
-0.214793
4.83557
-0.20698
4.83742
-0.199413
4.83931
-0.192093
4.84124
-0.185017
4.84318
-0.178182
4.84513
-0.171585
4.84709
-0.165223
4.84903
-0.159089
4.85095
-0.15318
4.85285
-0.147491
4.85472
-0.142016
4.85656
-0.136749
4.85837
-0.131686
4.86013
-0.126821
4.86185
-0.122147
4.86353
-0.117658
4.86516
-0.11335
4.86675
-0.109216
4.86829
-0.10525
4.86979
-0.101447
4.87124
-0.0978012
4.87264
-0.0943069
4.874
-0.090959
4.87531
-0.0877522
4.87658
-0.0846813
4.8778
-0.0817414
4.87898
-0.0789274
4.88012
-0.0762347
4.88122
-0.0736584
4.88228
-0.0711942
4.8833
-0.0688377
4.88428
-0.0665845
4.88523
-0.0644307
4.88614
-0.0623724
4.88702
-0.0604057
4.88786
-0.058527
4.88868
-0.0567329
4.88946
-0.0550201
4.89022
-0.0533854
4.89095
-0.0518259
4.89165
-0.0503388
4.89233
-0.0489213
4.89299
-0.0475708
4.89362
-0.0462849
4.89423
-0.0450614
4.89483
-0.0438978
4.8954
-0.0427922
4.89596
-0.0417426
4.8965
-0.040747
4.89703
-0.0398038
4.89755
-0.0389112
4.89805
-0.0380678
4.89854
-0.0372722
4.89902
-0.0365229
4.8995
-0.0358189
4.89997
-0.0351591
4.90043
-0.0345426
4.90089
-0.0339688
4.90135
-0.0334375
4.90182
-0.032949
4.90229
-0.0325044
4.90276
-0.0321059
4.90325
-0.0317574
4.90375
-0.0314651
4.90425
-0.0312376
4.90476
-0.031086
4.90525
-0.0310186
-0.031025
5.1996
-0.275877
-5.2475
5.15618
-0.311724
5.11637
-0.340673
5.07995
-0.363233
5.04701
-0.379786
5.01754
-0.391088