/*--------------------------------*- C++ -*----------------------------------*\
  =========                 |
  \\      /  F ield         | OpenFOAM: The Open Source CFD Toolbox
   \\    /   O peration     | Website:  https://openfoam.org
    \\  /    A nd           | Version:  8
     \\/     M anipulation  |
\*---------------------------------------------------------------------------*/
FoamFile
{
    version     2.0;
    format      ascii;
    class       volScalarField;
    location    "1.499985";
    object      rho;
}
// * * * * * * * * * * * * * * * * * * * * * * * * * * * * * * * * * * * * * //

dimensions      [1 -3 0 0 0 0 0];

internalField   nonuniform List<scalar> 
6800
(
0.578078
0.57958
0.580237
0.58158
0.583043
0.583967
0.584703
0.585229
0.585713
0.586156
0.575108
0.578651
0.57998
0.581688
0.582831
0.583688
0.584406
0.585008
0.585603
0.586031
0.571308
0.577565
0.579361
0.580918
0.582235
0.583185
0.583955
0.584575
0.585127
0.585616
0.567051
0.576187
0.577628
0.5798
0.58126
0.582276
0.583126
0.583869
0.584568
0.585232
0.562469
0.574096
0.57578
0.578322
0.579946
0.58121
0.582265
0.583198
0.584025
0.584721
0.55803
0.571967
0.573403
0.576633
0.57856
0.580079
0.581332
0.582411
0.583356
0.584195
0.553935
0.569529
0.57124
0.575071
0.577173
0.578988
0.58047
0.581749
0.582853
0.583793
0.550531
0.567423
0.569226
0.573534
0.575948
0.578068
0.579743
0.581168
0.582373
0.583418
0.547956
0.565513
0.567647
0.572485
0.575052
0.57739
0.579229
0.580795
0.582107
0.583238
0.546411
0.564254
0.566603
0.571727
0.574482
0.577024
0.578984
0.580651
0.582027
0.58322
0.581535
0.58078
0.580563
0.580641
0.580896
0.581274
0.581756
0.582333
0.582952
0.58357
0.58111
0.58059
0.580405
0.58047
0.580711
0.581087
0.581588
0.582198
0.582858
0.583525
0.580838
0.580333
0.580167
0.580226
0.580474
0.580874
0.581409
0.582064
0.582809
0.583559
0.580412
0.579983
0.579929
0.580035
0.580321
0.580794
0.581421
0.582122
0.582897
0.583672
0.579883
0.579745
0.579818
0.580051
0.580444
0.580993
0.581621
0.582308
0.583072
0.583828
0.579467
0.579605
0.57993
0.580358
0.580844
0.581355
0.581921
0.582565
0.583301
0.584089
0.579094
0.579714
0.580245
0.580828
0.581205
0.581641
0.582203
0.582955
0.583715
0.584776
0.578726
0.579712
0.580661
0.581015
0.581376
0.581925
0.58275
0.583738
0.584664
0.585815
0.578441
0.579712
0.580679
0.581055
0.581627
0.582625
0.583775
0.584775
0.58574
0.586462
0.578517
0.579829
0.58048
0.58116
0.582336
0.583604
0.584587
0.585378
0.585938
0.586468
0.584262
0.584949
0.585504
0.58597
0.586356
0.586672
0.586939
0.587167
0.587364
0.587536
0.587687
0.58782
0.587938
0.588043
0.588136
0.588219
0.588292
0.588357
0.588415
0.588465
0.588509
0.588547
0.58858
0.588608
0.588633
0.588653
0.588671
0.588687
0.5887
0.588712
0.588723
0.588733
0.588742
0.588751
0.58876
0.588768
0.588776
0.588785
0.588793
0.588802
0.588811
0.58882
0.588829
0.588838
0.588846
0.588855
0.588864
0.588873
0.588881
0.588889
0.588897
0.588904
0.588911
0.588919
0.588926
0.588932
0.588939
0.588946
0.588952
0.588959
0.588966
0.588973
0.588981
0.588988
0.588996
0.589004
0.589012
0.58902
0.589029
0.589037
0.589046
0.589055
0.589064
0.589074
0.589083
0.589092
0.589102
0.589111
0.589121
0.58913
0.58914
0.589149
0.589159
0.589169
0.589178
0.589187
0.589197
0.589206
0.589215
0.589224
0.589233
0.589242
0.589251
0.589259
0.589268
0.589276
0.589286
0.589293
0.589305
0.589317
0.584191
0.584901
0.585458
0.585913
0.586292
0.586608
0.586878
0.587109
0.587308
0.587484
0.587638
0.587774
0.587895
0.588002
0.588098
0.588183
0.588259
0.588326
0.588385
0.588437
0.588482
0.588521
0.588556
0.588586
0.588611
0.588634
0.588653
0.58867
0.588685
0.588698
0.58871
0.588722
0.588732
0.588742
0.588751
0.58876
0.58877
0.588779
0.588788
0.588797
0.588806
0.588815
0.588824
0.588833
0.588843
0.588851
0.58886
0.588869
0.588877
0.588885
0.588893
0.5889
0.588907
0.588915
0.588922
0.588928
0.588935
0.588942
0.588949
0.588956
0.588963
0.58897
0.588977
0.588985
0.588993
0.589001
0.589009
0.589017
0.589026
0.589035
0.589044
0.589053
0.589062
0.589071
0.58908
0.58909
0.589099
0.589109
0.589118
0.589128
0.589137
0.589147
0.589156
0.589166
0.589175
0.589185
0.589194
0.589203
0.589212
0.589221
0.58923
0.589239
0.589248
0.589256
0.589265
0.589273
0.589282
0.58929
0.589301
0.589312
0.584144
0.584821
0.585366
0.585813
0.58619
0.586511
0.586787
0.587027
0.587232
0.587414
0.587574
0.587717
0.587843
0.587956
0.588056
0.588146
0.588225
0.588295
0.588357
0.588412
0.58846
0.588502
0.588538
0.588571
0.588599
0.588623
0.588645
0.588664
0.588681
0.588697
0.588711
0.588724
0.588735
0.588747
0.588757
0.588768
0.588778
0.588787
0.588797
0.588807
0.588816
0.588825
0.588834
0.588843
0.588852
0.58886
0.588869
0.588877
0.588884
0.588892
0.588899
0.588907
0.588914
0.58892
0.588927
0.588934
0.58894
0.588947
0.588954
0.58896
0.588967
0.588974
0.588982
0.588989
0.588997
0.589005
0.589013
0.589021
0.58903
0.589038
0.589047
0.589056
0.589065
0.589074
0.589083
0.589093
0.589102
0.589111
0.58912
0.58913
0.589139
0.589148
0.589158
0.589167
0.589176
0.589185
0.589194
0.589203
0.589212
0.589221
0.58923
0.589238
0.589247
0.589255
0.589263
0.589271
0.58928
0.589288
0.589298
0.589309
0.584065
0.584693
0.585259
0.585717
0.586101
0.586433
0.586726
0.58698
0.587198
0.587391
0.587562
0.587714
0.587849
0.587969
0.588076
0.588171
0.588255
0.58833
0.588396
0.588454
0.588506
0.588551
0.58859
0.588625
0.588655
0.588682
0.588706
0.588726
0.588745
0.588761
0.588776
0.588789
0.588802
0.588813
0.588823
0.588833
0.588843
0.588852
0.58886
0.588868
0.588876
0.588884
0.588892
0.588899
0.588906
0.588913
0.58892
0.588927
0.588933
0.588939
0.588945
0.588951
0.588957
0.588962
0.588968
0.588973
0.588979
0.588985
0.58899
0.588996
0.589002
0.589008
0.589015
0.589022
0.589028
0.589035
0.589043
0.58905
0.589058
0.589066
0.589074
0.589082
0.58909
0.589099
0.589107
0.589116
0.589124
0.589133
0.589141
0.58915
0.589159
0.589167
0.589176
0.589184
0.589193
0.589201
0.58921
0.589218
0.589227
0.589235
0.589243
0.589251
0.589259
0.589266
0.589274
0.589282
0.589289
0.589297
0.589305
0.589316
0.584006
0.584617
0.58526
0.585773
0.58619
0.586551
0.58687
0.587148
0.587386
0.587594
0.587777
0.587938
0.58808
0.588205
0.588315
0.588412
0.588497
0.588572
0.588638
0.588695
0.588745
0.588788
0.588826
0.588858
0.588886
0.58891
0.58893
0.588948
0.588963
0.588976
0.588988
0.588997
0.589006
0.589013
0.589019
0.589025
0.58903
0.589034
0.589038
0.589042
0.589045
0.589048
0.589051
0.589054
0.589057
0.589059
0.589062
0.589064
0.589066
0.589069
0.589071
0.589073
0.589075
0.589078
0.58908
0.589083
0.589085
0.589088
0.589091
0.589094
0.589098
0.589101
0.589105
0.58911
0.589114
0.589119
0.589124
0.58913
0.589135
0.589141
0.589147
0.589154
0.58916
0.589167
0.589173
0.58918
0.589187
0.589194
0.589201
0.589208
0.589215
0.589222
0.589229
0.589236
0.589243
0.58925
0.589257
0.589264
0.589271
0.589278
0.589285
0.589292
0.589298
0.589305
0.589311
0.589318
0.589324
0.589331
0.589336
0.589346
0.584155
0.584821
0.5856
0.58622
0.586711
0.587131
0.587494
0.587809
0.588078
0.588308
0.588505
0.588675
0.588819
0.588943
0.589048
0.589137
0.589212
0.589274
0.589326
0.589368
0.589401
0.589428
0.589449
0.589465
0.589476
0.589483
0.589487
0.589488
0.589487
0.589484
0.589479
0.589473
0.589466
0.589459
0.589451
0.589443
0.589435
0.589427
0.589419
0.58941
0.589402
0.589394
0.589386
0.589379
0.589371
0.589364
0.589357
0.589351
0.589344
0.589338
0.589333
0.589327
0.589322
0.589317
0.589313
0.589309
0.589305
0.589302
0.589299
0.589296
0.589294
0.589293
0.589292
0.589291
0.589291
0.589291
0.589292
0.589293
0.589295
0.589296
0.589298
0.589301
0.589304
0.589306
0.589309
0.589313
0.589316
0.58932
0.589324
0.589328
0.589332
0.589336
0.58934
0.589344
0.589349
0.589353
0.589357
0.589362
0.589366
0.589371
0.589375
0.58938
0.589384
0.589389
0.589393
0.589398
0.589401
0.589407
0.589408
0.589417
0.584804
0.585504
0.586364
0.587083
0.587641
0.588111
0.588527
0.588882
0.589191
0.589454
0.589677
0.589867
0.590027
0.590161
0.590272
0.590364
0.590438
0.590496
0.59054
0.590572
0.590592
0.590603
0.590606
0.590601
0.590588
0.590571
0.590549
0.590523
0.590493
0.590461
0.590427
0.590392
0.590356
0.590319
0.590282
0.590246
0.59021
0.590175
0.59014
0.590106
0.590074
0.590042
0.590012
0.589982
0.589954
0.589927
0.589901
0.589876
0.589853
0.58983
0.589808
0.589788
0.589769
0.58975
0.589733
0.589716
0.5897
0.589685
0.589672
0.589659
0.589647
0.589635
0.589625
0.589615
0.589607
0.589599
0.589591
0.589585
0.589578
0.589573
0.589568
0.589564
0.589559
0.589556
0.589553
0.58955
0.589547
0.589545
0.589543
0.589542
0.589541
0.58954
0.589539
0.589539
0.589538
0.589538
0.589538
0.589539
0.589539
0.58954
0.58954
0.589541
0.589542
0.589543
0.589543
0.589545
0.589545
0.589546
0.589544
0.589548
0.585818
0.586454
0.587288
0.588001
0.588569
0.589041
0.589447
0.589799
0.590099
0.590356
0.590575
0.590762
0.590921
0.591055
0.59117
0.591265
0.591345
0.591411
0.591465
0.591507
0.591539
0.591563
0.591578
0.591587
0.591589
0.591586
0.591578
0.591566
0.591549
0.591528
0.591504
0.591476
0.591445
0.591411
0.591374
0.591335
0.591294
0.59125
0.591205
0.591159
0.591111
0.591062
0.591013
0.590962
0.590912
0.590861
0.590811
0.590762
0.590712
0.590664
0.590617
0.590572
0.590528
0.590485
0.590445
0.590406
0.590369
0.590334
0.5903
0.590268
0.590238
0.59021
0.590183
0.590157
0.590133
0.59011
0.590089
0.590068
0.590049
0.590031
0.590014
0.589997
0.589982
0.589967
0.589954
0.589941
0.589928
0.589917
0.589906
0.589895
0.589885
0.589876
0.589868
0.589859
0.589852
0.589844
0.589838
0.589831
0.589825
0.58982
0.589814
0.589809
0.589804
0.589799
0.589794
0.58979
0.589784
0.58978
0.589773
0.58977
0.586481
0.586995
0.587737
0.588412
0.588974
0.589443
0.589844
0.590188
0.590485
0.590738
0.590954
0.591138
0.591296
0.591429
0.591544
0.59164
0.591723
0.591792
0.59185
0.591897
0.591936
0.591967
0.591991
0.59201
0.592023
0.592032
0.592036
0.592037
0.592035
0.59203
0.592023
0.592013
0.592001
0.591987
0.591973
0.591956
0.591938
0.591917
0.591897
0.591874
0.59185
0.591825
0.591799
0.591772
0.591744
0.591715
0.591684
0.591653
0.59162
0.591586
0.59155
0.591514
0.591477
0.591437
0.591397
0.591357
0.591315
0.591273
0.59123
0.591186
0.591143
0.5911
0.591056
0.591013
0.59097
0.590928
0.590887
0.590847
0.590807
0.590769
0.590731
0.590695
0.59066
0.590627
0.590595
0.590564
0.590535
0.590507
0.59048
0.590455
0.590431
0.590409
0.590387
0.590366
0.590347
0.590328
0.59031
0.590293
0.590277
0.590261
0.590246
0.590231
0.590217
0.590203
0.59019
0.590177
0.590163
0.590151
0.590136
0.590122
0.586634
0.587135
0.587777
0.58841
0.588973
0.589458
0.589877
0.590241
0.590556
0.590828
0.591063
0.591264
0.591437
0.591585
0.591712
0.59182
0.591913
0.59199
0.592056
0.59211
0.592156
0.592192
0.592222
0.592245
0.592262
0.592274
0.592283
0.592287
0.592288
0.592286
0.592282
0.592276
0.592268
0.592258
0.592247
0.592235
0.592222
0.592209
0.592195
0.592181
0.592166
0.59215
0.592135
0.592119
0.592103
0.592087
0.592071
0.592054
0.592037
0.592021
0.592004
0.591987
0.591969
0.591951
0.591934
0.591916
0.591897
0.591878
0.591859
0.591839
0.591818
0.591797
0.591775
0.591753
0.59173
0.591706
0.591681
0.591656
0.591629
0.591602
0.591574
0.591544
0.591515
0.591484
0.591453
0.59142
0.591388
0.591354
0.591321
0.591287
0.591253
0.591218
0.591184
0.591149
0.591116
0.591082
0.591049
0.591015
0.590984
0.590952
0.590922
0.59089
0.590862
0.590832
0.590806
0.590776
0.590752
0.590722
0.590699
0.590664
0.587025
0.587563
0.588131
0.588701
0.589225
0.589687
0.590091
0.590444
0.590751
0.591017
0.591247
0.591444
0.591614
0.591758
0.591882
0.591987
0.592076
0.59215
0.592213
0.592265
0.592307
0.592342
0.592369
0.59239
0.592406
0.592416
0.592423
0.592426
0.592426
0.592423
0.592418
0.592411
0.592403
0.592393
0.592382
0.592369
0.592357
0.592343
0.592329
0.592315
0.5923
0.592286
0.592271
0.592257
0.592242
0.592228
0.592214
0.5922
0.592186
0.592173
0.592159
0.592146
0.592134
0.592121
0.592109
0.592097
0.592085
0.592073
0.592062
0.59205
0.59204
0.592029
0.592018
0.592007
0.591997
0.591987
0.591976
0.591966
0.591956
0.591945
0.591935
0.591924
0.591914
0.591902
0.591891
0.591879
0.591868
0.591855
0.591842
0.591829
0.591815
0.5918
0.591785
0.591769
0.591753
0.591735
0.591718
0.591698
0.591679
0.591657
0.591637
0.591613
0.591592
0.591565
0.591543
0.591514
0.591491
0.591459
0.591438
0.59139
0.587294
0.587861
0.588424
0.588964
0.589455
0.589887
0.590265
0.590595
0.590883
0.591133
0.591349
0.591535
0.591694
0.591831
0.591948
0.592047
0.592132
0.592203
0.592263
0.592312
0.592353
0.592385
0.592411
0.592431
0.592446
0.592457
0.592463
0.592466
0.592466
0.592464
0.592459
0.592452
0.592444
0.592435
0.592424
0.592413
0.592401
0.592388
0.592375
0.592362
0.592348
0.592335
0.592321
0.592308
0.592294
0.592281
0.592268
0.592255
0.592242
0.59223
0.592218
0.592206
0.592194
0.592183
0.592172
0.592161
0.592151
0.592141
0.592131
0.592121
0.592112
0.592103
0.592095
0.592086
0.592078
0.59207
0.592063
0.592056
0.592048
0.592042
0.592035
0.592029
0.592022
0.592016
0.59201
0.592004
0.591999
0.591993
0.591988
0.591982
0.591977
0.591971
0.591966
0.591961
0.591955
0.591949
0.591944
0.591938
0.591932
0.591925
0.591919
0.591912
0.591905
0.591897
0.591889
0.59188
0.591871
0.59186
0.59185
0.591835
0.58753
0.58806
0.588593
0.589094
0.589547
0.58995
0.590306
0.590622
0.590899
0.591142
0.591353
0.591537
0.591695
0.591832
0.591949
0.59205
0.592135
0.592208
0.592269
0.59232
0.592363
0.592397
0.592425
0.592447
0.592464
0.592476
0.592484
0.592489
0.592491
0.59249
0.592487
0.592482
0.592475
0.592467
0.592458
0.592448
0.592437
0.592425
0.592413
0.592401
0.592389
0.592376
0.592363
0.592351
0.592338
0.592325
0.592313
0.592301
0.592289
0.592277
0.592266
0.592255
0.592244
0.592233
0.592223
0.592212
0.592203
0.592193
0.592184
0.592174
0.592166
0.592157
0.592149
0.592141
0.592134
0.592126
0.592119
0.592112
0.592106
0.592099
0.592093
0.592087
0.592082
0.592076
0.592071
0.592065
0.59206
0.592055
0.592051
0.592046
0.592042
0.592037
0.592034
0.592029
0.592025
0.592021
0.592018
0.592013
0.59201
0.592006
0.592002
0.591998
0.591994
0.59199
0.591986
0.591981
0.591976
0.591971
0.591966
0.591961
0.58778
0.588271
0.588781
0.589254
0.589678
0.590057
0.590395
0.590695
0.590961
0.591193
0.591397
0.591574
0.591727
0.59186
0.591974
0.592072
0.592156
0.592227
0.592287
0.592337
0.592379
0.592414
0.592441
0.592463
0.59248
0.592493
0.592501
0.592506
0.592508
0.592508
0.592506
0.592501
0.592495
0.592488
0.592479
0.59247
0.59246
0.592449
0.592437
0.592426
0.592414
0.592402
0.59239
0.592378
0.592366
0.592354
0.592343
0.592331
0.59232
0.592309
0.592298
0.592287
0.592277
0.592267
0.592257
0.592247
0.592238
0.592229
0.59222
0.592211
0.592203
0.592195
0.592187
0.59218
0.592173
0.592166
0.592159
0.592152
0.592146
0.59214
0.592134
0.592129
0.592123
0.592118
0.592113
0.592108
0.592103
0.592099
0.592094
0.59209
0.592086
0.592082
0.592078
0.592074
0.592071
0.592067
0.592064
0.59206
0.592056
0.592053
0.592049
0.592046
0.592042
0.592038
0.592035
0.592031
0.592026
0.592022
0.592018
0.592014
0.588044
0.588493
0.588972
0.589414
0.589807
0.590159
0.590475
0.590757
0.591008
0.591229
0.591424
0.591594
0.591742
0.59187
0.591981
0.592077
0.592159
0.592229
0.592289
0.592339
0.59238
0.592415
0.592443
0.592465
0.592482
0.592495
0.592505
0.592511
0.592514
0.592514
0.592513
0.592509
0.592504
0.592498
0.59249
0.592482
0.592473
0.592463
0.592452
0.592442
0.592431
0.59242
0.592408
0.592397
0.592386
0.592375
0.592364
0.592353
0.592343
0.592332
0.592322
0.592312
0.592302
0.592293
0.592283
0.592274
0.592265
0.592257
0.592248
0.59224
0.592233
0.592225
0.592218
0.592211
0.592204
0.592197
0.592191
0.592185
0.592179
0.592173
0.592168
0.592162
0.592157
0.592152
0.592147
0.592143
0.592138
0.592134
0.59213
0.592126
0.592122
0.592118
0.592114
0.592111
0.592107
0.592104
0.5921
0.592097
0.592094
0.59209
0.592087
0.592083
0.59208
0.592076
0.592073
0.592069
0.592065
0.592062
0.592058
0.592054
0.588321
0.588725
0.58917
0.58958
0.589944
0.59027
0.590565
0.59083
0.591066
0.591276
0.591461
0.591623
0.591765
0.591888
0.591995
0.592088
0.592167
0.592235
0.592293
0.592342
0.592383
0.592417
0.592444
0.592467
0.592484
0.592497
0.592507
0.592513
0.592517
0.592518
0.592517
0.592514
0.592509
0.592504
0.592497
0.592489
0.592481
0.592472
0.592462
0.592452
0.592442
0.592431
0.592421
0.59241
0.5924
0.59239
0.592379
0.592369
0.592359
0.592349
0.59234
0.59233
0.592321
0.592312
0.592303
0.592295
0.592287
0.592278
0.592271
0.592263
0.592256
0.592248
0.592242
0.592235
0.592228
0.592222
0.592216
0.59221
0.592205
0.592199
0.592194
0.592189
0.592184
0.59218
0.592175
0.592171
0.592167
0.592163
0.592159
0.592155
0.592151
0.592147
0.592144
0.592141
0.592137
0.592134
0.592131
0.592127
0.592124
0.592121
0.592118
0.592115
0.592111
0.592108
0.592105
0.592101
0.592098
0.592094
0.592091
0.592087
0.588607
0.588968
0.589375
0.589753
0.590087
0.590388
0.59066
0.590907
0.591128
0.591325
0.591499
0.591652
0.591787
0.591904
0.592006
0.592095
0.592171
0.592237
0.592293
0.59234
0.59238
0.592413
0.59244
0.592462
0.592479
0.592493
0.592502
0.592509
0.592513
0.592515
0.592514
0.592512
0.592508
0.592503
0.592497
0.59249
0.592483
0.592474
0.592466
0.592457
0.592447
0.592438
0.592428
0.592418
0.592408
0.592399
0.592389
0.59238
0.59237
0.592361
0.592352
0.592343
0.592335
0.592326
0.592318
0.59231
0.592302
0.592295
0.592287
0.59228
0.592273
0.592267
0.59226
0.592254
0.592248
0.592242
0.592236
0.592231
0.592226
0.592221
0.592216
0.592211
0.592206
0.592202
0.592198
0.592194
0.59219
0.592186
0.592182
0.592179
0.592175
0.592172
0.592168
0.592165
0.592162
0.592159
0.592156
0.592153
0.59215
0.592147
0.592144
0.592141
0.592138
0.592135
0.592131
0.592128
0.592125
0.592122
0.592118
0.592115
0.588898
0.589217
0.589586
0.589931
0.590236
0.590511
0.590762
0.59099
0.591195
0.591378
0.591541
0.591685
0.591812
0.591923
0.59202
0.592104
0.592176
0.592239
0.592292
0.592338
0.592376
0.592408
0.592434
0.592456
0.592473
0.592486
0.592495
0.592502
0.592506
0.592508
0.592508
0.592507
0.592503
0.592499
0.592494
0.592487
0.59248
0.592473
0.592465
0.592456
0.592448
0.592439
0.59243
0.592421
0.592412
0.592403
0.592394
0.592385
0.592376
0.592368
0.592359
0.592351
0.592343
0.592335
0.592328
0.59232
0.592313
0.592306
0.592299
0.592292
0.592286
0.59228
0.592274
0.592268
0.592262
0.592257
0.592251
0.592246
0.592241
0.592237
0.592232
0.592228
0.592223
0.592219
0.592215
0.592211
0.592208
0.592204
0.592201
0.592197
0.592194
0.592191
0.592188
0.592185
0.592182
0.592179
0.592176
0.592173
0.59217
0.592167
0.592165
0.592162
0.592159
0.592156
0.592153
0.59215
0.592147
0.592144
0.592141
0.592138
0.58919
0.58947
0.589802
0.590113
0.59039
0.59064
0.590868
0.591077
0.591266
0.591435
0.591586
0.59172
0.591838
0.591942
0.592032
0.592111
0.59218
0.592239
0.59229
0.592333
0.592369
0.5924
0.592425
0.592445
0.592462
0.592474
0.592484
0.592491
0.592495
0.592497
0.592497
0.592496
0.592493
0.59249
0.592485
0.592479
0.592473
0.592466
0.592459
0.592451
0.592443
0.592435
0.592427
0.592418
0.59241
0.592402
0.592393
0.592385
0.592377
0.592369
0.592362
0.592354
0.592347
0.592339
0.592332
0.592325
0.592319
0.592312
0.592306
0.5923
0.592294
0.592288
0.592282
0.592277
0.592272
0.592267
0.592262
0.592257
0.592252
0.592248
0.592244
0.59224
0.592236
0.592232
0.592228
0.592225
0.592221
0.592218
0.592214
0.592211
0.592208
0.592205
0.592202
0.5922
0.592197
0.592194
0.592192
0.592189
0.592186
0.592184
0.592181
0.592178
0.592176
0.592173
0.59217
0.592167
0.592165
0.592162
0.592159
0.592156
0.589482
0.589724
0.590018
0.590297
0.590546
0.590771
0.590978
0.591167
0.59134
0.591494
0.591633
0.591756
0.591865
0.591961
0.592045
0.592119
0.592183
0.592238
0.592285
0.592326
0.59236
0.592389
0.592413
0.592432
0.592448
0.59246
0.592469
0.592475
0.59248
0.592482
0.592483
0.592482
0.592479
0.592476
0.592472
0.592467
0.592461
0.592455
0.592448
0.592441
0.592434
0.592427
0.592419
0.592411
0.592404
0.592396
0.592389
0.592381
0.592374
0.592367
0.59236
0.592353
0.592346
0.592339
0.592333
0.592326
0.59232
0.592314
0.592308
0.592303
0.592297
0.592292
0.592287
0.592282
0.592277
0.592272
0.592268
0.592263
0.592259
0.592255
0.592251
0.592247
0.592244
0.59224
0.592237
0.592233
0.59223
0.592227
0.592224
0.592221
0.592218
0.592216
0.592213
0.59221
0.592208
0.592205
0.592203
0.592201
0.592198
0.592196
0.592193
0.592191
0.592188
0.592186
0.592183
0.592181
0.592178
0.592176
0.592173
0.592171
0.589769
0.589977
0.590235
0.590482
0.590703
0.590904
0.591089
0.59126
0.591415
0.591555
0.591681
0.591793
0.591893
0.591981
0.592058
0.592126
0.592185
0.592236
0.592279
0.592317
0.592349
0.592375
0.592397
0.592415
0.59243
0.592442
0.59245
0.592457
0.592461
0.592463
0.592464
0.592463
0.592462
0.592459
0.592455
0.592451
0.592445
0.59244
0.592434
0.592428
0.592421
0.592414
0.592408
0.592401
0.592394
0.592387
0.59238
0.592373
0.592367
0.59236
0.592354
0.592347
0.592341
0.592335
0.592329
0.592323
0.592318
0.592312
0.592307
0.592302
0.592297
0.592292
0.592287
0.592283
0.592278
0.592274
0.59227
0.592266
0.592262
0.592258
0.592255
0.592251
0.592248
0.592245
0.592242
0.592239
0.592236
0.592233
0.59223
0.592228
0.592225
0.592223
0.59222
0.592218
0.592216
0.592213
0.592211
0.592209
0.592207
0.592204
0.592202
0.5922
0.592198
0.592195
0.592193
0.592191
0.592189
0.592186
0.592184
0.592182
0.59005
0.590227
0.590451
0.590667
0.590861
0.591038
0.591203
0.591354
0.591493
0.591618
0.591731
0.591832
0.591922
0.592001
0.592071
0.592132
0.592186
0.592232
0.592272
0.592306
0.592335
0.59236
0.59238
0.592397
0.592411
0.592421
0.592429
0.592435
0.59244
0.592442
0.592443
0.592442
0.592441
0.592438
0.592435
0.592431
0.592427
0.592422
0.592416
0.592411
0.592405
0.592399
0.592393
0.592387
0.592381
0.592374
0.592368
0.592362
0.592356
0.59235
0.592344
0.592339
0.592333
0.592328
0.592322
0.592317
0.592312
0.592307
0.592303
0.592298
0.592293
0.592289
0.592285
0.592281
0.592277
0.592273
0.592269
0.592266
0.592262
0.592259
0.592256
0.592253
0.59225
0.592247
0.592244
0.592241
0.592239
0.592236
0.592234
0.592231
0.592229
0.592227
0.592225
0.592222
0.59222
0.592218
0.592216
0.592214
0.592212
0.59221
0.592208
0.592206
0.592204
0.592202
0.5922
0.592198
0.592196
0.592194
0.592192
0.59219
0.590326
0.590474
0.590666
0.590852
0.59102
0.591174
0.591318
0.59145
0.591572
0.591683
0.591782
0.591872
0.591951
0.592022
0.592084
0.592139
0.592187
0.592228
0.592264
0.592295
0.592321
0.592343
0.592362
0.592377
0.592389
0.592399
0.592406
0.592412
0.592416
0.592418
0.592419
0.592419
0.592417
0.592415
0.592412
0.592409
0.592405
0.592401
0.592396
0.592391
0.592386
0.592381
0.592375
0.59237
0.592365
0.592359
0.592354
0.592348
0.592343
0.592338
0.592333
0.592328
0.592323
0.592318
0.592313
0.592309
0.592304
0.5923
0.592296
0.592292
0.592288
0.592284
0.59228
0.592276
0.592273
0.592269
0.592266
0.592263
0.59226
0.592257
0.592254
0.592251
0.592249
0.592246
0.592244
0.592241
0.592239
0.592237
0.592235
0.592233
0.59223
0.592229
0.592227
0.592225
0.592223
0.592221
0.592219
0.592217
0.592216
0.592214
0.592212
0.59221
0.592209
0.592207
0.592205
0.592203
0.592201
0.5922
0.592198
0.592196
0.590594
0.590717
0.590878
0.591036
0.591179
0.591311
0.591434
0.591548
0.591653
0.591748
0.591835
0.591913
0.591982
0.592044
0.592098
0.592146
0.592188
0.592224
0.592256
0.592283
0.592306
0.592326
0.592342
0.592355
0.592366
0.592375
0.592382
0.592387
0.59239
0.592392
0.592393
0.592393
0.592392
0.59239
0.592388
0.592385
0.592382
0.592378
0.592374
0.59237
0.592365
0.592361
0.592356
0.592351
0.592347
0.592342
0.592337
0.592333
0.592328
0.592324
0.592319
0.592315
0.592311
0.592306
0.592302
0.592298
0.592294
0.592291
0.592287
0.592283
0.59228
0.592277
0.592273
0.59227
0.592267
0.592264
0.592262
0.592259
0.592256
0.592254
0.592251
0.592249
0.592247
0.592244
0.592242
0.59224
0.592238
0.592236
0.592234
0.592232
0.592231
0.592229
0.592227
0.592226
0.592224
0.592222
0.592221
0.592219
0.592218
0.592216
0.592215
0.592213
0.592212
0.59221
0.592209
0.592207
0.592206
0.592204
0.592202
0.592201
0.590857
0.590956
0.591088
0.591219
0.591338
0.591448
0.591551
0.591647
0.591735
0.591816
0.591889
0.591955
0.592014
0.592066
0.592113
0.592154
0.592189
0.592221
0.592247
0.592271
0.59229
0.592307
0.592321
0.592333
0.592342
0.59235
0.592356
0.59236
0.592363
0.592365
0.592366
0.592366
0.592365
0.592364
0.592362
0.59236
0.592357
0.592354
0.592351
0.592347
0.592343
0.59234
0.592336
0.592332
0.592328
0.592324
0.59232
0.592316
0.592312
0.592308
0.592305
0.592301
0.592297
0.592294
0.59229
0.592287
0.592284
0.592281
0.592278
0.592275
0.592272
0.592269
0.592266
0.592264
0.592261
0.592259
0.592256
0.592254
0.592252
0.59225
0.592248
0.592246
0.592244
0.592242
0.59224
0.592238
0.592236
0.592235
0.592233
0.592232
0.59223
0.592229
0.592227
0.592226
0.592225
0.592223
0.592222
0.592221
0.59222
0.592218
0.592217
0.592216
0.592214
0.592213
0.592212
0.592211
0.592209
0.592208
0.592206
0.592205
0.591113
0.59119
0.591295
0.5914
0.591496
0.591585
0.591668
0.591746
0.591818
0.591884
0.591944
0.591998
0.592046
0.592089
0.592127
0.592161
0.592191
0.592217
0.592239
0.592258
0.592275
0.592289
0.5923
0.59231
0.592318
0.592325
0.59233
0.592333
0.592336
0.592338
0.592339
0.592339
0.592338
0.592338
0.592336
0.592334
0.592332
0.59233
0.592327
0.592324
0.592321
0.592318
0.592315
0.592312
0.592309
0.592306
0.592303
0.592299
0.592296
0.592293
0.59229
0.592287
0.592284
0.592282
0.592279
0.592276
0.592274
0.592271
0.592269
0.592266
0.592264
0.592262
0.592259
0.592257
0.592255
0.592253
0.592251
0.592249
0.592248
0.592246
0.592244
0.592243
0.592241
0.592239
0.592238
0.592237
0.592235
0.592234
0.592233
0.592231
0.59223
0.592229
0.592228
0.592227
0.592226
0.592225
0.592224
0.592222
0.592221
0.59222
0.592219
0.592218
0.592217
0.592216
0.592215
0.592214
0.592213
0.592212
0.592211
0.59221
0.591364
0.591422
0.591502
0.591581
0.591655
0.591723
0.591788
0.591848
0.591904
0.591955
0.592001
0.592043
0.592081
0.592114
0.592144
0.592171
0.592194
0.592214
0.592232
0.592247
0.59226
0.592271
0.592281
0.592289
0.592295
0.592301
0.592305
0.592308
0.59231
0.592312
0.592313
0.592313
0.592313
0.592312
0.592311
0.59231
0.592309
0.592307
0.592305
0.592303
0.592301
0.592298
0.592296
0.592294
0.592291
0.592289
0.592286
0.592284
0.592282
0.592279
0.592277
0.592275
0.592273
0.59227
0.592268
0.592266
0.592264
0.592262
0.59226
0.592258
0.592257
0.592255
0.592253
0.592251
0.59225
0.592248
0.592247
0.592245
0.592244
0.592243
0.592241
0.59224
0.592239
0.592238
0.592236
0.592235
0.592234
0.592233
0.592232
0.592231
0.59223
0.592229
0.592228
0.592228
0.592227
0.592226
0.592225
0.592224
0.592223
0.592222
0.592222
0.592221
0.59222
0.592219
0.592218
0.592218
0.592217
0.592216
0.592215
0.592214
0.591609
0.591649
0.591704
0.59176
0.591812
0.59186
0.591906
0.591949
0.591988
0.592025
0.592058
0.592088
0.592116
0.592141
0.592162
0.592182
0.592199
0.592214
0.592227
0.592239
0.592248
0.592257
0.592264
0.59227
0.592275
0.592279
0.592282
0.592285
0.592287
0.592288
0.592289
0.59229
0.59229
0.592289
0.592289
0.592288
0.592287
0.592286
0.592284
0.592283
0.592281
0.59228
0.592278
0.592276
0.592274
0.592273
0.592271
0.592269
0.592267
0.592266
0.592264
0.592262
0.592261
0.592259
0.592258
0.592256
0.592254
0.592253
0.592252
0.59225
0.592249
0.592248
0.592246
0.592245
0.592244
0.592243
0.592242
0.59224
0.592239
0.592238
0.592237
0.592236
0.592235
0.592234
0.592234
0.592233
0.592232
0.592231
0.59223
0.59223
0.592229
0.592228
0.592227
0.592227
0.592226
0.592225
0.592225
0.592224
0.592224
0.592223
0.592222
0.592222
0.592221
0.59222
0.59222
0.592219
0.592219
0.592218
0.592217
0.592217
0.591849
0.591872
0.591905
0.591938
0.59197
0.591999
0.592027
0.592053
0.592078
0.592101
0.592123
0.592142
0.592159
0.592174
0.592188
0.592201
0.592212
0.592221
0.59223
0.592237
0.592243
0.592248
0.592253
0.592256
0.592259
0.592262
0.592264
0.592265
0.592266
0.592267
0.592267
0.592267
0.592267
0.592267
0.592266
0.592265
0.592264
0.592263
0.592262
0.592261
0.59226
0.592259
0.592257
0.592256
0.592255
0.592254
0.592252
0.592251
0.59225
0.592249
0.592247
0.592246
0.592245
0.592244
0.592243
0.592242
0.592241
0.59224
0.592239
0.592238
0.592237
0.592236
0.592235
0.592234
0.592234
0.592233
0.592232
0.592231
0.592231
0.59223
0.592229
0.592229
0.592228
0.592228
0.592227
0.592226
0.592226
0.592225
0.592225
0.592224
0.592224
0.592223
0.592223
0.592223
0.592222
0.592222
0.592221
0.592221
0.59222
0.59222
0.59222
0.592219
0.592219
0.592219
0.592218
0.592218
0.592217
0.592217
0.592217
0.592216
0.592098
0.592106
0.592118
0.59213
0.592142
0.592153
0.592164
0.592174
0.592183
0.592191
0.592199
0.592205
0.592211
0.592216
0.592221
0.592225
0.592228
0.59223
0.592233
0.592234
0.592236
0.592237
0.592238
0.592238
0.592239
0.592239
0.592239
0.592238
0.592238
0.592238
0.592237
0.592237
0.592236
0.592236
0.592235
0.592234
0.592234
0.592233
0.592232
0.592232
0.592231
0.59223
0.59223
0.592229
0.592228
0.592228
0.592227
0.592227
0.592226
0.592226
0.592225
0.592225
0.592224
0.592224
0.592223
0.592223
0.592222
0.592222
0.592222
0.592221
0.592221
0.592221
0.59222
0.59222
0.59222
0.592219
0.592219
0.592219
0.592219
0.592219
0.592218
0.592218
0.592218
0.592218
0.592218
0.592217
0.592217
0.592217
0.592217
0.592217
0.592217
0.592216
0.592216
0.592216
0.592216
0.592216
0.592216
0.592216
0.592216
0.592216
0.592216
0.592215
0.592215
0.592215
0.592215
0.592215
0.592215
0.592215
0.592215
0.592215
0.584212
0.584211
0.584363
0.584625
0.585011
0.585373
0.585845
0.586178
0.58652
0.586533
0.585041
0.585008
0.585098
0.585274
0.58556
0.585832
0.586199
0.586482
0.586767
0.586841
0.585812
0.585747
0.585782
0.585889
0.586088
0.586285
0.586557
0.586791
0.587027
0.587138
0.586483
0.586406
0.58641
0.586475
0.586611
0.586765
0.58695
0.587151
0.587339
0.58745
0.587086
0.587001
0.586984
0.587024
0.587106
0.587229
0.587361
0.587516
0.587669
0.587772
0.587624
0.587538
0.587508
0.587525
0.587577
0.587666
0.587767
0.587883
0.588007
0.588096
0.588111
0.588025
0.587987
0.587988
0.588021
0.588082
0.588159
0.588248
0.588347
0.588424
0.588553
0.588471
0.588428
0.588419
0.588438
0.588479
0.588537
0.588606
0.588685
0.58875
0.588958
0.58888
0.588836
0.58882
0.588829
0.588857
0.5889
0.588954
0.589017
0.589073
0.58933
0.589258
0.589214
0.589195
0.589196