/*--------------------------------*- C++ -*----------------------------------*\
  =========                 |
  \\      /  F ield         | OpenFOAM: The Open Source CFD Toolbox
   \\    /   O peration     | Website:  https://openfoam.org
    \\  /    A nd           | Version:  8
     \\/     M anipulation  |
\*---------------------------------------------------------------------------*/
FoamFile
{
    version     2.0;
    format      ascii;
    class       volScalarField;
    location    "1.499985";
    object      T;
}
// * * * * * * * * * * * * * * * * * * * * * * * * * * * * * * * * * * * * * //

dimensions      [0 0 0 1 0 0 0];

internalField   nonuniform List<scalar> 
6800
(
375.114
375.387
375.087
374.314
373.556
373.162
372.905
372.795
372.708
372.607
375.364
375.221
374.351
373.443
373.004
372.734
372.558
372.462
372.368
372.358
375.173
374.535
373.37
372.826
372.467
372.281
372.19
372.183
372.204
372.243
374.577
373.5
372.687
372.175
371.979
371.945
371.961
372.004
372.039
372.059
373.777
372.536
371.801
371.588
371.577
371.624
371.695
371.764
371.834
371.929
372.768
371.404
371.149
371.085
371.181
371.327
371.47
371.599
371.716
371.817
371.711
370.481
370.436
370.569
370.842
371.066
371.254
371.409
371.542
371.672
370.636
369.55
369.865
370.219
370.552
370.83
371.07
371.269
371.442
371.591
369.661
368.865
369.389
369.84
370.291
370.643
370.923
371.149
371.338
371.505
368.805
368.27
369.047
369.63
370.13
370.516
370.828
371.076
371.281
371.464
376.115
376.071
376.042
376.017
376
375.998
376.013
376.038
376.073
376.114
376.174
376.081
376.032
376.001
375.979
375.971
375.979
376.006
376.05
376.096
376
376.01
375.99
375.958
375.929
375.916
375.922
375.947
375.988
376.052
375.872
375.969
375.946
375.906
375.86
375.832
375.827
375.845
375.876
375.963
375.851
375.918
375.897
375.831
375.75
375.705
375.7
375.711
375.711
375.783
375.847
375.91
375.84
375.698
375.599
375.567
375.555
375.532
375.479
375.45
375.886
375.854
375.736
375.538
375.497
375.463
375.392
375.238
375.096
374.801
375.878
375.834
375.527
375.484
375.426
375.28
374.996
374.636
374.326
373.9
375.799
375.679
375.456
375.387
375.168
374.71
374.188
373.787
373.422
373.232
375.536
375.445
375.379
375.074
374.46
373.821
373.392
373.108
372.989
372.918
376.168
376.226
376.266
376.293
376.311
376.32
376.322
376.32
376.314
376.303
376.29
376.274
376.255
376.234
376.212
376.188
376.164
376.138
376.113
376.087
376.062
376.036
376.011
375.987
375.963
375.939
375.915
375.892
375.868
375.845
375.822
375.799
375.776
375.752
375.729
375.706
375.683
375.66
375.637
375.614
375.592
375.569
375.547
375.525
375.504
375.483
375.462
375.442
375.423
375.404
375.386
375.368
375.351
375.334
375.318
375.303
375.287
375.272
375.258
375.244
375.23
375.216
375.203
375.19
375.177
375.164
375.151
375.139
375.126
375.114
375.102
375.09
375.078
375.066
375.055
375.043
375.032
375.021
375.01
374.999
374.989
374.978
374.968
374.958
374.948
374.938
374.928
374.918
374.909
374.899
374.89
374.881
374.872
374.863
374.854
374.846
374.837
374.83
374.821
374.813
376.155
376.218
376.265
376.298
376.32
376.333
376.337
376.336
376.331
376.321
376.307
376.291
376.272
376.251
376.228
376.203
376.178
376.153
376.127
376.101
376.075
376.049
376.023
375.998
375.973
375.948
375.924
375.9
375.876
375.852
375.828
375.804
375.781
375.757
375.733
375.71
375.686
375.663
375.64
375.617
375.594
375.571
375.549
375.527
375.506
375.485
375.464
375.444
375.425
375.406
375.388
375.37
375.353
375.336
375.32
375.305
375.289
375.275
375.26
375.246
375.232
375.218
375.205
375.191
375.178
375.165
375.153
375.14
375.128
375.115
375.103
375.091
375.079
375.068
375.056
375.045
375.034
375.023
375.012
375.001
374.99
374.98
374.969
374.959
374.949
374.939
374.93
374.92
374.91
374.901
374.892
374.883
374.874
374.865
374.856
374.848
374.839
374.832
374.823
374.814
376.116
376.194
376.254
376.297
376.326
376.343
376.35
376.35
376.346
376.336
376.322
376.305
376.285
376.263
376.239
376.214
376.188
376.161
376.135
376.108
376.081
376.054
376.028
376.002
375.976
375.95
375.925
375.9
375.875
375.85
375.825
375.8
375.776
375.751
375.727
375.703
375.679
375.656
375.632
375.609
375.586
375.564
375.542
375.52
375.499
375.478
375.458
375.438
375.419
375.401
375.383
375.365
375.348
375.332
375.316
375.301
375.285
375.271
375.256
375.242
375.228
375.215
375.201
375.188
375.175
375.162
375.15
375.137
375.125
375.113
375.101
375.089
375.077
375.065
375.054
375.043
375.032
375.021
375.01
374.999
374.989
374.979
374.968
374.958
374.948
374.939
374.929
374.92
374.91
374.901
374.892
374.883
374.874
374.866
374.857
374.849
374.84
374.832
374.824
374.815
376.034
376.133
376.207
376.26
376.295
376.316
376.324
376.323
376.319
376.309
376.293
376.275
376.253
376.229
376.204
376.178
376.151
376.123
376.095
376.068
376.04
376.013
375.986
375.959
375.932
375.906
375.88
375.854
375.829
375.804
375.779
375.755
375.73
375.706
375.682
375.659
375.635
375.612
375.59
375.568
375.546
375.524
375.503
375.483
375.462
375.443
375.424
375.405
375.387
375.37
375.353
375.336
375.32
375.304
375.289
375.274
375.26
375.246
375.232
375.219
375.205
375.192
375.18
375.167
375.155
375.142
375.13
375.118
375.106
375.095
375.083
375.072
375.061
375.05
375.039
375.028
375.017
375.007
374.997
374.986
374.976
374.966
374.957
374.947
374.938
374.928
374.919
374.91
374.901
374.892
374.883
374.875
374.866
374.858
374.85
374.842
374.834
374.826
374.818
374.809
375.841
375.949
376.031
376.084
376.117
376.135
376.143
376.142
376.137
376.126
376.11
376.092
376.071
376.049
376.025
376.001
375.976
375.95
375.925
375.9
375.874
375.849
375.825
375.801
375.777
375.753
375.73
375.707
375.684
375.662
375.64
375.618
375.596
375.575
375.554
375.534
375.514
375.494
375.474
375.455
375.437
375.418
375.4
375.383
375.365
375.349
375.332
375.317
375.301
375.286
375.272
375.257
375.244
375.23
375.217
375.204
375.192
375.18
375.168
375.156
375.144
375.133
375.122
375.111
375.1
375.089
375.078
375.067
375.057
375.047
375.036
375.026
375.016
375.006
374.996
374.987
374.977
374.968
374.959
374.95
374.941
374.932
374.923
374.914
374.906
374.897
374.889
374.881
374.873
374.865
374.857
374.849
374.841
374.834
374.826
374.818
374.811
374.803
374.797
374.787
375.451
375.524
375.578
375.608
375.618
375.621
375.62
375.614
375.605
375.594
375.581
375.567
375.553
375.538
375.524
375.509
375.495
375.482
375.468
375.455
375.443
375.43
375.418
375.406
375.394
375.382
375.37
375.358
375.347
375.335
375.324
375.312
375.3
375.289
375.277
375.265
375.254
375.242
375.231
375.219
375.208
375.197
375.186
375.175
375.165
375.154
375.144
375.134
375.124
375.115
375.105
375.096
375.087
375.078
375.069
375.061
375.052
375.044
375.036
375.028
375.02
375.012
375.004
374.996
374.988
374.98
374.972
374.964
374.956
374.948
374.941
374.933
374.925
374.918
374.91
374.903
374.896
374.888
374.881
374.874
374.867
374.86
374.853
374.846
374.839
374.833
374.826
374.819
374.813
374.806
374.8
374.793
374.787
374.78
374.774
374.768
374.762
374.755
374.75
374.741
374.754
374.791
374.826
374.831
374.829
374.82
374.805
374.793
374.776
374.759
374.744
374.729
374.715
374.703
374.693
374.684
374.677
374.671
374.668
374.666
374.665
374.666
374.668
374.672
374.677
374.683
374.689
374.696
374.704
374.712
374.72
374.728
374.736
374.743
374.75
374.757
374.764
374.769
374.775
374.779
374.784
374.788
374.791
374.794
374.796
374.799
374.8
374.802
374.803
374.804
374.804
374.805
374.804
374.804
374.803
374.803
374.802
374.801
374.8
374.799
374.797
374.795
374.793
374.791
374.788
374.786
374.783
374.78
374.777
374.774
374.771
374.767
374.764
374.761
374.757
374.754
374.75
374.747
374.743
374.739
374.735
374.732
374.728
374.724
374.72
374.716
374.712
374.708
374.704
374.7
374.696
374.692
374.688
374.684
374.68
374.675
374.671
374.666
374.663
374.655
373.866
373.917
373.97
374.007
374.028
374.042
374.053
374.059
374.064
374.065
374.065
374.063
374.06
374.057
374.052
374.048
374.043
374.039
374.034
374.03
374.027
374.024
374.021
374.019
374.018
374.018
374.018
374.019
374.02
374.023
374.027
374.032
374.039
374.046
374.055
374.065
374.075
374.087
374.1
374.114
374.129
374.144
374.16
374.177
374.194
374.211
374.228
374.246
374.263
374.28
374.296
374.313
374.328
374.343
374.357
374.37
374.383
374.395
374.406
374.416
374.426
374.435
374.443
374.451
374.458
374.464
374.47
374.476
374.481
374.486
374.491
374.495
374.499
374.502
374.505
374.508
374.511
374.513
374.515
374.517
374.519
374.52
374.522
374.523
374.524
374.524
374.525
374.525
374.525
374.525
374.525
374.524
374.524
374.523
374.523
374.522
374.521
374.519
374.518
374.515
373.234
373.329
373.413
373.486
373.543
373.588
373.625
373.656
373.68
373.7
373.715
373.727
373.735
373.742
373.745
373.747
373.747
373.745
373.743
373.74
373.736
373.731
373.726
373.721
373.715
373.71
373.704
373.698
373.693
373.687
373.682
373.677
373.672
373.668
373.664
373.661
373.658
373.656
373.655
373.655
373.655
373.656
373.658
373.661
373.664
373.669
373.675
373.681
373.689
373.698
373.708
373.719
373.73
373.744
373.758
373.773
373.789
373.805
373.823
373.84
373.859
373.877
373.896
373.915
373.934
373.952
373.971
373.989
374.007
374.025
374.042
374.058
374.074
374.09
374.104
374.118
374.131
374.144
374.156
374.167
374.177
374.187
374.197
374.205
374.214
374.221
374.229
374.236
374.242
374.249
374.255
374.26
374.265
374.27
374.275
374.279
374.284
374.286
374.291
374.293
372.947
373.016
373.102
373.181
373.25
373.308
373.357
373.398
373.432
373.46
373.483
373.501
373.515
373.526
373.534
373.539
373.542
373.544
373.544
373.543
373.54
373.538
373.535
373.531
373.526
373.521
373.516
373.511
373.506
373.501
373.496
373.49
373.485
373.48
373.475
373.47
373.465
373.46
373.455
373.45
373.446
373.442
373.438
373.434
373.431
373.428
373.425
373.423
373.421
373.419
373.418
373.417
373.417
373.417
373.418
373.419
373.42
373.423
373.426
373.429
373.433
373.438
373.444
373.45
373.457
373.465
373.473
373.483
373.493
373.504
373.515
373.528
373.54
373.554
373.568
373.584
373.599
373.615
373.632
373.649
373.665
373.683
373.7
373.718
373.735
373.752
373.769
373.786
373.802
373.819
373.834
373.85
373.864
373.879
373.891
373.906
373.917
373.931
373.939
373.954
372.609
372.71
372.811
372.906
372.99
373.062
373.123
373.175
373.218
373.255
373.286
373.312
373.333
373.35
373.364
373.376
373.385
373.392
373.397
373.4
373.402
373.403
373.404
373.403
373.402
373.4
373.397
373.395
373.392
373.388
373.385
373.381
373.377
373.373
373.369
373.365
373.361
373.357
373.353
373.349
373.345
373.342
373.338
373.334
373.33
373.327
373.323
373.32
373.317
373.313
373.31
373.308
373.305
373.302
373.3
373.298
373.296
373.294
373.292
373.29
373.289
373.288
373.286
373.286
373.285
373.284
373.284
373.284
373.284
373.285
373.286
373.287
373.288
373.29
373.292
373.294
373.297
373.301
373.304
373.308
373.313
373.318
373.323
373.33
373.336
373.344
373.351
373.36
373.368
373.378
373.387
373.399
373.409
373.422
373.432
373.446
373.457
373.472
373.48
373.503
372.547
372.646
372.741
372.83
372.908
372.976
373.035
373.086
373.13
373.168
373.2
373.228
373.251
373.271
373.287
373.3
373.311
373.32
373.327
373.332
373.336
373.338
373.34
373.341
373.34
373.339
373.338
373.336
373.334
373.331
373.329
373.326
373.322
373.319
373.316
373.312
373.309
373.305
373.301
373.298
373.294
373.29
373.287
373.283
373.28
373.276
373.273
373.269
373.266
373.263
373.26
373.257
373.254
373.251
373.248
373.246
373.243
373.241
373.239
373.237
373.234
373.233
373.231
373.229
373.227
373.225
373.224
373.222
373.221
373.219
373.218
373.217
373.216
373.215
373.213
373.213
373.212
373.211
373.21
373.21
373.209
373.209
373.208
373.208
373.208
373.208
373.208
373.209
373.209
373.21
373.21
373.212
373.213
373.214
373.216
373.218
373.22
373.222
373.224
373.229
372.515
372.611
372.703
372.787
372.861
372.927
372.985
373.035
373.079
373.117
373.149
373.177
373.2
373.22
373.237
373.25
373.261
373.27
373.277
373.283
373.287
373.29
373.291
373.292
373.292
373.292
373.29
373.289
373.287
373.285
373.282
373.279
373.276
373.273
373.27
373.267
373.263
373.26
373.256
373.253
373.25
373.246
373.243
373.239
373.236
373.233
373.23
373.227
373.223
373.22
373.217
373.215
373.212
373.209
373.207
373.204
373.202
373.2
373.197
373.195
373.193
373.191
373.189
373.188
373.186
373.184
373.182
373.181
373.179
373.178
373.177
373.175
373.174
373.173
373.172
373.171
373.169
373.169
373.167
373.167
373.165
373.165
373.164
373.163
373.162
373.161
373.16
373.16
373.159
373.158
373.157
373.157
373.156
373.155
373.155
373.154
373.153
373.153
373.152
373.152
372.5
372.591
372.678
372.757
372.828
372.89
372.945
372.993
373.035
373.072
373.103
373.13
373.153
373.173
373.189
373.203
373.215
373.224
373.231
373.237
373.242
373.245
373.247
373.249
373.249
373.249
373.248
373.247
373.245
373.243
373.241
373.239
373.236
373.234
373.231
373.228
373.225
373.222
373.219
373.216
373.213
373.21
373.207
373.204
373.201
373.198
373.195
373.192
373.189
373.186
373.183
373.181
373.178
373.176
373.173
373.171
373.169
373.167
373.165
373.163
373.161
373.159
373.157
373.156
373.154
373.152
373.151
373.149
373.148
373.147
373.145
373.144
373.143
373.142
373.141
373.14
373.138
373.137
373.136
373.135
373.134
373.134
373.133
373.132
373.131
373.13
373.129
373.128
373.128
373.127
373.126
373.125
373.125
373.124
373.123
373.122
373.121
373.121
373.12
373.119
372.496
372.58
372.663
372.737
372.803
372.861
372.914
372.96
373
373.035
373.066
373.092
373.115
373.134
373.151
373.165
373.176
373.186
373.194
373.2
373.204
373.208
373.211
373.212
373.213
373.213
373.213
373.212
373.211
373.21
373.208
373.206
373.203
373.201
373.199
373.196
373.193
373.191
373.188
373.185
373.182
373.179
373.176
373.174
373.171
373.168
373.165
373.163
373.16
373.157
373.155
373.152
373.15
373.148
373.146
373.143
373.141
373.139
373.137
373.136
373.134
373.132
373.13
373.129
373.127
373.126
373.124
373.123
373.122
373.12
373.119
373.118
373.117
373.116
373.115
373.114
373.113
373.112
373.111
373.11
373.109
373.108
373.107
373.106
373.106
373.105
373.104
373.103
373.102
373.102
373.101
373.1
373.099
373.099
373.098
373.097
373.097
373.096
373.095
373.094
372.501
372.579
372.656
372.725
372.786
372.841
372.89
372.933
372.972
373.005
373.035
373.06
373.082
373.101
373.117
373.131
373.143
373.152
373.16
373.166
373.171
373.175
373.178
373.18
373.181
373.181
373.181
373.181
373.18
373.179
373.177
373.175
373.173
373.171
373.169
373.167
373.165
373.162
373.16
373.157
373.155
373.152
373.149
373.147
373.144
373.142
373.139
373.137
373.134
373.132
373.13
373.127
373.125
373.123
373.121
373.119
373.117
373.115
373.113
373.112
373.11
373.109
373.107
373.106
373.104
373.103
373.101
373.1
373.099
373.098
373.097
373.096
373.095
373.093
373.093
373.092
373.091
373.09
373.089
373.088
373.087
373.086
373.086
373.085
373.084
373.083
373.083
373.082
373.081
373.08
373.08
373.079
373.078
373.078
373.077
373.076
373.076
373.075
373.074
373.073
372.513
372.583
372.654
372.718
372.775
372.826
372.872
372.913
372.949
372.981
373.009
373.033
373.055
373.073
373.089
373.102
373.113
373.123
373.13
373.137
373.142
373.146
373.149
373.151
373.152
373.153
373.153
373.153
373.153
373.152
373.15
373.149
373.147
373.145
373.144
373.141
373.139
373.137
373.135
373.133
373.13
373.128
373.126
373.123
373.121
373.119
373.117
373.114
373.112
373.11
373.108
373.106
373.104
373.102
373.1
373.098
373.096
373.095
373.093
373.091
373.09
373.088
373.087
373.086
373.084
373.083
373.082
373.081
373.08
373.079
373.077
373.076
373.076
373.075
373.074
373.073
373.072
373.071
373.07
373.07
373.069
373.068
373.067
373.067
373.066
373.065
373.064
373.064
373.063
373.063
373.062
373.061
373.061
373.06
373.059
373.059
373.058
373.057
373.057
373.056
372.531
372.594
372.659
372.718
372.77
372.817
372.859
372.897
372.931
372.961
372.988
373.011
373.031
373.049
373.064
373.077
373.088
373.097
373.105
373.111
373.116
373.12
373.123
373.126
373.127
373.128
373.129
373.129
373.128
373.128
373.127
373.125
373.124
373.123
373.121
373.119
373.117
373.115
373.113
373.111
373.109
373.107
373.105
373.103
373.101
373.099
373.097
373.095
373.093
373.091
373.089
373.087
373.085
373.083
373.082
373.08
373.078
373.077
373.075
373.074
373.073
373.071
373.07
373.069
373.068
373.066
373.065
373.064
373.063
373.062
373.061
373.06
373.06
373.059
373.058
373.057
373.056
373.056
373.055
373.054
373.053
373.053
373.052
373.051
373.051
373.05
373.049
373.049
373.048
373.048
373.047
373.046
373.046
373.045
373.045
373.044
373.044
373.043
373.043
373.042
372.554
372.61
372.669
372.722
372.77
372.813
372.852
372.887
372.919
372.947
372.972
372.993
373.013
373.029
373.044
373.056
373.067
373.076
373.083
373.089
373.094
373.098
373.101
373.104
373.105
373.107
373.107
373.107
373.107
373.107
373.106
373.105
373.104
373.103
373.101
373.1
373.098
373.097
373.095
373.093
373.091
373.089
373.088
373.086
373.084
373.082
373.08
373.078
373.077
373.075
373.073
373.071
373.07
373.068
373.067
373.065
373.064
373.062
373.061
373.06
373.058
373.057
373.056
373.055
373.054
373.053
373.052
373.051
373.05
373.049
373.048
373.047
373.046
373.046
373.045
373.044
373.043
373.043
373.042
373.041
373.041
373.04
373.04
373.039
373.038
373.038
373.037
373.037
373.036
373.036
373.035
373.035
373.034
373.033
373.033
373.032
373.032
373.031
373.031
373.03
372.581
372.632
372.684
372.732
372.775
372.814
372.85
372.882
372.911
372.937
372.96
372.98
372.998
373.014
373.027
373.039
373.049
373.058
373.065
373.071
373.076
373.08
373.083
373.085
373.087
373.088
373.089
373.089
373.089
373.089
373.089
373.088
373.087
373.086
373.085
373.083
373.082
373.081
373.079
373.078
373.076
373.074
373.073
373.071
373.069
373.068
373.066
373.064
373.063
373.061
373.06
373.058
373.057
373.055
373.054
373.053
373.051
373.05
373.049
373.048
373.046
373.045
373.044
373.043
373.042
373.041
373.04
373.04
373.039
373.038
373.037
373.036
373.036
373.035
373.034
373.034
373.033
373.032
373.032
373.031
373.031
373.03
373.03
373.029
373.028
373.028
373.027
373.027
373.026
373.026
373.025
373.025
373.025
373.024
373.024
373.023
373.023
373.022
373.022
373.021
372.613
372.657
372.704
372.746
372.785
372.82
372.852
372.881
372.908
372.931
372.952
372.971
372.988
373.002
373.015
373.026
373.035
373.043
373.05
373.056
373.06
373.064
373.067
373.07
373.071
373.073
373.074
373.074
373.074
373.074
373.074
373.073
373.072
373.071
373.07
373.069
373.068
373.067
373.066
373.064
373.063
373.062
373.06
373.059
373.057
373.056
373.054
373.053
373.051
373.05
373.049
373.047
373.046
373.045
373.044
373.042
373.041
373.04
373.039
373.038
373.037
373.036
373.035
373.034
373.033
373.032
373.032
373.031
373.03
373.029
373.029
373.028
373.027
373.027
373.026
373.025
373.025
373.024
373.024
373.023
373.023
373.022
373.022
373.021
373.021
373.02
373.02
373.019
373.019
373.019
373.018
373.018
373.017
373.017
373.016
373.016
373.016
373.015
373.015
373.014
372.649
372.687
372.727
372.765
372.799
372.83
372.858
372.885
372.908
372.93
372.949
372.966
372.981
372.994
373.005
373.016
373.024
373.032
373.038
373.043
373.048
373.051
373.054
373.056
373.058
373.06
373.06
373.061
373.061
373.061
373.061
373.06
373.06
373.059
373.058
373.057
373.057
373.055
373.054
373.053
373.052
373.051
373.05
373.048
373.047
373.046
373.045
373.043
373.042
373.041
373.04
373.038
373.037
373.036
373.035
373.034
373.033
373.032
373.031
373.03
373.029
373.028
373.027
373.027
373.026
373.025
373.024
373.024
373.023
373.022
373.022
373.021
373.021
373.02
373.02
373.019
373.019
373.018
373.018
373.017
373.017
373.016
373.016
373.015
373.015
373.014
373.014
373.014
373.013
373.013
373.012
373.012
373.012
373.011
373.011
373.011
373.01
373.01
373.009
373.009
372.687
372.719
372.754
372.786
372.816
372.843
372.868
372.891
372.912
372.931
372.948
372.963
372.977
372.989
372.999
373.008
373.016
373.023
373.028
373.033
373.037
373.041
373.043
373.046
373.047
373.048
373.049
373.05
373.05
373.05
373.05
373.05
373.049
373.049
373.048
373.047
373.047
373.046
373.045
373.044
373.043
373.042
373.041
373.04
373.039
373.037
373.036
373.035
373.034
373.033
373.032
373.031
373.03
373.029
373.028
373.027
373.026
373.025
373.024
373.024
373.023
373.022
373.021
373.021
373.02
373.019
373.019
373.018
373.018
373.017
373.016
373.016
373.015
373.015
373.014
373.014
373.014
373.013
373.013
373.012
373.012
373.011
373.011
373.011
373.01
373.01
373.01
373.009
373.009
373.008
373.008
373.008
373.007
373.007
373.007
373.006
373.006
373.006
373.005
373.005
372.727
372.754
372.783
372.811
372.836
372.859
372.881
372.901
372.919
372.936
372.95
372.964
372.975
372.986
372.995
373.003
373.01
373.016
373.021
373.025
373.029
373.032
373.034
373.036
373.038
373.039
373.04
373.041
373.041
373.041
373.041
373.041
373.04
373.04
373.039
373.039
373.038
373.037
373.036
373.036
373.035
373.034
373.033
373.032
373.031
373.03
373.029
373.028
373.027
373.026
373.026
373.025
373.024
373.023
373.022
373.021
373.02
373.02
373.019
373.018
373.018
373.017
373.016
373.016
373.015
373.014
373.014
373.013
373.013
373.012
373.012
373.011
373.011
373.011
373.01
373.01
373.009
373.009
373.009
373.008
373.008
373.007
373.007
373.007
373.006
373.006
373.006
373.005
373.005
373.005
373.005
373.004
373.004
373.004
373.003
373.003
373.003
373.003
373.002
373.002
372.767
372.789
372.814
372.837
372.858
372.878
372.896
372.913
372.928
372.942
372.955
372.966
372.976
372.985
372.993
373
373.006
373.011
373.015
373.019
373.022
373.025
373.027
373.029
373.03
373.031
373.032
373.032
373.033
373.033
373.033
373.032
373.032
373.032
373.031
373.031
373.03
373.03
373.029
373.028
373.028
373.027
373.026
373.025
373.024
373.024
373.023
373.022
373.021
373.02
373.02
373.019
373.018
373.017
373.017
373.016
373.015
373.014
373.014
373.013
373.013
373.012
373.012
373.011
373.01
373.01
373.009
373.009
373.009
373.008
373.008
373.007
373.007
373.007
373.006
373.006
373.006
373.005
373.005
373.005
373.004
373.004
373.004
373.003
373.003
373.003
373.002
373.002
373.002
373.002
373.001
373.001
373.001
373.001
373
373
373
373
372.999
372.999
372.81
372.827
372.847
372.865
372.882
372.898
372.913
372.927
372.939
372.951
372.961
372.97
372.978
372.986
372.992
372.998
373.003
373.007
373.011
373.014
373.017
373.019
373.02
373.022
373.023
373.024
373.024
373.025
373.025
373.025
373.025
373.025
373.024
373.024
373.024
373.023
373.023
373.022
373.022
373.021
373.02
373.02
373.019
373.018
373.018
373.017
373.016
373.015
373.015
373.014
373.013
373.013
373.012
373.011
373.011
373.01
373.01
373.009
373.009
373.008
373.008
373.007
373.007
373.006
373.006
373.005
373.005
373.004
373.004
373.004
373.003
373.003
373.003
373.002
373.002
373.002
373.001
373.001
373.001
373.001
373
373
373
373
372.999
372.999
372.999
372.999
372.998
372.998
372.998
372.998
372.998
372.997
372.997
372.997
372.997
372.996
372.996
372.996
372.851
372.865
372.88
372.894
372.907
372.919
372.931
372.941
372.951
372.96
372.968
372.975
372.981
372.987
372.992
372.997
373
373.004
373.007
373.009
373.011
373.012
373.014
373.015
373.015
373.016
373.016
373.017
373.017
373.017
373.017
373.016
373.016
373.016
373.015
373.015
373.014
373.014
373.013
373.013
373.012
373.012
373.011
373.011
373.01
373.009
373.009
373.008
373.008
373.007
373.007
373.006
373.006
373.005
373.005
373.004
373.004
373.003
373.003
373.002
373.002
373.001
373.001
373.001
373
373
373
372.999
372.999
372.999
372.999
372.998
372.998
372.998
372.998
372.997
372.997
372.997
372.997
372.997
372.996
372.996
372.996
372.996
372.996
372.995
372.995
372.995
372.995
372.995
372.995
372.994
372.994
372.994
372.994
372.994
372.994
372.994
372.993
372.993
372.894
372.904
372.914
372.924
372.933
372.942
372.95
372.957
372.964
372.971
372.976
372.981
372.985
372.989
372.993
372.995
372.998
373
373.002
373.003
373.004
373.005
373.006
373.006
373.007
373.007
373.007
373.007
373.007
373.007
373.007
373.007
373.006
373.006
373.006
373.005
373.005
373.004
373.004
373.004
373.003
373.003
373.003
373.002
373.002
373.001
373.001
373.001
373
373
373
372.999
372.999
372.999
372.998
372.998
372.998
372.997
372.997
372.997
372.997
372.996
372.996
372.996
372.996
372.995
372.995
372.995
372.995
372.995
372.995
372.994
372.994
372.994
372.994
372.994
372.994
372.994
372.994
372.993
372.993
372.993
372.993
372.993
372.993
372.993
372.993
372.993
372.993
372.992
372.992
372.992
372.992
372.992
372.992
372.992
372.992
372.992
372.992
372.991
372.937
372.942
372.948
372.954
372.959
372.964
372.968
372.972
372.976
372.978
372.981
372.983
372.986
372.987
372.989
372.99
372.991
372.992
372.993
372.994
372.994
372.995
372.995
372.995
372.996
372.996
372.996
372.996
372.996
372.996
372.996
372.996
372.996
372.996
372.996
372.996
372.996
372.996
372.996
372.996
372.996
372.996
372.996
372.995
372.995
372.995
372.995
372.995
372.995
372.995
372.995
372.995
372.995
372.994
372.994
372.994
372.994
372.994
372.994
372.994
372.994
372.994
372.994
372.994
372.993
372.993
372.993
372.993
372.993
372.993
372.993
372.993
372.993
372.993
372.993
372.993
372.993
372.993
372.993
372.993
372.993
372.992
372.992
372.992
372.992
372.992
372.992
372.992
372.992
372.992
372.992
372.992
372.992
372.992
372.992
372.992
372.992
372.992
372.992
372.992
372.971
372.973
372.974
372.975
372.976
372.977
372.977
372.978
372.978
372.979
372.98
372.98
372.981
372.981
372.982
372.983
372.983
372.984
372.985
372.985
372.986
372.986
372.987
372.987
372.988
372.988
372.989
372.989
372.99
372.99
372.99
372.991
372.991
372.991
372.991
372.992
372.992
372.992
372.992
372.992
372.993
372.993
372.993
372.993
372.993
372.993
372.993
372.993
372.993
372.993
372.993
372.993
372.993
372.993
372.994
372.994
372.994
372.994
372.994
372.994
372.993
372.993
372.993
372.993
372.993
372.993
372.993
372.993
372.993
372.993
372.993
372.993
372.993
372.993
372.993
372.993
372.993
372.993
372.993
372.993
372.993
372.993
372.993
372.993
372.993
372.993
372.993
372.993
372.993
372.993
372.993
372.993
372.993
372.993
372.993
372.992
372.992
372.992
372.992
372.992
371.636
371.659
371.714
371.799
371.878
372.014
372.095
372.246
372.337
372.5
371.782
371.795
371.83
371.895
371.951
372.057
372.122
372.238
372.327
372.445
371.9
371.906
371.932
371.98
372.024
372.105
372.161
372.247
372.327
372.422
372.004
372.006
372.023
372.058
372.094
372.151
372.21
372.268
372.338
372.417
372.1
372.097
372.107
372.13
372.163
372.201
372.253
372.301
372.357
372.422
372.187
372.181
372.186
372.201
372.227
372.255
372.295
372.336
372.381
372.436
372.267
372.259
372.261
372.27
372.288
372.311
372.341
372.375
372.411
372.456
372.341
372.333
372.331
372.337
372.349
372.366
372.389
372.415
372.445
372.482
372.411
372.402
372.398
372.401
372.409
372.421
372.438
372.459
372.482
372.512
372.476
372.466
372.462
372.463
372.468
372.476
372.489
372.504
372.523
372.546
372.537
372.528
372.523
372.522
372.525
372.531
372.54
372.551
372.565
372.583
372.594
372.586
372.581
372.579
372.58
372.584
372.59
372.599
372.61
372.624
372.649
372.641
372.636
372.634
372.634
372.637
372.641
372.647
372.655
372.666
372.701
372.694
372.69
372.687
372.687
372.688
372.691
372.696
372.702
372.71
372.751
372.745
372.741
372.739
372.738
372.738
372.74
372.744
372.748
372.754
372.8
372.795
372.792
372.789
372.788
372.788
372.789
372.792
372.795
372.799
372.846
372.843
372.84
372.838
372.837
372.837
372.837
372.838
372.84
372.843
372.893
372.89
372.888
372.887
372.886
372.885
372.885
372.886
372.887
372.889
372.937
372.935
372.934
372.933
372.933
372.932
372.932
372.932
372.933
372.934
372.978
372.977
372.976
372.975
372.974
372.973
372.972
372.972
372.971
372.971
373.302
373.286
373.222
373.124
372.987
372.798
372.531
372.152
371.643
370.973
372.972
372.924
372.836
372.708
372.526
372.279
371.946
371.483
370.859
370.163
372.659
372.576
372.462
372.303
372.083
371.784
371.382
370.834
370.125
369.419
372.375
372.257
372.114
371.926
371.666
371.321
370.865
370.243
369.432
368.811
372.123
371.975
371.806
371.588
371.297
370.911
370.403
369.718
368.843
368.259
371.908
371.736
371.544
371.302
370.982
370.565
370.025
369.293
368.341
367.818
371.731
371.543
371.335
371.074
370.738
370.299
369.734
368.976
367.99
367.48
371.598
371.4
371.182
370.912
370.566
370.119
369.547
368.787
367.771
367.526
371.508
371.308
371.088
370.816
370.473
370.029
369.461
368.729
367.764
367.731
371.464
371.269
371.053
370.788
370.456
370.033
369.488
368.809
367.923
368.145
375.287
375.46
375.637
375.823
376.035
376.261
376.508
376.747
376.983
377.009
375.256
375.424
375.597
375.777
375.982
376.197
376.434
376.659
376.887
376.909
375.175
375.334
375.495
375.662
375.85
376.048
376.26
376.454
376.661
376.678
375.053
375.197
375.341
375.489
375.656
375.821
376.003
376.15
376.301
376.273
374.893
375.014
375.142
375.26
375.399
375.53
375.665
375.761
375.837
375.751
374.696
374.794
374.894
374.988
375.084
375.174
375.259
375.29
375.281
375.118
374.463
374.541
374.609
374.669
374.73
374.763
374.788
374.751
374.651
374.39
374.208
374.254
374.296
374.311
374.328
374.314
374.265
374.156
373.949
373.587
373.931
373.948
373.954
373.935
373.895
373.828
373.708
373.506
373.208
372.732
373.645
373.635
373.599
373.537
373.445
373.315
373.125
372.84
372.424
371.853
373
373
373
373
373
373
373
373
373.001
373.001
373.001
373.001
373.001
373.001
373.002
373.002
373.002
373.002
373.003
373.003
373.003
373.004
373.004
373.004
373.005
373.005
373.006
373.006
373.007
373.008
373.009
373.009
373.011
373.011
373.013
373.013
373.015
373.016
373.017
373.018
373.021
373.022
373.024
373.025
373.028
373.03
373.033
373.035
373.039
373.041
373.045
373.047
373.052
373.055
373.061
373.064
373.071
373.075
373.082
373.087
373.095
373.1
373.111
373.116
373.128
373.135
373.148
373.157
373.172
373.181
373.199
373.21
373.23
373.243
373.266
373.282
373.308
373.327
373.356
373.379
373.412
373.44
373.478
373.511
373.555
373.595
373.647
373.695
373.756
373.816
373.889
373.963
374.054
374.147
374.26
374.38
374.527
374.687
374.881
375.117
373
373
373
373
373
373
373
373
373.001
373.001
373.001
373.001
373.001
373.001
373.002
373.002
373.002
373.002
373.003
373.003
373.003
373.004
373.004
373.004
373.005
373.005
373.006
373.006
373.007
373.008