/*--------------------------------*- C++ -*----------------------------------*\
  =========                 |
  \\      /  F ield         | OpenFOAM: The Open Source CFD Toolbox
   \\    /   O peration     | Website:  https://openfoam.org
    \\  /    A nd           | Version:  8
     \\/     M anipulation  |
\*---------------------------------------------------------------------------*/
FoamFile
{
    version     2.0;
    format      ascii;
    class       volVectorField;
    location    "1.499985";
    object      U;
}
// * * * * * * * * * * * * * * * * * * * * * * * * * * * * * * * * * * * * * //

dimensions      [0 1 -1 0 0 0 0];

internalField   nonuniform List<vector> 
6800
(
(26.5553 4.4937 -4.72891e-15)
(70.6261 -19.3351 0)
(95.9787 -19.6609 1.17045e-15)
(111.105 -18.2888 -1.98167e-15)
(120.533 -16.695 -4.12572e-19)
(126.561 -15.0156 4.72161e-19)
(130.424 -13.4505 -1.55981e-15)
(132.89 -12.0676 1.49113e-15)
(134.493 -10.8221 0)
(135.516 -9.7313 -6.90138e-16)
(47.2403 -2.87643 6.0855e-15)
(87.8427 -26.2635 -6.63787e-16)
(110.383 -21.9323 0)
(122.536 -19.1107 0)
(129.553 -16.6577 0)
(133.727 -14.4237 8.01884e-16)
(136.163 -12.5526 -7.68895e-16)
(137.537 -11.0389 1.47868e-15)
(138.295 -9.81144 7.16362e-16)
(138.641 -8.93202 -6.93462e-16)
(67.9949 -8.01656 -2.15895e-15)
(104.392 -32.0855 -1.15833e-15)
(123.362 -23.0595 0)
(132.4 -19.3118 -1.75481e-15)
(137.112 -16.1547 -8.25434e-16)
(139.585 -13.4975 -8.57332e-19)
(140.763 -11.4135 1.52888e-15)
(141.217 -9.79876 -1.48323e-15)
(141.286 -8.53046 1.44702e-15)
(141.104 -7.60022 -1.40912e-15)
(89.2641 -10.4257 1.70113e-15)
(120.468 -36.1073 5.9405e-18)
(135.25 -22.6983 0)
(141.141 -18.7043 8.52072e-16)
(143.677 -15.0106 5.6176e-19)
(144.61 -12.104 7.88476e-16)
(144.704 -9.90463 0)
(144.393 -8.22771 1.50279e-15)
(143.907 -6.92482 9.19022e-19)
(143.306 -5.94467 0)
(109.982 -9.69439 6.97874e-16)
(135.801 -37.8511 4.81915e-16)
(146.095 -20.6342 4.39054e-16)
(148.996 -17.1264 8.34678e-16)
(149.533 -13.0502 -4.04921e-16)
(149.1 -10.0958 3.97944e-16)
(148.258 -7.8835 -7.77407e-16)
(147.293 -6.20818 1.14658e-15)
(146.329 -4.91798 -1.50215e-15)
(145.36 -3.93307 -1.84754e-15)
(129.275 -5.86124 -1.22109e-15)
(150.055 -37.076 4.43519e-16)
(155.83 -16.7896 -4.27051e-16)
(156.051 -14.4394 4.11178e-16)
(154.793 -10.1212 -1.22033e-15)
(153.167 -7.34904 8.01178e-16)
(151.506 -5.23955 0)
(149.963 -3.65154 -7.81718e-16)
(148.567 -2.44632 3.8573e-16)
(147.253 -1.5136 3.81286e-16)
(146.434 0.793401 0)
(162.884 -33.7283 4.24536e-16)
(164.299 -11.2234 4.18343e-16)
(162.247 -10.5672 7.08239e-19)
(159.419 -6.1536 -4.08361e-16)
(156.771 -3.80462 4.07471e-16)
(154.393 -1.91258 4.04359e-16)
(152.335 -0.512558 4.0221e-16)
(150.547 0.515202 -1.5951e-15)
(148.907 1.33875 1.18443e-15)
(160.908 9.80751 2.4645e-16)
(173.931 -27.8941 -4.11377e-16)
(171.296 -4.12699 -4.13499e-16)
(167.434 -5.51546 -6.20417e-16)
(163.278 -1.16163 1.24357e-15)
(159.78 0.533322 -4.14392e-16)
(156.79 2.09276 -4.15999e-16)
(154.282 3.19376 4.15524e-16)
(152.151 3.94596 -8.27576e-16)
(150.212 4.61155 -6.20001e-16)
(172.309 20.6327 -1.14878e-16)
(182.857 -19.8057 9.97646e-17)
(176.616 4.20656 0)
(171.417 0.638936 2.07448e-16)
(166.193 4.72627 0)
(162.025 5.58109 -3.19796e-16)
(158.535 6.70308 3.21538e-16)
(155.659 7.39747 0)
(153.252 7.78393 -1.08007e-16)
(151.057 8.25585 3.2451e-16)
(180.412 32.654 0)
(189.364 -9.79964 -9.87132e-17)
(180.082 13.3947 -5.16084e-17)
(174.019 7.73846 5.22965e-17)
(167.98 11.3098 1.91663e-31)
(163.331 11.2082 -1.10283e-16)
(159.474 11.7918 1.10969e-16)
(156.332 11.9845 1.12838e-16)
(153.737 11.9352 1.13894e-16)
(151.334 12.1819 -3.43106e-16)
(-9.3316 5.25853 0)
(-14.7247 3.35415 -3.34302e-16)
(-19.7967 2.19263 0)
(-22.7924 1.36928 0)
(-24.2614 0.633819 0)
(-24.4185 -0.0989452 1.49119e-16)
(-23.3535 -0.848038 -1.47167e-16)
(-21.1711 -1.5881 -1.4521e-16)
(-18.1509 -2.19924 2.90216e-16)
(-14.4798 -2.55965 8.41262e-20)
(-9.24802 11.6052 8.28406e-16)
(-14.0161 9.07172 4.11318e-16)
(-17.5203 5.95307 0)
(-19.4338 3.64677 4.36771e-16)
(-19.8243 1.53947 0)
(-18.737 -0.603215 -2.05021e-16)
(-16.2182 -2.81092 2.0348e-16)
(-12.6657 -4.91627 0)
(-8.48073 -6.59971 -2.02574e-16)
(-3.76086 -7.53387 6.83959e-16)
(-9.13375 18.8592 -1.41099e-15)
(-12.0661 13.2858 -1.67471e-15)
(-13.6638 9.01815 1.14576e-15)
(-13.4128 5.43576 -1.4824e-15)
(-11.3582 1.92423 -9.88448e-16)
(-7.31139 -1.69247 1.02136e-15)
(-1.97998 -5.23971 6.82878e-19)
(3.93299 -8.36405 -1.93875e-15)
(9.54859 -10.5246 3.43864e-15)
(15.5137 -11.5033 -1.24766e-15)
(-9.58724 23.4536 0)
(-10.1929 16.2623 1.81162e-15)
(-8.71612 10.7138 -1.34047e-15)
(-4.99258 5.83564 2.5364e-15)
(1.82513 0.595639 -1.23481e-15)
(10.1568 -4.24102 1.05457e-15)
(18.09 -8.11964 8.89526e-16)
(25.3931 -11.0297 7.76666e-16)
(31.9644 -13.0773 1.08517e-18)
(38.8734 -13.7578 -6.75521e-16)
(-10.3793 26.015 7.46076e-19)
(-8.31436 17.207 -2.02752e-15)
(-2.01526 10.0771 1.58588e-15)
(7.75316 3.60146 -1.32278e-15)
(19.6573 -2.53257 1.0457e-15)
(30.4919 -7.25292 -1.69104e-15)
(40.1058 -10.6657 0)
(48.552 -12.9771 -1.29505e-15)
(55.8384 -14.4779 5.92726e-16)
(63.2985 -14.672 2.83603e-15)
(-10.323 26.9772 2.34128e-15)
(-5.30806 15.0689 6.08332e-15)
(8.12128 6.49872 -1.58906e-15)
(24.5967 -1.0626 -2.21937e-15)
(39.0848 -6.5804 4.1973e-15)
(51.5082 -10.3609 -2.10165e-15)
(62.0414 -12.8453 0)
(70.9548 -14.338 -5.61912e-16)
(78.3031 -15.0766 -3.94641e-19)
(85.3916 -14.6781 -4.8502e-16)
(-10.0284 24.6691 3.65282e-15)
(0.31733 10.9565 1.50875e-19)
(23.5515 0.301278 0)
(42.8805 -6.31016 1.74364e-15)
(58.8373 -10.4445 2.81101e-15)
(71.8505 -12.9552 -1.21428e-15)
(82.305 -14.3221 0)
(90.6279 -14.8988 -1.96873e-15)
(97.1183 -14.9544 3.60762e-15)
(102.981 -14.1337 0)
(-9.28854 20.0769 -3.40324e-15)
(13.7481 3.25134 -6.64727e-15)
(41.293 -6.16592 1.94338e-15)
(62.1138 -11.0225 4.49206e-19)
(78.1466 -13.4884 -2.44096e-15)
(90.3112 -14.6156 0)
(99.4456 -14.941 -9.53341e-16)
(106.307 -14.7509 0)
(111.424 -14.2695 -1.62103e-15)
(115.812 -13.2026 1.52873e-15)
(-5.45773 15.1532 1.99032e-15)
(31.7697 -4.619 0)
(60.5691 -11.9559 0)
(80.9033 -14.6243 0)
(95.3317 -15.4267 0)
(105.546 -15.3422 9.45451e-16)
(112.82 -14.8048 2.58854e-15)
(118.029 -14.0453 -1.6033e-15)
(121.739 -13.2122 -2.26682e-15)
(124.755 -12.0473 2.16317e-15)
(3.65609 11.851 -5.44319e-15)
(51.457 -12.0484 0)
(79.3618 -16.4343 -1.34955e-15)
(97.3952 -16.9116 2.1987e-15)
(109.366 -16.3516 3.51222e-19)
(117.421 -15.358 -1.73642e-15)
(122.889 -14.2216 1.61545e-15)
(126.6 -13.0901 -1.5258e-15)
(129.099 -12.0132 0)
(130.912 -10.8201 -7.02128e-16)
(-10.0176 -2.55171 -1.40649e-16)
(-4.79071 -2.33301 0)
(0.00076904 -2.08839 0)
(4.26241 -1.83461 0)
(7.98706 -1.62217 0)
(11.371 -1.46209 0)
(14.4598 -1.3374 -4.64169e-18)
(17.3101 -1.23635 1.45676e-16)
(19.9638 -1.15193 -1.38455e-16)
(22.4504 -1.07981 0)
(24.7924 -1.0171 4.31341e-18)
(27.0073 -0.961703 4.24377e-18)
(29.1087 -0.912081 4.17832e-18)
(31.1079 -0.86716 4.11671e-18)
(33.0138 -0.826089 4.05864e-18)
(34.8339 -0.788194 0)
(36.5745 -0.752999 -1.22525e-16)
(38.241 -0.720163 3.89926e-18)
(39.8382 -0.68942 1.27306e-16)
(41.3703 -0.660545 3.81453e-18)
(42.8411 -0.633353 0)
(44.2541 -0.607688 3.73524e-18)
(45.6123 -0.583417 -1.14666e-16)
(46.9188 -0.560424 1.20935e-16)
(48.176 -0.538601 3.6323e-18)
(49.3864 -0.517867 -1.11655e-16)
(50.5522 -0.498164 1.1434e-16)
(51.6757 -0.479432 3.54592e-18)
(52.7587 -0.461608 3.52026e-18)
(53.8033 -0.444643 -1.08374e-16)
(54.8112 -0.428506 1.14613e-16)
(55.7841 -0.413159 3.45125e-18)
(56.7236 -0.398561 3.4305e-18)
(57.6314 -0.384668 -1.05729e-16)
(58.5089 -0.371436 1.0854e-16)
(59.3574 -0.358825 -1.11328e-16)
(60.1782 -0.346797 1.07402e-16)
(60.9726 -0.335317 0)
(61.7417 -0.324357 0)
(62.4866 -0.313886 1.05849e-16)
(63.2084 -0.303878 -1.05375e-16)
(63.9081 -0.294309 -1.08187e-16)
(64.5866 -0.285154 1.04467e-16)
(65.2448 -0.276391 -1.04032e-16)
(65.8836 -0.267997 1.00382e-16)
(66.5039 -0.259954 0)
(67.1062 -0.252245 -3.21338e-18)
(67.6915 -0.244854 0)
(68.2604 -0.237767 -3.19038e-18)
(68.8135 -0.230966 0)
(69.3515 -0.224439 0)
(69.875 -0.218172 0)
(70.3845 -0.212155 -3.14898e-18)
(70.8806 -0.206376 0)
(71.3638 -0.200827 4.69552e-17)
(71.8346 -0.195496 -4.99461e-17)
(72.2935 -0.190375 0)
(72.741 -0.185454 -3.10486e-18)
(73.1774 -0.180725 0)
(73.6032 -0.176179 -3.08926e-18)
(74.0189 -0.171807 0)
(74.4247 -0.167603 0)
(74.821 -0.163559 0)
(75.2082 -0.159668 -4.89756e-17)
(75.5867 -0.155925 4.88725e-17)
(75.9567 -0.152322 -3.04818e-18)
(76.3186 -0.148854 0)
(76.6726 -0.145516 0)
(77.0191 -0.142302 -3.03031e-18)
(77.3584 -0.139209 -4.83945e-17)
(77.6906 -0.136231 4.52885e-17)
(78.0162 -0.133364 4.82214e-17)
(78.3353 -0.130603 -5.11475e-17)
(78.6481 -0.127944 0)
(78.9549 -0.125384 0)
(79.256 -0.122917 0)
(79.5515 -0.12054 -2.98898e-18)
(79.8416 -0.11825 2.38745e-17)
(80.1266 -0.116042 -2.38384e-17)
(80.4066 -0.113914 2.38024e-17)
(80.6818 -0.111861 -2.07968e-17)
(80.9524 -0.109881 0)
(81.2185 -0.107969 -2.36998e-17)
(81.4803 -0.106124 4.7334e-17)
(81.738 -0.10434 -2.06807e-17)
(81.9917 -0.102616 0)
(82.2415 -0.100946 0)
(82.4875 -0.099328 0)
(82.7299 -0.0977545 0)
(82.9688 -0.0962221 2.93535e-18)
(83.2042 -0.0947192 0)
(83.4362 -0.0932393 -1.17129e-17)
(83.6648 -0.0917614 1.08969e-22)
(83.8901 -0.0902708 8.76412e-18)
(84.1118 -0.0887278 0)
(84.3299 -0.0870943 -5.82952e-18)
(84.544 -0.0853033 2.91193e-18)
(84.7533 -0.0832759 5.81742e-18)
(84.9573 -0.0809462 0)
(85.2053 -0.0762805 0)
(0.640997 -7.19692 6.47807e-18)
(4.81006 -6.39762 -1.34877e-17)
(8.63825 -5.72513 -8.42329e-16)
(12.1286 -5.10857 8.01982e-16)
(15.3214 -4.57829 0)
(18.2748 -4.15675 0)
(21.0147 -3.81903 1.73401e-17)
(23.5691 -3.54062 0)
(25.9639 -3.30556 -5.51941e-18)
(28.22 -3.10339 1.08058e-17)
(30.3537 -2.92688 -5.29523e-18)
(32.3781 -2.77048 -5.19463e-18)
(34.3037 -2.63006 -5.10077e-18)
(36.1392 -2.50268 -5.01301e-18)
(37.8918 -2.386 4.93063e-18)
(39.5676 -2.27817 0)
(41.1716 -2.1779 6.07355e-16)
(42.7086 -2.08427 -5.98777e-16)
(44.1826 -1.99653 -4.65177e-18)
(45.5974 -1.91407 -4.5925e-18)
(46.9563 -1.83635 0)
(48.2623 -1.76295 4.48443e-18)
(49.5184 -1.6935 -5.72157e-16)
(50.727 -1.62766 1.11922e-15)
(51.8905 -1.56519 -5.60587e-16)
(53.0111 -1.50584 -1.2914e-17)
(54.091 -1.44939 0)
(55.132 -1.39569 -4.22983e-18)
(56.1359 -1.34458 -4.1955e-18)
(57.1046 -1.29593 5.3702e-16)
(58.0395 -1.24959 -5.33076e-16)
(58.9422 -1.20544 -2.66694e-16)
(59.8142 -1.16336 5.25711e-16)
(60.6568 -1.12323 -4.0609e-18)
(61.4713 -1.08493 -2.57509e-16)
(62.2588 -1.04836 3.99932e-18)
(63.0206 -1.01345 0)
(63.7578 -0.98009 0)
(64.4714 -0.948218 2.51694e-16)
(65.1624 -0.917758 -2.50403e-16)
(65.8318 -0.888646 -2.4914e-16)
(66.4806 -0.86081 4.99757e-16)
(67.1096 -0.834176 -1.08649e-20)
(67.7197 -0.808675 -2.45675e-16)
(68.3117 -0.784244 3.82185e-18)
(68.8863 -0.76083 0)
(69.4443 -0.738381 2.46364e-16)
(69.9864 -0.716853 -2.49182e-16)
(70.5132 -0.696199 -2.36945e-16)
(71.0254 -0.676373 2.39834e-16)
(71.5235 -0.657342 0)
(72.0082 -0.639073 -2.38164e-16)
(72.4799 -0.621535 2.41098e-16)
(72.9392 -0.604695 -2.36628e-16)
(73.3867 -0.588524 2.39596e-16)
(73.8227 -0.57299 0)
(74.2477 -0.558066 -2.34534e-16)
(74.6621 -0.543725 4.71434e-16)
(75.0664 -0.52994 -2.33269e-16)
(75.4609 -0.516686 3.63539e-18)
(75.846 -0.503939 0)
(76.222 -0.491675 0)
(76.5893 -0.479876 0)
(76.9483 -0.468522 0)
(77.2991 -0.457595 0)
(77.6422 -0.447078 3.58554e-18)
(77.9779 -0.436953 0)
(78.3063 -0.427207 1.14273e-16)
(78.6278 -0.417826 -1.1049e-16)
(78.9426 -0.408797 -1.13838e-16)
(79.251 -0.400107 3.55294e-18)
(79.5533 -0.391741 1.13429e-16)
(79.8496 -0.383688 1.16769e-16)
(80.1403 -0.375934 -1.77553e-21)
(80.4254 -0.368468 -1.12853e-16)
(80.7053 -0.361277 0)
(80.9801 -0.354349 1.16007e-16)
(81.25 -0.347673 -1.53789e-21)
(81.5152 -0.341238 -1.05141e-16)
(81.7758 -0.335035 -1.18982e-16)
(82.0321 -0.329053 1.08329e-16)
(82.2841 -0.323282 -6.2811e-17)
(82.5321 -0.317713 4.87862e-17)
(82.7761 -0.312336 -6.26394e-17)
(83.0164 -0.30714 -3.47478e-18)
(83.253 -0.302118 4.85927e-17)
(83.4861 -0.297254 6.93302e-18)
(83.7158 -0.292541 4.84703e-17)
(83.9421 -0.287958 -5.53287e-17)
(84.1653 -0.283496 -5.87154e-17)
(84.3853 -0.279121 5.5199e-17)
(84.6022 -0.274814 2.06752e-17)
(84.8161 -0.270513 -2.57366e-22)
(85.0269 -0.266177 -3.09445e-17)
(85.2346 -0.261689 6.86969e-18)
(85.4389 -0.256937 -6.86205e-18)
(85.6396 -0.251725 1.37113e-17)
(85.8357 -0.245725 -2.39706e-17)
(86.0284 -0.238588 6.84064e-18)
(86.2603 -0.227801 -7.34675e-18)
(18.695 -10.619 -1.44431e-15)
(21.0264 -9.43349 3.39244e-17)
(23.5109 -8.52568 3.33451e-17)
(25.9852 -7.74074 1.40017e-15)
(28.365 -7.04621 -1.35509e-15)
(30.6383 -6.46058 -1.33397e-15)
(32.8054 -5.97514 1.343e-15)
(34.869 -5.56711 2.04966e-17)
(36.8341 -5.21651 1.31205e-15)
(38.7067 -4.91053 -1.26212e-15)
(40.4929 -4.64031 1.95851e-17)
(42.1984 -4.39864 1.93046e-17)
(43.8282 -4.18004 1.23752e-15)
(45.3873 -3.98056 -1.20196e-15)
(46.8796 -3.79691 1.19584e-15)
(48.309 -3.62661 8.5342e-20)
(49.679 -3.46794 -1.13978e-15)
(50.9932 -3.31959 -8.94341e-18)
(52.2545 -3.18044 0)
(53.466 -3.04954 0)
(54.6303 -2.9261 0)
(55.7497 -2.80948 8.58377e-18)
(56.8265 -2.69909 -5.44384e-16)
(57.8628 -2.59444 5.56532e-16)
(58.8607 -2.49508 -1.67244e-17)
(59.822 -2.40067 8.296e-18)
(60.7483 -2.31092 5.43367e-16)
(61.6413 -2.22551 -5.23092e-16)
(62.5025 -2.14415 -5.03192e-16)
(63.3334 -2.06664 -8.04058e-18)
(64.1352 -1.99283 5.12629e-16)
(64.9094 -1.92252 5.09427e-16)
(65.657 -1.85547 -1.02071e-15)
(66.3792 -1.79148 5.0351e-16)
(67.077 -1.73036 5.1636e-16)
(67.7516 -1.67197 -1.0117e-15)
(68.4038 -1.61617 4.9554e-16)
(69.0347 -1.56284 -5.08491e-16)
(69.6452 -1.51186 5.06107e-16)
(70.2361 -1.46311 -1.52662e-17)
(70.8084 -1.41646 0)
(71.3628 -1.37183 0)
(71.9 -1.32914 0)
(72.4209 -1.28828 0)
(72.9261 -1.24918 0)
(73.4164 -1.21173 0)
(73.8924 -1.17587 -1.48468e-17)
(74.3547 -1.14152 2.2194e-17)
(74.804 -1.10861 4.57158e-16)
(75.2408 -1.07703 -4.70427e-16)
(75.6656 -1.04674 -4.68973e-16)
(76.0789 -1.01769 4.67608e-16)
(76.4812 -0.989822 -4.66263e-16)
(76.873 -0.96308 4.65e-16)
(77.2546 -0.937411 0)
(77.6266 -0.912764 0)
(77.9891 -0.889092 0)
(78.3428 -0.866351 0)
(78.6877 -0.844497 -1.43523e-17)
(79.0244 -0.823488 0)
(79.3532 -0.803287 2.28629e-16)
(79.6742 -0.783862 -2.28158e-16)
(79.9879 -0.765178 0)
(80.2945 -0.747204 0)
(80.5943 -0.729911 0)
(80.8875 -0.713272 0)
(81.1745 -0.697267 0)
(81.4554 -0.681866 2.11509e-16)
(81.7306 -0.667045 -4.23165e-21)
(82.0002 -0.652782 -4.6378e-16)
(82.2644 -0.639054 2.38537e-16)
(82.5235 -0.625841 0)
(82.7776 -0.61312 -1.39881e-17)
(83.027 -0.600873 0)
(83.2718 -0.589081 2.23146e-16)
(83.5122 -0.577726 -2.22829e-16)
(83.7484 -0.566789 -1.39071e-17)
(83.9806 -0.556251 -9.72148e-17)
(84.2088 -0.546093 9.01502e-17)
(84.4332 -0.536301 2.07761e-17)
(84.654 -0.526857 -1.24494e-16)
(84.8713 -0.517748 1.17429e-16)
(85.0853 -0.508957 2.06968e-17)
(85.296 -0.500472 6.89048e-18)
(85.5035 -0.492274 0)
(85.7081 -0.484352 -6.8741e-18)
(85.9097 -0.476682 6.86622e-18)
(86.1086 -0.469254 1.16592e-16)
(86.3047 -0.462035 -1.23317e-16)
(86.4983 -0.45501 -5.47463e-17)
(86.6892 -0.448125 4.10174e-17)
(86.8777 -0.441351 -4.78015e-17)
(87.0636 -0.434591 6.82212e-17)
(87.2471 -0.42778 -6.81486e-18)
(87.428 -0.420732 6.80865e-18)
(87.6063 -0.413268 -2.04046e-17)
(87.7815 -0.405074 1.35918e-17)
(87.9531 -0.39553 1.35786e-17)
(88.1223 -0.384098 -6.78184e-18)
(88.3256 -0.370244 1.45352e-17)
(40.9429 -12.4556 -1.24374e-15)
(41.7208 -11.1877 -2.18147e-17)
(42.8051 -10.2936 1.26507e-15)
(44.1885 -9.5242 0)
(45.6644 -8.80855 -5.42656e-21)
(47.1497 -8.17145 1.23189e-15)
(48.6261 -7.6214 -1.87398e-17)
(50.0826 -7.14576 -1.24055e-15)
(51.5062 -6.72885 1.18781e-15)
(52.8882 -6.35879 -1.20972e-15)
(54.2244 -6.02693 -1.83806e-17)
(55.5124 -5.72607 1.14375e-15)
(56.7527 -5.45093 -2.31357e-15)
(57.9454 -5.19744 1.13435e-15)
(59.0913 -4.96223 -1.75284e-17)
(60.1927 -4.74297 -1.09247e-15)
(61.2513 -4.53787 1.08118e-15)
(62.2692 -4.3455 0)
(63.2481 -4.16462 -1.07736e-15)
(64.1899 -3.99413 1.06764e-15)
(65.0961 -3.83309 1.05847e-15)
(65.9683 -3.68077 -1.06618e-15)
(66.8079 -3.53649 0)
(67.6164 -3.39964 -1.61529e-17)
(68.395 -3.26969 1.60378e-17)
(69.1452 -3.14618 1.59282e-17)
(69.8681 -3.02869 -1.5825e-17)
(70.5648 -2.91686 0)
(71.2365 -2.81039 -1.56329e-17)
(71.8842 -2.70891 0)
(72.509 -2.61216 9.89332e-16)
(73.1117 -2.5199 -9.84178e-16)
(73.6934 -2.43186 0)
(74.2548 -2.3478 -9.59199e-16)
(74.7969 -2.2675 9.54775e-16)
(75.3204 -2.19079 1.5087e-17)
(75.8262 -2.1175 0)
(76.3151 -2.04745 1.49595e-17)
(76.788 -1.98049 -1.36793e-22)
(77.2455 -1.91649 1.48422e-17)
(77.6884 -1.85534 4.73178e-16)
(78.1172 -1.79685 -2.08646e-20)
(78.5328 -1.74089 -4.69907e-16)
(78.9356 -1.68733 -4.53706e-16)
(79.3263 -1.63607 4.66878e-16)
(79.7054 -1.587 0)
(80.0735 -1.54001 1.45022e-17)
(80.4309 -1.49502 -1.44609e-17)
(80.7782 -1.45193 1.44211e-17)
(81.1159 -1.4106 4.4586e-16)
(81.4442 -1.37099 -1.61633e-20)
(81.7636 -1.33302 -4.72251e-16)
(82.0745 -1.29661 0)
(82.3772 -1.26168 1.4243e-17)
(82.6719 -1.22815 -4.54749e-16)
(82.9592 -1.19596 4.53778e-16)
(83.2391 -1.16504 4.52815e-16)
(83.512 -1.13535 -4.51912e-16)
(83.7782 -1.10683 2.81888e-17)
(84.038 -1.07942 0)
(84.2916 -1.05308 0)
(84.5393 -1.02775 0)
(84.7813 -1.00341 -1.39927e-17)
(85.0178 -0.98001 -4.33041e-16)
(85.2492 -0.957518 4.46289e-16)
(85.4756 -0.93589 -1.39241e-17)
(85.6972 -0.915091 4.44875e-16)
(85.9143 -0.895094 -8.74521e-16)
(86.127 -0.875868 6.51449e-16)
(86.3355 -0.85738 -3.9616e-21)
(86.5401 -0.839597 -2.3495e-16)
(86.7407 -0.822489 2.07014e-16)
(86.9377 -0.806025 -1.92951e-16)
(87.1312 -0.790179 2.20215e-16)
(87.3213 -0.774923 -4.3985e-16)
(87.5081 -0.76023 3.19075e-21)
(87.6917 -0.746077 1.3713e-17)
(87.8724 -0.732438 1.917e-16)
(88.0502 -0.719295 1.98248e-23)
(88.2252 -0.70663 -2.73187e-17)
(88.3975 -0.694421 1.77428e-23)
(88.5673 -0.682649 0)
(88.7346 -0.671295 1.90565e-16)
(88.8996 -0.660343 -1.22371e-16)
(89.0623 -0.649768 -1.22236e-16)
(89.2229 -0.639555 1.3567e-17)
(89.3814 -0.629674 -2.71056e-17)
(89.5379 -0.620113 -1.35386e-17)
(89.6925 -0.610828 1.08199e-16)
(89.8453 -0.601803 -1.08089e-16)
(89.9964 -0.592965 1.07985e-16)
(90.1457 -0.58428 -1.753e-16)
(90.2932 -0.575619 -2.69442e-17)
(90.4392 -0.566903 1.21131e-16)
(90.5833 -0.557887 -2.68959e-17)
(90.7257 -0.548346 -8.06067e-17)
(90.866 -0.537862 2.68481e-17)
(91.0038 -0.525629 -6.42457e-23)
(91.1402 -0.511002 -1.33977e-17)
(91.3046 -0.494006 -2.86292e-17)
(64.7976 -13.1765 -4.64696e-15)
(64.6817 -12.0592 2.37575e-15)
(64.7586 -11.2863 1.21086e-15)
(65.2629 -10.5939 -1.17127e-15)
(65.9579 -9.92177 -1.8545e-17)
(66.711 -9.29729 1.19925e-15)
(67.4973 -8.73725 -2.34459e-15)
(68.3085 -8.2381 1.16252e-15)
(69.1302 -7.79036 0)
(69.949 -7.38562 0)
(70.7542 -7.01739 0)
(71.5409 -6.67997 1.74861e-17)
(72.308 -6.36896 1.73149e-17)
(73.052 -6.08138 1.715e-17)
(73.7747 -5.81385 1.69918e-17)
(74.4751 -5.56346 -1.07774e-15)
(75.1539 -5.32871 1.6618e-17)
(75.8111 -5.10787 1.07549e-15)
(76.4469 -4.89949 1.64082e-17)
(77.0614 -4.70241 1.62762e-17)
(77.6552 -4.51568 1.615e-17)
(78.2287 -4.33851 0)
(78.7824 -4.17019 1.03446e-15)
(79.3168 -4.0101 -9.95743e-16)
(79.8324 -3.8577 1.57007e-17)
(80.3298 -3.71251 -4.54231e-22)
(80.8097 -3.57415 -9.76908e-16)
(81.2726 -3.4422 9.86657e-16)
(81.7191 -3.31633 1.53296e-17)
(82.1497 -3.19621 1.52472e-17)
(82.5652 -3.08149 -9.55577e-16)
(82.9656 -2.97183 1.51339e-17)
(83.3515 -2.86698 1.92283e-15)
(83.7235 -2.76683 -9.57112e-16)
(84.0824 -2.67123 -9.38037e-16)
(84.4289 -2.58003 4.32589e-20)
(84.7636 -2.49303 9.59962e-16)
(85.0872 -2.41003 0)
(85.4002 -2.33083 -1.46563e-17)
(85.703 -2.25522 1.46031e-17)
(85.9962 -2.18303 9.31317e-16)
(86.2803 -2.11409 -9.137e-16)
(86.5556 -2.04825 0)
(86.8226 -1.98535 -1.29772e-22)
(87.0815 -1.92521 0)
(87.3328 -1.86769 1.43224e-17)
(87.5766 -1.81265 0)
(87.8133 -1.75996 -8.97202e-16)
(88.043 -1.70949 9.09054e-16)
(88.2662 -1.66112 1.4167e-17)
(88.4831 -1.61477 4.66325e-16)
(88.694 -1.57032 -4.37013e-16)
(88.8989 -1.52766 1.40639e-17)
(89.0982 -1.48671 -1.40322e-17)
(89.292 -1.4474 1.40016e-17)
(89.4807 -1.40964 0)
(89.6643 -1.37336 1.3944e-17)
(89.8432 -1.33852 0)
(90.0176 -1.30504 -1.38906e-17)
(90.1877 -1.27288 4.57552e-16)
(90.3537 -1.24197 -8.85824e-16)
(90.5158 -1.21228 4.5598e-16)
(90.6741 -1.18375 1.37946e-17)
(90.829 -1.15635 4.40711e-16)
(90.9805 -1.13002 -4.4003e-16)
(91.1289 -1.10473 -4.11888e-16)
(91.2742 -1.08043 4.38701e-16)
(91.4166 -1.05708 -4.24362e-16)
(91.5563 -1.03464 4.51102e-16)
(91.6934 -1.01308 1.36505e-17)
(91.828 -0.992343 -4.22577e-16)
(91.9602 -0.972407 8.84859e-16)
(92.0902 -0.953231 -4.35048e-16)
(92.218 -0.934781 0)
(92.3438 -0.91703 1.356e-17)
(92.4675 -0.899955 0)
(92.5894 -0.883519 1.35263e-17)
(92.7095 -0.867685 1.351e-17)
(92.8279 -0.852433 1.34941e-17)
(92.9446 -0.837747 1.34784e-17)
(93.0598 -0.823601 -2.01945e-16)
(93.1736 -0.809974 2.1517e-16)
(93.2859 -0.796846 -2.01498e-16)
(93.397 -0.784199 1.34211e-17)
(93.5068 -0.772001 1.34069e-17)
(93.6155 -0.760235 2.30206e-21)
(93.723 -0.748867 2.27405e-16)
(93.8296 -0.737884 -9.35398e-17)
(93.9351 -0.727233 1.20148e-16)
(94.0398 -0.716897 0)
(94.1435 -0.706791 1.33236e-17)
(94.2465 -0.696877 1.33102e-17)
(94.3487 -0.687006 1.32982e-17)
(94.4501 -0.677091 0)
(94.5507 -0.666852 1.32736e-17)
(94.6505 -0.656031 0)
(94.7494 -0.644139 1.32497e-17)
(94.8473 -0.630254 -2.64736e-17)
(94.9446 -0.613574 2.64466e-17)
(95.0629 -0.594232 2.81425e-17)
(86.6186 -13.2262 0)
(86.1327 -12.392 1.70387e-17)
(85.6905 -11.7824 -2.21138e-15)
(85.6841 -11.1729 4.36512e-15)
(85.9075 -10.5589 1.89453e-17)
(86.2044 -9.97266 -2.23845e-15)
(86.5399 -9.42801 2.20323e-15)
(86.9109 -8.92603 -2.19758e-15)
(87.307 -8.46384 2.19194e-15)
(87.7141 -8.03881 7.136e-19)
(88.1217 -7.64761 5.91147e-19)
(88.5244 -7.28525 -4.32926e-15)
(88.9176 -6.94925 -4.0445e-19)
(89.2992 -6.63637 4.2695e-15)
(89.6682 -6.34392 -2.13127e-15)
(90.0227 -6.07051 -1.65582e-17)
(90.3627 -5.81369 -1.85451e-21)
(90.6876 -5.57225 -1.63606e-17)
(90.9983 -5.34482 -1.44518e-21)
(91.2951 -5.12999 -1.27831e-21)
(91.5788 -4.92673 -1.13202e-21)
(91.8498 -4.73416 0)
(92.1089 -4.5515 -8.93603e-22)
(92.3566 -4.37801 -1.57829e-17)
(92.5937 -4.21307 -1.03574e-15)
(92.8207 -4.05612 9.83217e-16)
(93.0383 -3.90668 -9.9339e-16)
(93.247 -3.76426 9.88178e-16)
(93.4473 -3.62848 9.52315e-16)
(93.6396 -3.49884 -1.97151e-15)
(93.8245 -3.37514 9.73323e-16)
(94.0026 -3.25718 -1.51369e-17)
(94.1747 -3.1445 -1.50683e-17)
(94.341 -3.03674 9.45173e-16)
(94.502 -2.9335 -9.56129e-16)
(94.6577 -2.83469 0)
(94.8084 -2.74013 9.48194e-16)
(94.9542 -2.64963 -9.44435e-16)
(95.0953 -2.563 1.46985e-17)
(95.2317 -2.48008 -1.46422e-17)
(95.3635 -2.40071 1.4587e-17)
(95.491 -2.32473 -1.45336e-17)
(95.6141 -2.25198 1.44813e-17)
(95.7331 -2.18232 -1.44308e-17)
(95.848 -2.11561 1.43816e-17)
(95.9591 -2.05171 -9.31696e-16)
(96.0664 -1.99047 9.28733e-16)
(96.1702 -1.9319 -1.42434e-17)
(96.2705 -1.87576 1.42011e-17)
(96.3673 -1.82178 9.06227e-16)
(96.4609 -1.77001 -9.17818e-16)
(96.5513 -1.72041 1.40817e-17)
(96.6386 -1.67292 -1.40452e-17)
(96.7232 -1.62745 1.40099e-17)
(96.8053 -1.58393 -1.39763e-17)
(96.885 -1.54227 -8.78444e-16)
(96.9625 -1.50237 -1.38871e-17)
(97.038 -1.46416 1.39067e-17)
(97.1115 -1.42758 4.43321e-16)
(97.1833 -1.39254 1.13009e-20)
(97.2535 -1.35897 4.41531e-16)
(97.3221 -1.3268 -6.82838e-23)
(97.3894 -1.29596 0)
(97.4553 -1.26639 -2.74399e-17)
(97.52 -1.23802 0)
(97.5836 -1.21079 4.37474e-16)
(97.646 -1.18465 -4.3673e-16)
(97.7075 -1.15956 -2.72492e-17)
(97.768 -1.13545 0)
(97.8276 -1.11229 -4.20972e-16)
(97.8863 -1.09003 -1.35508e-17)
(97.9442 -1.06863 4.19649e-16)
(98.0013 -1.04804 -1.35162e-17)
(98.0577 -1.02823 -4.18365e-16)
(98.1135 -1.00915 4.17755e-16)
(98.1686 -0.990788 4.44053e-16)
(98.2232 -0.973113 -4.43431e-16)
(98.2773 -0.956101 -4.15967e-16)
(98.3309 -0.939726 4.28803e-16)
(98.3842 -0.923968 0)
(98.4372 -0.908798 2.27191e-16)
(98.4899 -0.894197 -2.00203e-16)
(98.5424 -0.880151 -1.99945e-16)
(98.5947 -0.866642 4.39323e-16)
(98.6469 -0.853631 -2.12744e-16)
(98.699 -0.841105 1.328e-17)
(98.751 -0.829024 2.25489e-16)
(98.8031 -0.817377 -1.98722e-16)
(98.8551 -0.806106 -2.11723e-16)
(98.9073 -0.795199 1.98254e-16)
(98.9595 -0.784559 0)
(99.012 -0.774152 0)
(99.0645 -0.763818 0)
(99.1173 -0.753472 -1.31565e-17)
(99.1703 -0.742821 1.31432e-17)
(99.2237 -0.731603 1.31274e-17)
(99.2773 -0.719284 0)
(99.3314 -0.704922 -1.30992e-17)
(99.3862 -0.687479 3.85146e-23)
(99.4543 -0.667014 2.76987e-17)
(103.799 -12.9147 -1.56367e-17)
(102.996 -12.4066 -1.58652e-17)
(102.151 -11.9758 0)
(101.726 -11.4549 1.04552e-20)
(101.577 -10.904 2.04975e-15)
(101.55 -10.3677 3.38618e-17)
(101.595 -9.85543 -2.07697e-15)
(101.702 -9.36846 0)
(101.862 -8.90846 -2.09936e-15)
(102.058 -8.47605 2.08257e-15)
(102.278 -8.07111 1.62659e-17)
(102.513 -7.69215 -1.62597e-17)
(102.754 -7.33722 2.06262e-15)
(102.997 -7.00476 1.65816e-17)
(103.236 -6.69272 -1.58957e-17)
(103.468 -6.39916 1.64066e-17)
(103.691 -6.12253 -1.59411e-17)
(103.902 -5.86121 -4.12175e-15)
(104.099 -5.61409 2.05606e-15)
(104.284 -5.38022 2.03523e-15)
(104.453 -5.1586 5.50383e-20)
(104.608 -4.94864 -2.04041e-15)
(104.748 -4.74948 -1.58975e-17)
(104.874 -4.56045 1.58513e-17)
(104.985 -4.38095 1.58064e-17)
(105.083 -4.21045 -2.03285e-15)
(105.167 -4.04846 3.00069e-15)
(105.238 -3.89454 -2.63282e-20)
(105.297 -3.74828 -9.67868e-16)
(105.345 -3.60928 0)
(105.382 -3.47701 9.61403e-16)
(105.41 -3.3511 -1.97789e-15)
(105.43 -3.23145 1.9859e-15)
(105.442 -3.11796 -1.97827e-15)
(105.446 -3.01024 9.6237e-16)
(105.445 -2.90789 1.52145e-17)
(105.438 -2.81057 -1.51541e-17)
(105.426 -2.71797 0)
(105.409 -2.62979 -9.77089e-16)
(105.39 -2.54575 9.58239e-16)
(105.367 -2.4656 -2.5444e-22)
(105.341 -2.38911 0)
(105.314 -2.31604 -9.46901e-16)
(105.284 -2.24619 9.58027e-16)
(105.253 -2.17934 -1.46828e-17)
(105.222 -2.11532 9.50798e-16)
(105.189 -2.05394 -1.46104e-17)
(105.156 -1.99505 -9.29429e-16)
(105.123 -1.93862 -1.31853e-22)
(105.089 -1.88451 9.23034e-16)
(105.056 -1.83252 -9.05674e-16)
(105.023 -1.7825 9.0277e-16)
(104.991 -1.73435 -9.14306e-16)
(104.959 -1.688 9.11518e-16)
(104.927 -1.64341 -9.08869e-16)
(104.897 -1.60051 -9.20381e-16)
(104.867 -1.55926 9.03702e-16)
(104.837 -1.51964 -1.40813e-17)
(104.808 -1.48158 1.40435e-17)
(104.78 -1.44498 -1.40068e-17)
(104.753 -1.40985 0)
(104.726 -1.37615 -7.48483e-23)
(104.7 -1.34382 8.89622e-16)
(104.674 -1.31282 -1.3312e-15)
(104.649 -1.28309 8.85347e-16)
(104.625 -1.25459 -1.38101e-17)
(104.601 -1.22728 -8.67476e-16)
(104.579 -1.20108 4.53371e-16)
(104.557 -1.17594 4.38659e-16)
(104.535 -1.15183 -4.51401e-16)
(104.514 -1.1287 0)
(104.494 -1.10654 -4.35902e-16)
(104.475 -1.0853 4.35038e-16)
(104.457 -1.06497 -4.68448e-23)
(104.439 -1.04549 0)
(104.422 -1.02685 -1.35164e-17)
(104.407 -1.009 0)
(104.392 -0.99187 -1.3467e-17)
(104.378 -0.975476 1.34429e-17)
(104.365 -0.959775 0)
(104.353 -0.944718 -1.33961e-17)
(104.342 -0.930277 -2.6856e-23)
(104.332 -0.916419 -2.26959e-16)
(104.323 -0.903124 1.86597e-16)
(104.315 -0.890354 -1.33067e-17)
(104.308 -0.878094 -1.32849e-17)
(104.302 -0.866295 -2.65279e-17)
(104.297 -0.854945 -1.32426e-17)
(104.293 -0.843982 -2.24778e-16)
(104.291 -0.833398 2.09987e-21)
(104.289 -0.823094 2.10908e-16)
(104.289 -0.813045 -1.05286e-16)
(104.29 -0.803086 9.19948e-17)
(104.292 -0.793152 1.31212e-17)
(104.295 -0.782959 -2.62069e-17)
(104.3 -0.772293 -1.30826e-17)
(104.306 -0.760596 -1.30659e-17)
(104.314 -0.747018 3.91346e-17)
(104.325 -0.730266 -3.90808e-17)
(104.341 -0.710118 -2.73823e-17)
(116.124 -12.2713 1.93339e-15)
(115.055 -12.0565 -1.97034e-15)
(113.883 -11.809 1.53948e-17)
(113.069 -11.4038 1.55181e-17)
(112.549 -10.9429 -2.01491e-15)
(112.199 -10.4846 1.99266e-15)
(111.958 -10.0381 2.01867e-15)
(111.808 -9.60356 -1.46817e-17)
(111.735 -9.183 1.68375e-17)
(111.725 -8.77921 -1.5087e-17)
(111.765 -8.39373 -1.52496e-17)
(111.843 -8.02658 -2.05808e-15)
(111.95 -7.67721 0)
(112.079 -7.34475 -3.19675e-17)
(112.224 -7.0284 -2.0467e-15)
(112.382 -6.72735 -3.22557e-17)
(112.547 -6.44072 -2.24795e-19)
(112.718 -6.16776 2.04536e-15)
(112.89 -5.9077 -3.194e-17)
(113.062 -5.65982 0)
(113.232 -5.42345 -3.18845e-17)
(113.398 -5.19801 0)
(113.559 -4.98296 -2.05189e-15)
(113.713 -4.77784 -1.58986e-17)
(113.86 -4.58213 2.01471e-15)
(113.998 -4.3955 1.58414e-17)
(114.127 -4.21749 -2.04036e-15)
(114.246 -4.04763 4.04272e-15)
(114.355 -3.88566 -3.15796e-17)
(114.452 -3.73131 -2.01445e-15)
(114.537 -3.58435 2.02647e-15)
(114.611 -3.44451 -2.02271e-15)
(114.671 -3.31142 0)
(114.719 -3.18468 7.63015e-22)
(114.753 -3.06399 0)
(114.774 -2.94909 -3.10899e-17)
(114.783 -2.83971 -9.76995e-16)
(114.778 -2.73562 9.74634e-16)
(114.761 -2.63661 0)
(114.732 -2.54246 1.00034e-15)
(114.691 -2.45294 -1.97996e-15)
(114.64 -2.36785 9.94896e-16)
(114.578 -2.28702 -3.05245e-17)
(114.506 -2.21024 -1.52179e-17)
(114.426 -2.13731 -1.51724e-17)
(114.337 -2.06808 -1.51267e-17)
(114.241 -2.00236 0)
(114.139 -1.94 0)
(114.03 -1.88079 9.29088e-16)
(113.918 -1.8245 -1.91189e-15)
(113.801 -1.77106 9.23002e-16)
(113.682 -1.72043 0)
(113.56 -1.67247 9.46222e-16)
(113.436 -1.62699 -9.57713e-16)
(113.312 -1.5838 0)
(113.187 -1.54277 -1.46325e-17)
(113.062 -1.50377 0)
(112.937 -1.46664 -9.30105e-16)
(112.814 -1.43128 1.83952e-15)
(112.692 -1.39755 -9.38364e-16)
(112.571 -1.36534 0)
(112.452 -1.33455 8.89186e-16)
(112.335 -1.30507 -9.14948e-16)
(112.22 -1.27682 8.22263e-23)
(112.108 -1.24973 0)
(111.997 -1.22371 1.41619e-17)
(111.889 -1.1987 -9.3184e-16)
(111.784 -1.17466 9.00901e-16)
(111.68 -1.15154 -1.40352e-17)
(111.579 -1.12929 0)
(111.481 -1.10785 -1.39554e-17)
(111.385 -1.08717 4.59246e-16)
(111.292 -1.06721 -4.58008e-16)
(111.201 -1.04797 -4.56765e-16)
(111.112 -1.02942 8.83525e-16)
(111.026 -1.01156 -8.81203e-16)
(110.942 -0.994385 8.78959e-16)
(110.86 -0.977878 -4.38359e-16)
(110.78 -0.962011 -3.95748e-23)
(110.702 -0.946798 0)
(110.627 -0.9322 -4.35129e-16)
(110.554 -0.918206 8.54573e-16)
(110.482 -0.904846 -8.66101e-16)
(110.413 -0.892069 4.45534e-16)
(110.345 -0.879837 -2.02054e-16)
(110.28 -0.868156 2.15029e-16)
(110.217 -0.856987 1.34096e-17)
(110.156 -0.846324 2.14066e-16)