/*--------------------------------*- C++ -*----------------------------------*\
  =========                 |
  \\      /  F ield         | OpenFOAM: The Open Source CFD Toolbox
   \\    /   O peration     | Website:  https://openfoam.org
    \\  /    A nd           | Version:  8
     \\/     M anipulation  |
\*---------------------------------------------------------------------------*/
FoamFile
{
    version     2.0;
    format      ascii;
    class       volScalarField;
    location    "1";
    object      N;
}
// * * * * * * * * * * * * * * * * * * * * * * * * * * * * * * * * * * * * * //

dimensions      [0 -3 0 0 0 0 0];

internalField   nonuniform List<scalar> 
200
(
1.949802e+11
16989231
856.95681
0.14206835
0.10000167
0.1000004
0.1000009
0.10000117
0.10000129
0.10000133
0.10000134
0.10000134
0.10000134
0.10000135
0.10000135
0.10000136
0.10000136
0.10000136
0.10000136
0.10000135
0.10000134
0.10000134
0.10000133
0.10000132
0.10000132
0.10000131
0.1000013
0.1000013
0.10000129
0.10000128
0.10000128
0.10000127
0.10000126
0.10000125
0.10000125
0.10000124
0.10000123
0.10000122
0.10000122
0.10000121
0.1000012
0.10000119
0.10000119
0.10000118
0.10000118
0.10000117
0.10000117
0.10000115
0.10000116
0.10000114
0.10000114
0.10000111
0.10000112
0.10000109
0.1000011
0.10000106
0.10000107
0.10000103
0.10000104
0.100001
0.10000102
0.10000097
0.100001
0.10000094
0.10000098
0.10000092
0.10000097
0.1000009
0.10000096
0.10000089
0.10000097
0.10000089
0.10000097
0.10000089
0.10000099
0.10000089
0.100001
0.10000089
0.10000101
0.10000089
0.10000102
0.10000089
0.10000103
0.10000089
0.10000104
0.10000088
0.10000104
0.10000087
0.10000103
0.10000086
0.10000103
0.10000084
0.10000101
0.10000082
0.100001
0.1000008
0.10000098
0.10000077
0.10000096
0.10000075
0.10000094
0.10000073
0.10000092
0.1000007
0.10000091
0.10000068
0.10000089
0.10000066
0.10000088
0.10000063
0.10000087
0.10000061
0.10000085
0.10000059
0.10000084
0.10000057
0.10000083
0.10000055
0.10000082
0.10000053
0.10000083
0.10000051
0.10000083
0.10000048
0.10000084
0.10000046
0.10000085
0.10000046
0.10000085
0.10000043
0.10000086
0.10000041
0.10000087
0.10000043
0.10000081
0.10000037
0.10000085
0.10000035
0.10000083
0.10000036
0.10000077
0.10000028
0.10000083
0.10000026
0.1000007
0.10000028
0.10000071
0.10000016
0.10000065
0.10000023
0.10000063
0.10000012
0.10000056
0.10000019
0.10000054
0.10000016
0.10000052
0.10000017
0.10000051
0.10000019
0.10000049
0.10000023
0.10000053
0.1000002
0.10000049
0.10000027
0.10000048
0.10000031
0.10000057
0.10000024
0.10000052
0.10000033
0.10000058
0.10000029
0.1000006
0.10000028
0.10000059
0.10000029
0.10000061
0.10000028
0.10000061
0.10000026
0.10000055
0.10000031
0.10000052
0.1000003
0.10000044
0.10000033
0.10000032
0.10000037
0.10000022
0.10000043
0.10000011
0.1000004
0.099999969
0.10000049
0.099999941
0.10000047
0.099999465
0.10000028
)
;

boundaryField
{
    left
    {
        type            zeroGradient;
    }
    right
    {
        type            zeroGradient;
    }
    walls
    {
        type            zeroGradient;
    }
    centreline
    {
        type            zeroGradient;
    }
    frontAndBack
    {
        type            zeroGradient;
    }
}


// ************************************************************************* //
