/*--------------------------------*- C++ -*----------------------------------*\
  =========                 |
  \\      /  F ield         | OpenFOAM: The Open Source CFD Toolbox
   \\    /   O peration     | Website:  https://openfoam.org
    \\  /    A nd           | Version:  8
     \\/     M anipulation  |
\*---------------------------------------------------------------------------*/
FoamFile
{
    version     2.0;
    format      ascii;
    class       surfaceScalarField;
    location    "1";
    object      phi;
}
// * * * * * * * * * * * * * * * * * * * * * * * * * * * * * * * * * * * * * //

dimensions      [1 0 -1 0 0 0 0];

internalField   nonuniform List<scalar> 
199
(
1.7412605e-05
3.0345015e-05
4.327691e-05
5.6312237e-05
6.9457353e-05
8.2717899e-05
9.6099443e-05
0.0001096074
0.00012324754
0.00013702564
0.00015094757
0.00016501938
0.00017924709
0.00019363699
0.0002081953
0.00022292869
0.00023784326
0.00025294651
0.000268244
0.00028374335
0.00029945096
0.0003153708
0.00033151526
0.00034787574
0.00036448243
0.00038129791
0.00039839015
0.00041566826
0.0004332674
0.00045100889
0.00046913474
0.00048733369
0.00050600511
0.00052464918
0.00054388445
0.00056295479
0.0005827716
0.00060224234
0.00062265739
0.00064249481
0.00066352346
0.00068368535
0.00070534167
0.00072577764
0.0007480755
0.00076872804
0.00079168296
0.00081248869
0.00083611951
0.00085700948
0.00088133866
0.0009022379
0.00092729248
0.00094812194
0.00097393793
0.00099462038
0.0010212483
0.0010417129
0.0010692224
0.0010894115
0.0011178802
0.001137722
0.0011672833
0.0011867905
0.0012174512
0.0012363818
0.0012685126
0.001287219
0.00132026
0.0013376459
0.00137318
0.0013913126
0.0014263711
0.001440884
0.001481415
0.0014999605
0.0015360447
0.0015461172
0.0015922794
0.0016097773
0.0016491417
0.0016566247
0.001705921
0.0017192167
0.0017615391
0.0017712662
0.0018034008
0.0018323835
0.0018608838
0.0018891668
0.0019174922
0.0019457331
0.0019740346
0.0020022229
0.0020304426
0.0020585031
0.0020865646
0.002114411
0.0021422314
0.0021697677
0.0021972558
0.0022243753
0.0022514308
0.0022780165
0.0023045287
0.002330455
0.0023563024
0.0023814359
0.0024064868
0.0024306884
0.0024548018
0.002477928
0.0025009564
0.0025228613
0.0025446533
0.0025651898
0.0025855925
0.0026046117
0.0026234709
0.0026408197
0.002657976
0.0026734892
0.0026887689
0.0027022574
0.0027154586
0.0027266942
0.0027375705
0.0027462716
0.00275452
0.0027603458
0.0027656089
0.0027681726
0.0027700628
0.0027689724
0.0027671278
0.0027620562
0.002756222
0.0027469979
0.0027371182
0.0027238128
0.0027101021
0.0026930777
0.0026760368
0.0026559249
0.002636276
0.002613872
0.0025924148
0.0025685076
0.0025459311
0.0025211158
0.002497826
0.0024723652
0.0024483883
0.0024221722
0.002397176
0.0023698137
0.0023432517
0.0023142105
0.002285487
0.0022543643
0.0022231025
0.0021897951
0.002155967
0.0021207254
0.0020846433
0.0020479783
0.0020101646
0.0019726523
0.0019336789
0.0018957854
0.0018561987
0.0018182075
0.001778571
0.0017405937
0.0017015724
0.0016635592
0.0016259586
0.0015876801
0.0015524247
0.0015134795
0.001481557
0.0014414754
0.0014138798
0.0013723999
0.0013501479
0.0013077236
0.0012919674
0.0012501957
0.0012418915
0.0012025427
0.0012006421
0.0011624774
0.0011635961
0.0011234603
0.0011284256
0.0010833845
0.0011109412
0.0010748503
0.0011033791
)
;

boundaryField
{
    left
    {
        type            calculated;
        value           uniform 0;
    }
    right
    {
        type            calculated;
        value           uniform 0;
    }
    walls
    {
        type            calculated;
        value           uniform 0;
    }
    centreline
    {
        type            calculated;
        value           uniform 0.0010429955;
    }
    frontAndBack
    {
        type            calculated;
        value           uniform 0;
    }
}


// ************************************************************************* //
