/*--------------------------------*- C++ -*----------------------------------*\
  =========                 |
  \\      /  F ield         | OpenFOAM: The Open Source CFD Toolbox
   \\    /   O peration     | Website:  https://openfoam.org
    \\  /    A nd           | Version:  8
     \\/     M anipulation  |
\*---------------------------------------------------------------------------*/
FoamFile
{
    version     2.0;
    format      ascii;
    class       volScalarField;
    location    "1";
    object      rho;
}
// * * * * * * * * * * * * * * * * * * * * * * * * * * * * * * * * * * * * * //

dimensions      [1 -3 0 0 0 0 0];

internalField   nonuniform List<scalar> 
200
(
0.80648027
0.59773091
0.59330426
0.59324717
0.59325275
0.59325773
0.59326098
0.59326275
0.59326355
0.59326383
0.59326389
0.5932639
0.59326392
0.59326394
0.59326398
0.59326401
0.59326402
0.59326402
0.593264
0.59326396
0.59326392
0.59326387
0.59326383
0.59326378
0.59326374
0.5932637
0.59326366
0.59326361
0.59326358
0.59326352
0.59326348
0.59326342
0.59326338
0.59326332
0.59326327
0.59326321
0.59326317
0.5932631
0.59326308
0.59326301
0.593263
0.59326293
0.59326293
0.59326285
0.59326286
0.59326276
0.59326278
0.59326266
0.59326269
0.59326254
0.59326258
0.5932624
0.59326245
0.59326224
0.5932623
0.59326205
0.59326213
0.59326185
0.59326195
0.59326164
0.59326179
0.59326144
0.59326163
0.59326128
0.59326152
0.59326112
0.59326145
0.59326102
0.59326141
0.59326096
0.59326143
0.59326093
0.59326148
0.59326092
0.59326157
0.59326092
0.59326165
0.59326095
0.59326174
0.59326096
0.59326181
0.59326097
0.59326186
0.59326093
0.5932619
0.59326089
0.5932619
0.5932608
0.59326187
0.59326071
0.59326183
0.59326059
0.59326173
0.59326045
0.59326163
0.59326033
0.59326151
0.59326016
0.59326139
0.59326002
0.59326127
0.59325986
0.59326117
0.59325969
0.59326105
0.59325955
0.59326096
0.59325941
0.59326088
0.59325922
0.59326079
0.5932591
0.59326071
0.59325896
0.59326062
0.5932588
0.59326058
0.59325867
0.59326054
0.59325853
0.59326057
0.59325837
0.5932606
0.59325822
0.59326066
0.59325805
0.59326077
0.59325801
0.59326073
0.5932578
0.59326084
0.59325766
0.59326094
0.59325783
0.59326052
0.59325737
0.59326079
0.59325728
0.59326072
0.59325729
0.59326034
0.59325674
0.59326074
0.59325659
0.59325992
0.5932567
0.59326
0.5932559
0.5932596
0.59325635
0.59325957
0.59325558
0.59325912
0.59325599
0.59325904
0.59325576
0.59325893
0.59325579
0.59325895
0.5932558
0.59325887
0.59325602
0.59325923
0.59325577
0.593259
0.59325616
0.59325904
0.59325629
0.59325976
0.59325573
0.59325956
0.59325618
0.59326006
0.59325578
0.59326033
0.59325556
0.59326044
0.59325548
0.59326078
0.59325519
0.59326094
0.59325484
0.59326075
0.59325493
0.5932608
0.59325463
0.59326054
0.59325452
0.59326009
0.59325447
0.59325976
0.59325454
0.59325941
0.59325391
0.59325889
0.59325407
0.59325914
0.59325352
0.59325669
0.59325716
)
;

boundaryField
{
    left
    {
        type            calculated;
        value           nonuniform List<scalar> 
200
(
0.80648027
0.59773091
0.59330426
0.59324717
0.59325275
0.59325773
0.59326098
0.59326275
0.59326355
0.59326383
0.59326389
0.5932639
0.59326392
0.59326394
0.59326398
0.59326401
0.59326402
0.59326402
0.593264
0.59326396
0.59326392
0.59326387
0.59326383
0.59326378
0.59326374
0.5932637
0.59326366
0.59326361
0.59326358
0.59326352
0.59326348
0.59326342
0.59326338
0.59326332
0.59326327
0.59326321
0.59326317
0.5932631
0.59326308
0.59326301
0.593263
0.59326293
0.59326293
0.59326285
0.59326286
0.59326276
0.59326278
0.59326266
0.59326269
0.59326254
0.59326258
0.5932624
0.59326245
0.59326224
0.5932623
0.59326205
0.59326213
0.59326185
0.59326195
0.59326164
0.59326179
0.59326144
0.59326163
0.59326128
0.59326152
0.59326112
0.59326145
0.59326102
0.59326141
0.59326096
0.59326143
0.59326093
0.59326148
0.59326092
0.59326157
0.59326092
0.59326165
0.59326095
0.59326174
0.59326096
0.59326181
0.59326097
0.59326186
0.59326093
0.5932619
0.59326089
0.5932619
0.5932608
0.59326187
0.59326071
0.59326183
0.59326059
0.59326173
0.59326045
0.59326163
0.59326033
0.59326151
0.59326016
0.59326139
0.59326002
0.59326127
0.59325986
0.59326117
0.59325969
0.59326105
0.59325955
0.59326096
0.59325941
0.59326088
0.59325922
0.59326079
0.5932591
0.59326071
0.59325896
0.59326062
0.5932588
0.59326058
0.59325867
0.59326054
0.59325853
0.59326057
0.59325837
0.5932606
0.59325822
0.59326066
0.59325805
0.59326077
0.59325801
0.59326073
0.5932578
0.59326084
0.59325766
0.59326094
0.59325783
0.59326052
0.59325737
0.59326079
0.59325728
0.59326072
0.59325729
0.59326034
0.59325674
0.59326074
0.59325659
0.59325992
0.5932567
0.59326
0.5932559
0.5932596
0.59325635
0.59325957
0.59325558
0.59325912
0.59325599
0.59325904
0.59325576
0.59325893
0.59325579
0.59325895
0.5932558
0.59325887
0.59325602
0.59325923
0.59325577
0.593259
0.59325616
0.59325904
0.59325629
0.59325976
0.59325573
0.59325956
0.59325618
0.59326006
0.59325578
0.59326033
0.59325556
0.59326044
0.59325548
0.59326078
0.59325519
0.59326094
0.59325484
0.59326075
0.59325493
0.5932608
0.59325463
0.59326054
0.59325452
0.59326009
0.59325447
0.59325976
0.59325454
0.59325941
0.59325391
0.59325889
0.59325407
0.59325914
0.59325352
0.59325669
0.59325716
)
;
    }
    right
    {
        type            calculated;
        value           nonuniform List<scalar> 
200
(
0.80648027
0.59773091
0.59330426
0.59324717
0.59325275
0.59325773
0.59326098
0.59326275
0.59326355
0.59326383
0.59326389
0.5932639
0.59326392
0.59326394
0.59326398
0.59326401
0.59326402
0.59326402
0.593264
0.59326396
0.59326392
0.59326387
0.59326383
0.59326378
0.59326374
0.5932637
0.59326366
0.59326361
0.59326358
0.59326352
0.59326348
0.59326342
0.59326338
0.59326332
0.59326327
0.59326321
0.59326317
0.5932631
0.59326308
0.59326301
0.593263
0.59326293
0.59326293
0.59326285
0.59326286
0.59326276
0.59326278
0.59326266
0.59326269
0.59326254
0.59326258
0.5932624
0.59326245
0.59326224
0.5932623
0.59326205
0.59326213
0.59326185
0.59326195
0.59326164
0.59326179
0.59326144
0.59326163
0.59326128
0.59326152
0.59326112
0.59326145
0.59326102
0.59326141
0.59326096
0.59326143
0.59326093
0.59326148
0.59326092
0.59326157
0.59326092
0.59326165
0.59326095
0.59326174
0.59326096
0.59326181
0.59326097
0.59326186
0.59326093
0.5932619
0.59326089
0.5932619
0.5932608
0.59326187
0.59326071
0.59326183
0.59326059
0.59326173
0.59326045
0.59326163
0.59326033
0.59326151
0.59326016
0.59326139
0.59326002
0.59326127
0.59325986
0.59326117
0.59325969
0.59326105
0.59325955
0.59326096
0.59325941
0.59326088
0.59325922
0.59326079
0.5932591
0.59326071
0.59325896
0.59326062
0.5932588
0.59326058
0.59325867
0.59326054
0.59325853
0.59326057
0.59325837
0.5932606
0.59325822
0.59326066
0.59325805
0.59326077
0.59325801
0.59326073
0.5932578
0.59326084
0.59325766
0.59326094
0.59325783
0.59326052
0.59325737
0.59326079
0.59325728
0.59326072
0.59325729
0.59326034
0.59325674
0.59326074
0.59325659
0.59325992
0.5932567
0.59326
0.5932559
0.5932596
0.59325635
0.59325957
0.59325558
0.59325912
0.59325599
0.59325904
0.59325576
0.59325893
0.59325579
0.59325895
0.5932558
0.59325887
0.59325602
0.59325923
0.59325577
0.593259
0.59325616
0.59325904
0.59325629
0.59325976
0.59325573
0.59325956
0.59325618
0.59326006
0.59325578
0.59326033
0.59325556
0.59326044
0.59325548
0.59326078
0.59325519
0.59326094
0.59325484
0.59326075
0.59325493
0.5932608
0.59325463
0.59326054
0.59325452
0.59326009
0.59325447
0.59325976
0.59325454
0.59325941
0.59325391
0.59325889
0.59325407
0.59325914
0.59325352
0.59325669
0.59325716
)
;
    }
    walls
    {
        type            calculated;
        value           uniform 0.59489183;
    }
    centreline
    {
        type            calculated;
        value           uniform 0.59325508;
    }
    frontAndBack
    {
        type            calculated;
        value           nonuniform List<scalar> 
400
(
0.80648027
0.59773091
0.59330426
0.59324717
0.59325275
0.59325773
0.59326098
0.59326275
0.59326355
0.59326383
0.59326389
0.5932639
0.59326392
0.59326394
0.59326398
0.59326401
0.59326402
0.59326402
0.593264
0.59326396
0.59326392
0.59326387
0.59326383
0.59326378
0.59326374
0.5932637
0.59326366
0.59326361
0.59326358
0.59326352
0.59326348
0.59326342
0.59326338
0.59326332
0.59326327
0.59326321
0.59326317
0.5932631
0.59326308
0.59326301
0.593263
0.59326293
0.59326293
0.59326285
0.59326286
0.59326276
0.59326278
0.59326266
0.59326269
0.59326254
0.59326258
0.5932624
0.59326245
0.59326224
0.5932623
0.59326205
0.59326213
0.59326185
0.59326195
0.59326164
0.59326179
0.59326144
0.59326163
0.59326128
0.59326152
0.59326112
0.59326145
0.59326102
0.59326141
0.59326096
0.59326143
0.59326093
0.59326148
0.59326092
0.59326157
0.59326092
0.59326165
0.59326095
0.59326174
0.59326096
0.59326181
0.59326097
0.59326186
0.59326093
0.5932619
0.59326089
0.5932619
0.5932608
0.59326187
0.59326071
0.59326183
0.59326059
0.59326173
0.59326045
0.59326163
0.59326033
0.59326151
0.59326016
0.59326139
0.59326002
0.59326127
0.59325986
0.59326117
0.59325969
0.59326105
0.59325955
0.59326096
0.59325941
0.59326088
0.59325922
0.59326079
0.5932591
0.59326071
0.59325896
0.59326062
0.5932588
0.59326058
0.59325867
0.59326054
0.59325853
0.59326057
0.59325837
0.5932606
0.59325822
0.59326066
0.59325805
0.59326077
0.59325801
0.59326073
0.5932578
0.59326084
0.59325766
0.59326094
0.59325783
0.59326052
0.59325737
0.59326079
0.59325728
0.59326072
0.59325729
0.59326034
0.59325674
0.59326074
0.59325659
0.59325992
0.5932567
0.59326
0.5932559
0.5932596
0.59325635
0.59325957
0.59325558
0.59325912
0.59325599
0.59325904
0.59325576
0.59325893
0.59325579
0.59325895
0.5932558
0.59325887
0.59325602
0.59325923
0.59325577
0.593259
0.59325616
0.59325904
0.59325629
0.59325976
0.59325573
0.59325956
0.59325618
0.59326006
0.59325578
0.59326033
0.59325556
0.59326044
0.59325548
0.59326078
0.59325519
0.59326094
0.59325484
0.59326075
0.59325493
0.5932608
0.59325463
0.59326054
0.59325452
0.59326009
0.59325447
0.59325976
0.59325454
0.59325941
0.59325391
0.59325889
0.59325407
0.59325914
0.59325352
0.59325669
0.59325716
0.80648027
0.59773091
0.59330426
0.59324717
0.59325275
0.59325773
0.59326098
0.59326275
0.59326355
0.59326383
0.59326389
0.5932639
0.59326392
0.59326394
0.59326398
0.59326401
0.59326402
0.59326402
0.593264
0.59326396
0.59326392
0.59326387
0.59326383
0.59326378
0.59326374
0.5932637
0.59326366
0.59326361
0.59326358
0.59326352
0.59326348
0.59326342
0.59326338
0.59326332
0.59326327
0.59326321
0.59326317
0.5932631
0.59326308
0.59326301
0.593263
0.59326293
0.59326293
0.59326285
0.59326286
0.59326276
0.59326278
0.59326266
0.59326269
0.59326254
0.59326258
0.5932624
0.59326245
0.59326224
0.5932623
0.59326205
0.59326213
0.59326185
0.59326195
0.59326164
0.59326179
0.59326144
0.59326163
0.59326128
0.59326152
0.59326112
0.59326145
0.59326102
0.59326141
0.59326096
0.59326143
0.59326093
0.59326148
0.59326092
0.59326157
0.59326092
0.59326165
0.59326095
0.59326174
0.59326096
0.59326181
0.59326097
0.59326186
0.59326093
0.5932619
0.59326089
0.5932619
0.5932608
0.59326187
0.59326071
0.59326183
0.59326059
0.59326173
0.59326045
0.59326163
0.59326033
0.59326151
0.59326016
0.59326139
0.59326002
0.59326127
0.59325986
0.59326117
0.59325969
0.59326105
0.59325955
0.59326096
0.59325941
0.59326088
0.59325922
0.59326079
0.5932591
0.59326071
0.59325896
0.59326062
0.5932588
0.59326058
0.59325867
0.59326054
0.59325853
0.59326057
0.59325837
0.5932606
0.59325822
0.59326066
0.59325805
0.59326077
0.59325801
0.59326073
0.5932578
0.59326084
0.59325766
0.59326094
0.59325783
0.59326052
0.59325737
0.59326079
0.59325728
0.59326072
0.59325729
0.59326034
0.59325674
0.59326074
0.59325659
0.59325992
0.5932567
0.59326
0.5932559
0.5932596
0.59325635
0.59325957
0.59325558
0.59325912
0.59325599
0.59325904
0.59325576
0.59325893
0.59325579
0.59325895
0.5932558
0.59325887
0.59325602
0.59325923
0.59325577
0.593259
0.59325616
0.59325904
0.59325629
0.59325976
0.59325573
0.59325956
0.59325618
0.59326006
0.59325578
0.59326033
0.59325556
0.59326044
0.59325548
0.59326078
0.59325519
0.59326094
0.59325484
0.59326075
0.59325493
0.5932608
0.59325463
0.59326054
0.59325452
0.59326009
0.59325447
0.59325976
0.59325454
0.59325941
0.59325391
0.59325889
0.59325407
0.59325914
0.59325352
0.59325669
0.59325716
)
;
    }
}


// ************************************************************************* //
