/*--------------------------------*- C++ -*----------------------------------*\
  =========                 |
  \\      /  F ield         | OpenFOAM: The Open Source CFD Toolbox
   \\    /   O peration     | Website:  https://openfoam.org
    \\  /    A nd           | Version:  8
     \\/     M anipulation  |
\*---------------------------------------------------------------------------*/
FoamFile
{
    version     2.0;
    format      ascii;
    class       volScalarField;
    location    "1";
    object      T;
}
// * * * * * * * * * * * * * * * * * * * * * * * * * * * * * * * * * * * * * //

dimensions      [0 0 0 1 0 0 0];

internalField   nonuniform List<scalar> 
200
(
277.23001
370.27412
372.9724
373.00747
373.00404
373.00098
372.99899
372.9979
372.99741
372.99723
372.99719
372.99718
372.99718
372.99716
372.99713
372.99711
372.9971
372.9971
372.99711
372.99713
372.99716
372.99718
372.99721
372.99723
372.99726
372.99728
372.9973
372.99732
372.99734
372.99737
372.99739
372.99742
372.99745
372.99747
372.9975
372.99753
372.99756
372.99758
372.9976
372.99762
372.99764
372.99766
372.99767
372.99769
372.99771
372.99772
372.99774
372.99776
372.99779
372.99781
372.99784
372.99788
372.99791
372.99795
372.99799
372.99804
372.99809
372.99813
372.99818
372.99823
372.99828
372.99832
372.99836
372.99839
372.99842
372.99844
372.99845
372.99847
372.99847
372.99846
372.99845
372.99843
372.99841
372.99839
372.99836
372.99834
372.9983
372.99827
372.99824
372.9982
372.99819
372.99814
372.99816
372.9981
372.99814
372.99806
372.99814
372.99805
372.99815
372.99804
372.99817
372.99805
372.99822
372.99807
372.99828
372.99808
372.99835
372.99811
372.99842
372.99812
372.99849
372.99815
372.99855
372.99818
372.99862
372.99819
372.99868
372.9982
372.99873
372.99823
372.99878
372.99823
372.99883
372.99823
372.99889
372.99825
372.99892
372.99825
372.99895
372.99825
372.99893
372.99827
372.99891
372.99828
372.99889
372.9983
372.99882
372.99825
372.99885
372.9983
372.99879
372.99831
372.99874
372.99813
372.999
372.99834
372.99885
372.99833
372.9989
372.99826
372.99915
372.99854
372.9989
372.99858
372.99942
372.99845
372.99938
372.99889
372.99962
372.99856
372.99964
372.99899
372.99991
372.99869
372.99995
372.99879
373.00001
372.99874
372.99998
372.9987
373.00001
372.99853
372.99977
372.99865
372.99989
372.99839
372.99985
372.99828
372.99939
372.99859
372.99949
372.99829
372.99917
372.9985
372.99899
372.99861
372.99891
372.99862
372.99868
372.99877
372.99855
372.99896
372.99863
372.9989
372.99853
372.9991
372.9986
372.99923
372.99873
372.99936
372.99872
372.99948
372.99868
373.00008
372.99867
373.00028
372.9981
373.00099
372.99914
372.99921
)
;

boundaryField
{
    left
    {
        type            zeroGradient;
    }
    right
    {
        type            zeroGradient;
    }
    walls
    {
        type            fixedValue;
        value           uniform 372;
    }
    centreline
    {
        type            fixedValue;
        value           uniform 373;
    }
    frontAndBack
    {
        type            zeroGradient;
    }
}


// ************************************************************************* //
