/*--------------------------------*- C++ -*----------------------------------*\
  =========                 |
  \\      /  F ield         | OpenFOAM: The Open Source CFD Toolbox
   \\    /   O peration     | Website:  https://openfoam.org
    \\  /    A nd           | Version:  8
     \\/     M anipulation  |
\*---------------------------------------------------------------------------*/
FoamFile
{
    version     2.0;
    format      ascii;
    class       volVectorField;
    location    "1";
    object      U;
}
// * * * * * * * * * * * * * * * * * * * * * * * * * * * * * * * * * * * * * //

dimensions      [0 1 -1 0 0 0 0];

internalField   nonuniform List<vector> 
200
(
(0 2.7847325e-05 0)
(0 -1.2098931e-05 0)
(0 3.6955676e-05 0)
(0 -5.5093464e-07 0)
(0 4.8015467e-05 0)
(0 1.0435449e-05 0)
(0 5.9415456e-05 0)
(0 2.1415981e-05 0)
(0 7.1017837e-05 0)
(0 3.2827978e-05 0)
(0 8.2545752e-05 0)
(0 4.4778334e-05 0)
(0 9.4063985e-05 0)
(0 5.7172443e-05 0)
(0 0.0001057676 0)
(0 6.9752009e-05 0)
(0 0.00011819802 0)
(0 8.1488198e-05 0)
(0 0.00013330182 0)
(0 8.9547025e-05 0)
(0 0.00015465248 0)
(0 9.0026722e-05 0)
(0 0.00018635504 0)
(0 7.8768062e-05 0)
(0 0.0002326761 0)
(0 5.1500036e-05 0)
(0 0.00029794278 0)
(0 3.904342e-06 0)
(0 0.00038652661 0)
(0 -6.8401517e-05 0)
(0 0.00050286993 0)
(0 -0.00016989098 0)
(0 0.00065151226 0)
(0 -0.00030515486 0)
(0 0.00083711831 0)
(0 -0.0004789297 0)
(0 0.0010645078 0)
(0 -0.00069612897 0)
(0 0.0013386871 0)
(0 -0.00096187534 0)
(0 0.0016648786 0)
(0 -0.0012815269 0)
(0 0.0020485395 0)
(0 -0.0016606902 0)
(0 0.0024953717 0)
(0 -0.0021052258 0)
(0 0.0030113247 0)
(0 -0.0026212454 0)
(0 0.0036025915 0)
(0 -0.0032150995 0)
(0 0.0042755931 0)
(0 -0.003893358 0)
(0 0.0050369555 0)
(0 -0.0046627845 0)
(0 0.0058934859 0)
(0 -0.0055303059 0)
(0 0.0068521486 0)
(0 -0.0065029788 0)
(0 0.0079200453 0)
(0 -0.0075879669 0)
(0 0.0091043963 0)
(0 -0.0087925189 0)
(0 0.010412522 0)
(0 -0.010123954 0)
(0 0.011851806 0)
(0 -0.011589631 0)
(0 0.013429682 0)
(0 -0.013196987 0)
(0 0.015153552 0)
(0 -0.014953406 0)
(0 0.017030971 0)
(0 -0.016866481 0)
(0 0.019069168 0)
(0 -0.018943327 0)
(0 0.021276034 0)
(0 -0.021191979 0)
(0 0.023657988 0)
(0 -0.023618636 0)
(0 0.026223704 0)
(0 -0.026232258 0)
(0 0.028978438 0)
(0 -0.029037899 0)
(0 0.031931443 0)
(0 -0.032044773 0)
(0 0.035087556 0)
(0 -0.035258162 0)
(0 0.038455503 0)
(0 -0.038687316 0)
(0 0.042042201 0)
(0 -0.042340922 0)
(0 0.045857435 0)
(0 -0.04622368 0)
(0 0.049904914 0)
(0 -0.050342324 0)
(0 0.054191796 0)
(0 -0.054704098 0)
(0 0.058725255 0)
(0 -0.059316319 0)
(0 0.063512469 0)
(0 -0.064186269 0)
(0 0.068560485 0)
(0 -0.069321031 0)
(0 0.073876054 0)
(0 -0.074727311 0)
(0 0.079465426 0)
(0 -0.080411233 0)
(0 0.085334166 0)
(0 -0.086378168 0)
(0 0.091486996 0)
(0 -0.092632603 0)
(0 0.097927704 0)
(0 -0.099178087 0)
(0 0.10465912 0)
(0 -0.10601722 0)
(0 0.11168315 0)
(0 -0.11315174 0)
(0 0.11900085 0)
(0 -0.12058255 0)
(0 0.12661251 0)
(0 -0.12830984 0)
(0 0.13451774 0)
(0 -0.13633318 0)
(0 0.14271548 0)
(0 -0.14465146 0)
(0 0.15120403 0)
(0 -0.15326299 0)
(0 0.15998098 0)
(0 -0.16216538 0)
(0 0.16904311 0)
(0 -0.17135551 0)
(0 0.1783863 0)
(0 -0.18082938 0)
(0 0.18800546 0)
(0 -0.19058201 0)
(0 0.19789441 0)
(0 -0.20060732 0)
(0 0.20804589 0)
(0 -0.21089792 0)
(0 0.21845151 0)
(0 -0.22144499 0)
(0 0.22910186 0)
(0 -0.23223824 0)
(0 0.23998647 0)
(0 -0.24326586 0)
(0 0.25109389 0)
(0 -0.25451466 0)
(0 0.26241165 0)
(0 -0.26597029 0)
(0 0.27392627 0)
(0 -0.27761761 0)
(0 0.28562334 0)
(0 -0.28944109 0)
(0 0.29748767 0)
(0 -0.30142519 0)
(0 0.3095037 0)
(0 -0.31355482 0)
(0 0.32165598 0)
(0 -0.32581579 0)
(0 0.33392998 0)
(0 -0.33819525 0)
(0 0.34631296 0)
(0 -0.35068222 0)
(0 0.3587948 0)
(0 -0.36326821 0)
(0 0.37136891 0)
(0 -0.37594799 0)
(0 0.3840327 0)
(0 -0.38872021 0)
(0 0.39678789 0)
(0 -0.4015877 0)
(0 0.4096402 0)
(0 -0.41455707 0)
(0 0.42259832 0)
(0 -0.42763721 0)
(0 0.4356719 0)
(0 -0.44083639 0)
(0 0.44886791 0)
(0 -0.45415777 0)
(0 0.46218529 0)
(0 -0.46759328 0)
(0 0.475608 0)
(0 -0.48111595 0)
(0 0.48909703 0)
(0 -0.49467172 0)
(0 0.50258247 0)
(0 -0.50817209 0)
(0 0.51595794 0)
(0 -0.52148962 0)
(0 0.52907872 0)
(0 -0.53445882 0)
(0 0.54176443 0)
(0 -0.54688335 0)
(0 0.5538035 0)
(0 -0.558543 0)
(0 0.56495801 0)
(0 -0.56918859 0)
(0 0.57497344 0)
(0 -0.57871707 0)
(0 0.5839301 0)
(0 -0.58651621 0)
)
;

boundaryField
{
    left
    {
        type            noSlip;
    }
    right
    {
        type            noSlip;
    }
    walls
    {
        type            noSlip;
    }
    centreline
    {
        type            noSlip;
    }
    frontAndBack
    {
        type            noSlip;
    }
}


// ************************************************************************* //
