/*--------------------------------*- C++ -*----------------------------------*\
  =========                 |
  \\      /  F ield         | OpenFOAM: The Open Source CFD Toolbox
   \\    /   O peration     | Website:  https://openfoam.org
    \\  /    A nd           | Version:  8
     \\/     M anipulation  |
\*---------------------------------------------------------------------------*/
FoamFile
{
    version     2.0;
    format      ascii;
    class       volScalarField;
    location    "2.0000073";
    object      alphat;
}
// * * * * * * * * * * * * * * * * * * * * * * * * * * * * * * * * * * * * * //

dimensions      [1 -1 -1 0 0 0 0];

internalField   nonuniform List<scalar> 
6800
(
0.0484901
0.066238
0.0669039
0.0651009
0.0649589
0.0555816
0.0445891
0.0332646
0.0271645
0.027773
0.0350732
0.057572
0.0618696
0.062622
0.0583183
0.0452907
0.0333491
0.0288222
0.0266384
0.0224734
0.0351803
0.0555736
0.0613693
0.0583891
0.0479229
0.0353923
0.0298544
0.0263319
0.0205381
0.0186174
0.0355798
0.0547509
0.05837
0.0537161
0.040526
0.0330096
0.0272504
0.0220121
0.0191008
0.0178818
0.0353062
0.0538417
0.0568407
0.0485745
0.0356648
0.0282331
0.0228691
0.0205723
0.0181754
0.0155037
0.0352758
0.0548605
0.054782
0.0418905
0.0317688
0.0270151
0.0230631
0.0193297
0.016057
0.014703
0.0349216
0.0557715
0.0526566
0.0387888
0.0311766
0.0244009
0.0199641
0.0168768
0.0153247
0.0143064
0.0348071
0.0575452
0.0491416
0.0335447
0.0266745
0.0233789
0.0191753
0.017066
0.0145685
0.01346
0.0345872
0.058758
0.0441388
0.0350629
0.0286186
0.0216123
0.0175613
0.0153802
0.0138288
0.013202
0.0346193
0.0599647
0.0418471
0.0305647
0.0232088
0.0209292
0.017143
0.0152756
0.0136056
0.0126766
0.335981
0.499335
0.56967
0.590165
0.588138
0.594306
0.605104
0.618527
0.627568
0.631515
0.316468
0.479156
0.544116
0.566407
0.560025
0.561514
0.566707
0.570773
0.568556
0.565747
0.291756
0.449185
0.511971
0.519432
0.51388
0.510867
0.5072
0.505123
0.504293
0.49658
0.28652
0.413041
0.458592
0.463513
0.454412
0.44059
0.43201
0.420867
0.399444
0.357827
0.267185
0.37889
0.411566
0.397347
0.376061
0.359248
0.340235
0.301491
0.270162
0.207486
0.254494
0.345218
0.341644
0.322777
0.306097
0.270021
0.228951
0.172382
0.14017
0.100445
0.282688
0.30321
0.285248
0.264594
0.211887
0.15744
0.11606
0.0894499
0.0816948
0.063357
0.277877
0.238274
0.217318
0.164461
0.114907
0.0914391
0.0781134
0.0652389
0.062429
0.0505194
0.247428
0.172486
0.136952
0.0950978
0.0791438
0.0715427
0.0634709
0.0566375
0.05434
0.0392654
0.147779
0.0928837
0.0806402
0.0715973
0.0687433
0.0646975
0.0559362
0.0491136
0.0352269
0.0283894
0.634012
0.627371
0.616742
0.60517
0.594193
0.584313
0.575577
0.568164
0.561882
0.556433
0.551629
0.547342
0.543486
0.539996
0.536822
0.533922
0.53126
0.528807
0.526537
0.524436
0.522488
0.520686
0.519019
0.517488
0.516079
0.514775
0.513564
0.512442
0.511396
0.510408
0.50947
0.508575
0.507718
0.506893
0.506093
0.505314
0.504552
0.503804
0.50307
0.50235
0.501646
0.500961
0.500302
0.499671
0.499072
0.498509
0.497982
0.497493
0.497044
0.496635
0.496265
0.495931
0.49563
0.495359
0.495116
0.494896
0.494696
0.494515
0.494349
0.494195
0.494053
0.493919
0.493793
0.493673
0.493557
0.493445
0.493336
0.493229
0.493125
0.493022
0.492921
0.492823
0.492727
0.492636
0.492549
0.492468
0.492392
0.492324
0.492263
0.492212
0.492168
0.492136
0.492109
0.492099
0.492088
0.492101
0.492102
0.492141
0.492147
0.492217
0.492216
0.492325
0.4923
0.49246
0.492406
0.492612
0.492501
0.492822
0.492248
0.49361
0.567742
0.566278
0.560116
0.552923
0.545859
0.539288
0.533345
0.528352
0.524027
0.520231
0.51688
0.513907
0.511262
0.508904
0.506794
0.504893
0.503164
0.501581
0.500126
0.498789
0.497562
0.496443
0.495427
0.494522
0.493693
0.492907
0.492188
0.491545
0.490945
0.490369
0.489838
0.489353
0.488906
0.488487
0.48809
0.487704
0.487325
0.486948
0.486576
0.486202
0.485836
0.485486
0.485157
0.484852
0.484571
0.484318
0.484089
0.483893
0.483736
0.48361
0.483512
0.483439
0.483388
0.483356
0.483341
0.48334
0.483351
0.483371
0.483399
0.483432
0.48347
0.483509
0.483548
0.483586
0.48362
0.483653
0.483683
0.483709
0.483731
0.483752
0.483771
0.48379
0.483809
0.483832
0.483856
0.483886
0.48392
0.483961
0.484007
0.484063
0.484124
0.484197
0.484272
0.484364
0.484453
0.484564
0.484661
0.484796
0.484892
0.485055
0.485138
0.485338
0.485391
0.485643
0.485661
0.485959
0.485916
0.486336
0.485803
0.487297
0.499843
0.501195
0.496502
0.491284
0.486314
0.481782
0.4778
0.473835
0.470202
0.467057
0.464386
0.46213
0.460247
0.458692
0.457395
0.456312
0.455398
0.454627
0.453978
0.453443
0.453014
0.45269
0.452471
0.452347
0.452338
0.452459
0.452694
0.452993
0.453425
0.453976
0.454591
0.455229
0.455867
0.456488
0.457078
0.457629
0.458136
0.458598
0.459023
0.459399
0.459775
0.460159
0.460539
0.460911
0.461274
0.461629
0.461983
0.46233
0.462668
0.463003
0.463337
0.463672
0.464008
0.464346
0.464684
0.465022
0.465357
0.465689
0.466016
0.466336
0.466652
0.466952
0.467236
0.467507
0.467766
0.468019
0.468252
0.468472
0.468684
0.468891
0.469095
0.469297
0.469498
0.4697
0.469903
0.470109
0.470319
0.470536
0.470757
0.470986
0.471217
0.471458
0.471698
0.471952
0.472197
0.472465
0.472709
0.472993
0.473228
0.473535
0.473747
0.474088
0.474263
0.474654
0.474784
0.475224
0.475272
0.47585
0.475382
0.477114
0.356343
0.358619
0.359488
0.360113
0.361022
0.362209
0.363631
0.365518
0.367616
0.369905
0.372286
0.374686
0.37713
0.379606
0.382018
0.384346
0.386544
0.388627
0.390611
0.392518
0.394369
0.396187
0.397988
0.399785
0.401584
0.403393
0.405207
0.407034
0.408824
0.410572
0.412285
0.413952
0.415559
0.417101
0.418564
0.419947
0.421247
0.422476
0.423623
0.424734
0.425742
0.426658
0.427513
0.428329
0.429119
0.429897
0.430667
0.431436
0.432206
0.432975
0.433746
0.434517
0.435287
0.436054
0.436816
0.437572
0.438318
0.439055
0.439778
0.440489
0.441183
0.441868
0.442543
0.443206
0.443857
0.44449
0.445126
0.445759
0.446384
0.446999
0.447605
0.448201
0.448786
0.449364
0.44993
0.450497
0.451063
0.451628
0.452187
0.452744
0.45329
0.453839
0.454371
0.454911
0.455428
0.455963
0.456458
0.456993
0.45746
0.458002
0.458429
0.458991
0.459357
0.459955
0.460259
0.460897
0.461108
0.461882
0.461509
0.463549
0.200899
0.198722
0.198677
0.200394
0.203626
0.20811
0.213323
0.219231
0.225323
0.231792
0.238277
0.244782
0.25137
0.25789
0.26386
0.269506
0.274771
0.279842
0.284747
0.289521
0.294194
0.298788
0.303319
0.307791
0.312206
0.316562
0.320845
0.325053
0.329158
0.333155
0.337017
0.340737
0.344297
0.347674
0.350841
0.353835
0.356673
0.359371
0.361956
0.364427
0.366835
0.36918
0.37147
0.373707
0.375897
0.378048
0.380153
0.382232
0.38426
0.386237
0.38818
0.39008
0.391939
0.393751
0.395518
0.397236
0.398905
0.400526
0.402098
0.403623
0.4051
0.406531
0.407919
0.409267
0.410576
0.41185
0.413084
0.414285
0.415455
0.4166
0.417719
0.418816
0.419891
0.420945
0.421985
0.422996
0.423978
0.424941
0.42588
0.426807
0.42771
0.428609
0.42948
0.430357
0.431196
0.432055
0.432859
0.433708
0.434469
0.435316
0.436023
0.436883
0.437519
0.438408
0.43897
0.439898
0.440345
0.441424
0.441252
0.44368
0.0990126
0.0983993
0.0982041
0.0985267
0.0993784
0.10081
0.102687
0.105108
0.107848
0.111329
0.11474
0.118391
0.122984
0.127136
0.132544
0.137953
0.143781
0.150015
0.156316
0.162701
0.169196
0.175785
0.182449
0.189131
0.195815
0.202462
0.209056
0.215593
0.221963
0.228296
0.23431
0.240124
0.245615
0.250708
0.255378
0.260036
0.264563
0.268974
0.273286
0.277504
0.281643
0.285705
0.289706
0.293637
0.29751
0.301325
0.305054
0.308763
0.312324
0.315788
0.319262
0.322604
0.325852
0.328996
0.332052
0.335009
0.337879
0.340672
0.343379
0.346003
0.348552
0.351029
0.353439
0.355786
0.358072
0.360302
0.362477
0.364601
0.366675
0.368702
0.370681
0.372618
0.374509
0.376363
0.378167
0.379946
0.381679
0.383384
0.385047
0.386685
0.388275
0.389849
0.39137
0.392889
0.394343
0.395814
0.397198
0.39863
0.399939
0.401343
0.402567
0.40396
0.405082
0.406481
0.4075
0.408929
0.409789
0.411356
0.411581
0.414549
0.0626107
0.0617931
0.0611049
0.0605892
0.0602087
0.059963
0.0598309
0.0598453
0.060046
0.0603242
0.060868
0.0613897
0.0622569
0.063123
0.0639388
0.0651267
0.066484
0.0677966
0.0694178
0.0710669
0.0733069
0.0758848
0.0786818
0.0817444
0.0851725
0.0888688
0.0928444
0.0970073
0.101485
0.106129
0.111082
0.116382
0.122205
0.128229
0.134343
0.140531
0.146758
0.153002
0.159238
0.165445
0.171607
0.177706
0.183731
0.189673
0.195515
0.201265
0.206892
0.212414
0.21782
0.222952
0.227871
0.232552
0.237142
0.241582
0.245979
0.250201
0.254445
0.25862
0.262576
0.266485
0.270328
0.274101
0.277798
0.281424
0.284972
0.28845
0.291848
0.29518
0.29843
0.301608
0.304701
0.307723
0.31066
0.313536
0.316323
0.319078
0.321717
0.32435
0.326906
0.329416
0.331843
0.334261
0.336597
0.338933
0.341167
0.343427
0.345558
0.347753
0.349775
0.351919
0.353822
0.355929
0.357696
0.359788
0.361405
0.363514
0.364939
0.36717
0.367956
0.371541
0.0498719
0.0490871
0.0483564
0.0476252
0.0468993
0.0461728
0.0454495
0.0447585
0.0439331
0.0431813
0.0422369
0.0414559
0.0404859
0.0396291
0.0389314
0.0382971
0.0378504
0.0374018
0.0371275
0.0368241
0.0367188
0.0366896
0.0367823
0.0371115
0.0376726
0.038128
0.0385414
0.0391859
0.0401416
0.0413027
0.0425588
0.0439637
0.0455599
0.0473592
0.0493577
0.0515903
0.0540303
0.0567162
0.059621
0.062789
0.0661874
0.0698515
0.0737414
0.077891
0.0822473
0.0868443
0.0916144
0.0965951
0.101704
0.107117
0.112753
0.118606
0.124523
0.130468
0.136418
0.142347
0.148221
0.154049
0.159786
0.165429
0.170955
0.176374
0.181662
0.186837
0.191876
0.196805
0.201599
0.206291
0.210776
0.215135
0.219305
0.223389
0.227352
0.231271
0.235072
0.238857
0.242519
0.246182
0.249712
0.253275
0.256669
0.260189
0.2635
0.2668
0.269968
0.273207
0.276244
0.279396
0.282286
0.285358
0.28808
0.291083
0.293612
0.296568
0.298885
0.301852
0.303886
0.306946
0.308579
0.312709
0.0381442
0.0370676
0.0360262
0.0349422
0.0339074
0.032886
0.031974
0.0310846
0.0303268
0.0296002
0.0289904
0.0283343
0.0276854
0.0270697
0.0265324
0.0260509
0.0256305
0.0252467
0.0249152
0.0246071
0.0243417
0.0241008
0.0238921
0.02371
0.0235641
0.0234412
0.0233532
0.0232711
0.0232414
0.0232164
0.0232566
0.0232825
0.0234
0.0234751
0.0236592
0.0238991
0.0240677
0.0243625
0.0247121
0.0251577
0.0256346
0.0262256
0.0268724
0.0276569
0.0285144
0.0295308
0.0306397
0.0319395
0.0333521
0.0349747
0.036728
0.0387256
0.0408695
0.0432838
0.0458515
0.0487
0.0517026
0.054983
0.0584134
0.0621098
0.0659381
0.0700129
0.0741941
0.0785961
0.083073
0.0877406
0.0924482
0.0973148
0.102269
0.107402
0.112565
0.117856
0.123051
0.128327
0.133461
0.13866
0.143676
0.148752
0.153605
0.158526
0.163186
0.167932
0.172391
0.176964
0.181197
0.185601
0.189606
0.193864
0.197628
0.201692
0.205156
0.209081
0.212252
0.216118
0.219
0.222879
0.225528
0.229409
0.231959
0.236537
0.0278486
0.0269309
0.0260456
0.0253148
0.0246883
0.0241325
0.0236287
0.0231629
0.0227354
0.0223292
0.0219457
0.0215856
0.0212502
0.0209398
0.0206508
0.0203851
0.0201368
0.0199093
0.019695
0.0195002
0.0193156
0.0191485
0.0189894
0.0188477
0.0187117
0.0185923
0.0184766
0.0183766
0.0182793
0.0181983
0.0181173
0.018054
0.0179877
0.0179403
0.0178785
0.0178448
0.017806
0.0177884
0.0177535
0.0177449
0.0177227
0.0177275
0.0177243
0.0177473
0.0177717
0.0178187
0.0178843
0.017999
0.0181277
0.0181809
0.0183752
0.0184412
0.0186611
0.0189141
0.0191717
0.0195498
0.0198497
0.0203406
0.0207774
0.0213926
0.0219659
0.022751
0.0234943
0.0244847
0.0254297
0.0266612
0.0278376
0.0293423
0.0307802
0.032595
0.0343308
0.036492
0.0385533
0.0410802
0.0434737
0.0463717
0.0490906
0.0523523
0.0553744
0.0589791
0.0622674
0.0661836
0.0696883
0.0738785
0.0775409
0.0819626
0.0857167
0.090329
0.0941157
0.0989662
0.102778
0.107819
0.111569
0.116758
0.120263
0.125534
0.128719
0.133987
0.138158
0.142623
0.0225349
0.0220437
0.0215687
0.0211166
0.0206918
0.0202967
0.0199231
0.0195796
0.019253
0.0189564
0.018687
0.0184439
0.0182188
0.0180128
0.0178184
0.0176397
0.0174692
0.017313
0.0171642
0.0170294
0.0168995
0.0167825
0.0166678
0.0165649
0.0164618
0.0163698
0.0162756
0.0161918
0.0161045
0.0160271
0.0159456
0.0158735
0.015797
0.01573
0.0156582
0.0155965
0.0155285
0.0154742
0.0154143
0.0153682
0.0153151
0.0152762
0.0152294
0.0151972
0.015156
0.0151302
0.0150941
0.0150751
0.0150441
0.0150324
0.0150055
0.0150007
0.0149786
0.0149808
0.014967
0.0149764
0.0149729
0.0149889
0.014998
0.0150229
0.0150464
0.0150856
0.0151271
0.0151819
0.0152683
0.0153301
0.0153961
0.0155368
0.0156133
0.0158041
0.0159059
0.016159
0.0162975
0.016631
0.0168191
0.0172547
0.0175027
0.0180717
0.0183862
0.0191283
0.0195236
0.0204674
0.0209727
0.0221373
0.0227773
0.0241866
0.024974
0.026668
0.0276021
0.0296207
0.0307047
0.0330772
0.0343289
0.0370632
0.0384753
0.0415145
0.0430387
0.0463754
0.0478698
0.0533136
0.0186879
0.0184599
0.0182365
0.0180156
0.0177927
0.0175666
0.0173493
0.0171374
0.0169386
0.0167491
0.0165732
0.0164065
0.0162521
0.0161056
0.0159695
0.0158398
0.0157186
0.0156026
0.0154923
0.0153856
0.0152845
0.0151873
0.0150953
0.0150072
0.0149239
0.0148442
0.0147683
0.0146958
0.0146262
0.0145599
0.0144954
0.0144345
0.0143747
0.014319
0.0142639
0.0142132
0.014163
0.0141173
0.0140719
0.014031
0.0139901
0.0139534
0.0139162
0.013883
0.0138488
0.0138189
0.0137869
0.0137599
0.0137298
0.0137053
0.0136768
0.0136549
0.0136277
0.0136083
0.0135825
0.013566
0.0135415
0.013528
0.0135047
0.0134938
0.0134719
0.0134611
0.0134398
0.0134288
0.0134082
0.0134005
0.0133832
0.0133781
0.0133654
0.0133619
0.0133543
0.013353
0.0133521
0.0133542
0.0133611
0.0133686
0.0133837
0.0133988
0.0134239
0.0134487
0.0134882
0.0135228
0.0135821
0.0136352
0.0136814
0.0137933
0.0138375
0.0139977
0.0140559
0.0142596
0.01434
0.0146229
0.0146892
0.0150848
0.0151672
0.0156847
0.0156952
0.0166977
0.0165856
0.0180868
0.01614
0.0160134
0.0158836
0.015745
0.0156045
0.0154598
0.0153182
0.0151754
0.0150386
0.0149021
0.014773
0.014645
0.0145251
0.0144066
0.0142966
0.0141881
0.014088
0.0139893
0.0138987
0.0138094
0.0137277
0.013647
0.0135734
0.0135005
0.0134343
0.0133685
0.0133089
0.0132496
0.013196
0.0131426
0.0130944
0.0130464
0.013003
0.0129597
0.0129205
0.0128814
0.0128459
0.0128106
0.0127782
0.0127463
0.0127168
0.012688
0.0126609
0.012635
0.0126102
0.012587
0.0125642
0.0125435
0.0125225
0.0125042
0.0124847
0.0124685
0.0124502
0.012436
0.0124187
0.0124063
0.0123898
0.0123791
0.0123632
0.012354
0.0123386
0.0123309
0.0123158
0.0123095
0.0122946
0.0122897
0.0122751
0.0122714
0.0122569
0.0122546
0.0122402
0.0122392
0.0122248
0.0122251
0.0122107
0.0122125
0.0121981
0.0122014
0.012187
0.0121919
0.0121776
0.0121843
0.0121701
0.0121797
0.0121653
0.012178
0.012164
0.0121801
0.0121667
0.0121867
0.0121742
0.0121988
0.0121888
0.0122176
0.0122118
0.0122455
0.0122485
0.0122833
0.0122971
0.0123671
0.014388
0.0143151
0.0142378
0.0141506
0.01406
0.013964
0.0138694
0.0137724
0.0136794
0.0135856
0.0134975
0.0134093
0.0133276
0.0132459
0.0131712
0.0130963
0.0130286
0.0129603
0.0128993
0.0128372
0.0127824
0.0127259
0.0126766
0.0126251
0.0125806
0.0125334
0.0124933
0.01245
0.0124137
0.0123739
0.0123412
0.0123045
0.0122749
0.0122411
0.0122143
0.0121831
0.0121587
0.0121296
0.0121074
0.0120802
0.0120599
0.0120345
0.0120159
0.011992
0.0119751
0.0119527
0.0119373
0.0119163
0.0119023
0.0118826
0.0118699
0.0118514
0.0118398
0.0118224
0.0118118
0.0117952
0.0117855
0.0117697
0.0117608
0.0117456
0.0117373
0.0117228
0.0117151
0.0117011
0.0116941
0.0116806
0.0116741
0.0116611
0.0116551
0.0116426
0.0116371
0.011625
0.0116201
0.0116084
0.0116039
0.0115926
0.0115885
0.0115776
0.011574
0.0115635
0.0115602
0.01155
0.0115471
0.0115373
0.0115346
0.0115252
0.0115228
0.0115137
0.0115115
0.0115026
0.0115007
0.0114919
0.0114901
0.0114815
0.0114791
0.0114691
0.0114637
0.0114489
0.0114781
0.0114116
0.0131121
0.0130728
0.0130298
0.012977
0.0129206
0.0128582
0.0127961
0.0127305
0.0126673
0.0126019
0.0125403
0.0124773
0.0124188
0.0123592
0.0123047
0.0122491
0.0121988
0.0121472
0.0121011
0.0120535
0.0120115
0.0119676
0.0119294
0.0118891
0.0118544
0.0118172
0.0117858
0.0117516
0.0117231
0.0116914
0.0116656
0.0116363
0.0116129
0.0115857
0.0115644
0.0115391
0.0115198
0.0114962
0.0114787
0.0114566
0.0114407
0.01142
0.0114056
0.011386
0.011373
0.0113546
0.0113427
0.0113253
0.0113145
0.011298
0.0112882
0.0112725
0.0112637
0.0112487
0.0112407
0.0112264
0.0112192
0.0112056
0.0111991
0.011186
0.0111801
0.0111676
0.0111623
0.0111502
0.0111454
0.0111338
0.0111295
0.0111182
0.0111144
0.0111035
0.0111
0.0110894
0.0110862
0.011076
0.0110731
0.0110632
0.0110605
0.011051
0.0110485
0.0110392
0.0110369
0.011028
0.0110257
0.0110171
0.0110149
0.0110066
0.0110044
0.0109965
0.0109943
0.0109867
0.0109844
0.0109772
0.0109748
0.0109679
0.0109653
0.0109589
0.010956
0.0109499
0.0109464
0.0109394
0.012228
0.0122101
0.0121897
0.0121598
0.0121271
0.0120875
0.0120484
0.0120048
0.0119632
0.0119183
0.0118767
0.0118323
0.0117921
0.0117495
0.0117116
0.0116713
0.0116359
0.0115981
0.0115654
0.0115302
0.0115002
0.0114674
0.0114398
0.0114093
0.0113841
0.0113558
0.0113328
0.0113064
0.0112854
0.0112608
0.0112416
0.0112186
0.0112012
0.0111796
0.0111636
0.0111433
0.0111287
0.0111095
0.0110961
0.0110779
0.0110656
0.0110484
0.0110371
0.0110206
0.0110103
0.0109945
0.010985
0.0109699
0.0109611
0.0109466
0.0109385
0.0109246
0.0109172
0.0109037
0.0108969
0.010884
0.0108777
0.0108652
0.0108595
0.0108474
0.0108421
0.0108304
0.0108256
0.0108142
0.0108098
0.0107987
0.0107946
0.0107839
0.0107801
0.0107696
0.0107661
0.0107559
0.0107526
0.0107427
0.0107396
0.0107299
0.010727
0.0107176
0.0107148
0.0107056
0.0107029
0.010694
0.0106914
0.0106828
0.0106801
0.0106718
0.0106692
0.0106612
0.0106585
0.0106509
0.0106481
0.0106408
0.0106379
0.010631
0.0106279
0.0106214
0.0106181
0.0106118
0.0106094
0.0106006
0.0116202
0.0116138
0.0116063
0.0115897
0.0115708
0.0115451
0.0115199
0.0114896
0.0114614
0.011429
0.0113997
0.0113668
0.0113377
0.0113054
0.0112774
0.0112462
0.0112197
0.01119
0.0111651
0.0111369
0.0111138
0.0110872
0.0110658
0.0110407
0.011021
0.0109974
0.0109791
0.0109569
0.0109401
0.0109191
0.0109036
0.0108838
0.0108695
0.0108507
0.0108376
0.0108197
0.0108077
0.0107907
0.0107795
0.0107633
0.010753
0.0107375
0.0107281
0.0107132
0.0107045
0.0106903
0.0106823
0.0106686
0.0106612
0.010648
0.0106412
0.0106285
0.0106223
0.01061
0.0106043
0.0105924
0.0105871
0.0105756
0.0105707
0.0105595
0.010555
0.0105441
0.01054
0.0105294
0.0105255
0.0105152
0.0105116
0.0105016
0.0104982
0.0104884
0.0104853
0.0104757
0.0104728
0.0104635
0.0104607
0.0104516
0.010449
0.0104402
0.0104376
0.010429
0.0104265
0.0104182
0.0104157
0.0104077
0.0104052
0.0103974
0.0103949
0.0103874
0.0103847
0.0103775
0.0103748
0.0103679
0.0103651
0.0103584
0.010355
0.0103494
0.0103495
0.0103437
0.0103089
0.0103553
0.0111856
0.0111858
0.0111855
0.0111766
0.011166
0.0111488
0.0111322
0.0111104
0.0110906
0.0110663
0.011045
0.0110197
0.0109981
0.0109726
0.0109514
0.0109265
0.0109061
0.010882
0.0108628
0.0108396
0.0108216
0.0107994
0.0107827
0.0107616
0.0107461
0.010726
0.0107117
0.0106926
0.0106793
0.0106612
0.010649
0.0106317
0.0106204
0.0106039
0.0105935
0.0105776
0.010568
0.0105528
0.0105439
0.0105292
0.0105211
0.0105069
0.0104994
0.0104857
0.0104787
0.0104655
0.0104591
0.0104462
0.0104404
0.0104279
0.0104225
0.0104104
0.0104055
0.0103937
0.0103892
0.0103777
0.0103735
0.0103623
0.0103585
0.0103476
0.010344
0.0103334
0.0103301
0.0103196
0.0103166
0.0103064
0.0103036
0.0102936
0.0102909
0.0102811
0.0102786
0.0102691
0.0102667
0.0102574
0.0102551
0.010246
0.0102438
0.0102349
0.0102328
0.0102241
0.010222
0.0102136
0.0102115
0.0102033
0.0102011
0.0101933
0.010191
0.0101835
0.010181
0.0101738
0.0101712
0.0101643
0.0101615
0.0101551
0.0101523
0.0101457
0.0101388
0.0101334
0.010161
0.0100996
0.0108712
0.0108755
0.010879
0.0108747
0.0108689
0.010857
0.0108457
0.0108295
0.010815
0.0107962
0.0107801
0.01076
0.0107433
0.0107227
0.0107061
0.0106856
0.0106695
0.0106494
0.010634
0.0106145
0.0105999
0.0105811
0.0105674
0.0105493
0.0105366
0.0105191
0.0105073
0.0104905
0.0104796
0.0104634
0.0104534
0.0104377
0.0104285
0.0104134
0.0104049
0.0103903
0.0103824
0.0103683
0.0103611
0.0103473
0.0103408
0.0103273
0.0103213
0.0103082
0.0103028
0.01029
0.010285
0.0102725
0.010268
0.0102557
0.0102517
0.0102396
0.0102361
0.0102241
0.010221
0.0102092
0.0102065
0.0101949
0.0101924
0.010181
0.0101789
0.0101676
0.0101658
0.0101545
0.0101531
0.0101419
0.0101407
0.0101297
0.0101287
0.0101178
0.010117
0.0101062
0.0101057
0.0100949
0.0100946
0.0100839
0.0100837
0.0100731
0.0100732
0.0100626
0.0100628
0.0100523
0.0100526
0.0100422
0.0100427
0.0100324
0.0100329
0.0100227
0.0100232
0.0100131
0.0100137
0.0100037
0.0100044
0.00999471
0.00999458
0.00998513
0.0099892
0.00997704
0.00997312
0.00996399
0.0106353
0.0106426
0.0106479
0.0106463
0.0106432
0.0106348
0.0106267
0.0106143
0.0106032
0.0105883
0.0105755
0.0105591
0.0105456
0.0105286
0.0105149
0.0104978
0.0104843
0.0104674
0.0104544
0.0104379
0.0104255
0.0104094
0.0103977
0.0103821
0.0103712
0.0103561
0.0103459
0.0103313
0.0103218
0.0103076
0.0102988
0.010285
0.0102769
0.0102635
0.010256
0.0102429
0.010236
0.0102233
0.0102169
0.0102045
0.0101986
0.0101864
0.010181
0.0101691
0.0101642
0.0101525
0.010148
0.0101365
0.0101324
0.010121
0.0101174
0.0101062
0.0101029
0.0100918
0.0100889
0.0100779
0.0100753
0.0100645
0.0100622
0.0100515
0.0100495
0.0100388
0.0100371
0.0100265
0.0100251
0.0100146
0.0100134
0.0100029
0.0100019
0.00999152
0.00999079
0.00998041
0.0099799
0.00996956
0.00996924
0.00995895
0.00995881
0.00994856
0.00994859
0.00993839
0.00993856
0.00992842
0.00992872
0.00991863
0.00991905
0.00990901
0.00990953
0.00989956
0.00990015
0.00989026
0.0098909
0.00988101
0.00988181
0.00987233
0.00987258
0.00986264
0.00986371
0.00985176
0.0098765
0.00981805
0.0104603
0.0104673
0.0104733
0.0104732
0.0104719
0.0104657
0.0104598
0.0104499
0.0104412
0.0104289
0.0104184
0.0104048
0.0103935
0.0103791
0.0103676
0.010353
0.0103415
0.010327
0.0103158
0.0103015
0.0102908
0.0102768
0.0102666
0.010253
0.0102433
0.0102301
0.010221
0.0102082
0.0101997
0.0101872
0.0101792
0.0101671
0.0101596
0.0101478
0.0101408
0.0101293
0.0101228
0.0101115
0.0101054
0.0100944
0.0100887
0.0100779
0.0100726
0.010062
0.0100571
0.0100466
0.0100421
0.0100318
0.0100276
0.0100174
0.0100135
0.0100035
0.00999992
0.00999007
0.00998673
0.009977
0.00997391
0.00996431
0.00996145
0.00995197
0.00994932
0.00993995
0.00993749
0.00992823
0.00992595
0.0099168
0.00991467
0.00990564
0.00990364
0.00989473
0.00989285
0.00988407
0.00988227
0.00987363
0.0098719
0.0098634
0.00986172
0.00985339
0.00985173
0.00984356
0.0098419
0.00983392
0.00983223
0.00982446
0.0098227
0.00981515
0.00981331
0.009806
0.00980403
0.00979699
0.00979489
0.00978821
0.00978564
0.00977897
0.00977754
0.00977212
0.00976799
0.00976805
0.0097378
0.00977937
0.0103256
0.0103321
0.0103383
0.0103391
0.0103389
0.0103342
0.0103297
0.0103216
0.0103145
0.0103041
0.0102954
0.0102836
0.0102741
0.0102616
0.0102517
0.010239
0.0102291
0.0102164
0.0102066
0.0101941
0.0101846
0.0101723
0.0101633
0.0101513
0.0101427
0.0101309
0.0101228
0.0101113
0.0101036
0.0100925
0.0100852
0.0100743
0.0100675
0.0100568
0.0100504
0.0100399
0.0100339
0.0100237
0.0100179
0.0100079
0.0100025
0.00999267
0.00998761
0.00997792
0.00997316
0.00996362
0.00995914
0.00994974
0.00994554
0.00993627
0.00993233
0.00992318
0.00991948
0.00991045
0.00990698
0.00989806
0.0098948
0.00988598
0.00988292
0.00987421
0.00987132
0.0098627
0.00985999
0.00985146
0.00984889
0.00984047
0.00983803
0.00982971
0.00982739
0.00981917
0.00981695
0.00980883
0.0098067
0.0097987
0.00979663
0.00978876
0.00978674
0.009779
0.00977701
0.00976942
0.00976744
0.00976
0.009758
0.00975073
0.0097487
0.00974162
0.00973952
0.00973264
0.00973045
0.00972378
0.00972152
0.00971515
0.00971249
0.00970605
0.00970462
0.00969938
0.00969533
0.0096956
0.00966584
0.00970675
0.0102243
0.0102303
0.0102365
0.0102375
0.010238
0.010234
0.0102307
0.0102236
0.0102178
0.0102087
0.0102013
0.0101909
0.0101827
0.0101717
0.010163
0.0101517
0.0101429
0.0101315
0.0101229
0.0101116
0.0101032
0.0100921
0.010084
0.0100731
0.0100653
0.0100546
0.0100471
0.0100368
0.0100296
0.0100195
0.0100127
0.0100028
0.00999624
0.00998658
0.00998035
0.0099709
0.00996495
0.0099557
0.00995001
0.00994095
0.0099355
0.00992662
0.0099214
0.0099127
0.00990769
0.00989915
0.00989435
0.00988597
0.00988136
0.00987314
0.00986871
0.00986064
0.00985636
0.00984845
0.00984432
0.00983656
0.00983255
0.00982495
0.00982105
0.0098136
0.00980979
0.0098025
0.00979876
0.00979163
0.00978794
0.00978099
0.00977733
0.00977056
0.00976692
0.00976033
0.00975668
0.00975029
0.00974662
0.00974045
0.00973672
0.00973078
0.00972697
0.00972128
0.00971737
0.00971195
0.0097079
0.00970277
0.00969856
0.00969374
0.00968934
0.00968486
0.00968023
0.00967612
0.00967122
0.00966748
0.0096623
0.00965906
0.00965339
0.00965042
0.00964518
0.00964266
0.00963295
0.00963389
0.00963322
0.00962521
0.0101492
0.0101544
0.0101605
0.0101612
0.0101621
0.0101582
0.0101556
0.0101489
0.010144
0.0101353
0.010129
0.0101191
0.0101119
0.0101014
0.0100938
0.010083
0.0100753
0.0100644
0.0100568
0.010046
0.0100385
0.0100278
0.0100206
0.0100101
0.0100032
0.00999294
0.00998624
0.00997624
0.00996981
0.00996004
0.00995387
0.00994433
0.00993841
0.00992908
0.00992341
0.00991428
0.00990883
0.00989989
0.00989465
0.00988589
0.00988085
0.00987225
0.0098674
0.00985897
0.0098543
0.00984603
0.00984151
0.0098334
0.00982904
0.00982108
0.00981685
0.00980905
0.00980495
0.0097973
0.0097933
0.00978581
0.00978191
0.00977457
0.00977074
0.00976357
0.0097598
0.00975279
0.00974906
0.00974222
0.00973851
0.00973185
0.00972815
0.00972167
0.00971797
0.00971168
0.00970794
0.00970187
0.00969808
0.00969222
0.00968836
0.00968275
0.00967878
0.00967343
0.00966934
0.00966426
0.00966002
0.00965524
0.00965083
0.00964636
0.00964174
0.00963762
0.00963275
0.00962901
0.00962386
0.00962049
0.00961504
0.0096122
0.00960627
0.00960355
0.00959775
0.00959617
0.0095893
0.00959025
0.00956034
0.00960246
0.0100884
0.0100931
0.0100988
0.0100991
0.0101001
0.0100962
0.010094
0.0100874
0.0100831
0.0100746
0.010069
0.0100595
0.0100531
0.0100429
0.0100361
0.0100257
0.0100189
0.0100083
0.0100016
0.00999112
0.00998453
0.0099742
0.00996783
0.00995767
0.00995155
0.00994158
0.0099357
0.00992593
0.00992029
0.00991071
0.0099053
0.00989592
0.00989072
0.00988151
0.00987652
0.00986748
0.00986268
0.0098538
0.00984917
0.00984045
0.00983598
0.00982741
0.00982309
0.00981466
0.00981049
0.0098022
0.00979816
0.00979002
0.00978609
0.0097781
0.00977428
0.00976643
0.00976271
0.009755
0.00975136
0.0097438
0.00974024
0.00973283
0.00972932
0.00972206
0.00971859
0.00971149
0.00970804
0.00970111
0.00969767
0.00969091
0.00968747
0.00968089
0.00967742
0.00967104
0.00966753
0.00966135
0.00965778
0.00965183
0.00964817
0.00964245
0.00963869
0.00963323
0.00962933
0.00962415
0.0096201
0.0096152
0.00961097
0.00960639
0.00960195
0.00959771
0.00959303
0.00958916
0.0095842
0.00958071
0.00957543
0.00957238
0.00956688
0.00956428
0.00955761
0.00955529
0.00955005
0.00954572
0.00954157
0.00953709
0.010041
0.010045
0.0100502
0.0100501
0.0100511
0.0100472
0.0100453
0.0100388
0.0100349
0.0100267
0.0100217
0.0100124
0.0100067
0.00999689
0.0099909
0.00998073
0.0099747
0.00996441
0.00995847
0.00994818
0.00994241
0.00993219
0.00992662
0.0099165
0.00991117
0.00990115
0.00989605
0.00988616
0.00988129
0.00987151
0.00986685
0.00985719
0.00985273
0.00984318
0.00983892
0.00982949
0.00982541
0.00981607
0.00981217
0.00980294
0.0097992
0.00979008
0.00978649
0.00977747
0.00977403
0.00976512
0.00976181
0.00975302
0.00974983
0.00974116
0.00973808
0.00972953
0.00972656
0.00971813
0.00971524
0.00970695
0.00970414
0.00969598
0.00969323
0.00968521
0.0096825
0.00967464
0.00967196
0.00966425
0.00966158
0.00965405
0.00965137
0.00964402
0.00964131
0.00963417
0.00963141
0.00962448
0.00962165
0.00961496
0.00961202
0.00960559
0.00960253
0.00959637
0.00959316
0.00958731
0.00958391
0.00957839
0.00957477
0.00956961
0.00956573
0.00956096
0.00955679
0.00955245
0.00954794
0.00954404
0.00953913
0.00953575
0.0095305
0.00952776
0.00952151
0.00951849
0.00951001
0.00950563
0.00953041
0.00947614
0.0100073
0.0100107
0.0100153
0.0100148
0.0100155
0.0100115
0.0100095
0.0100031
0.00999922
0.00999122
0.00998621
0.00997716
0.00997152
0.00996182
0.00995589
0.00994583
0.00993984
0.00992959
0.00992368
0.00991334
0.00990758
0.00989721
0.00989164
0.00988128
0.00987593
0.0098656
0.0098605
0.00985021
0.00984538
0.00983514
0.00983058
0.00982039
0.00981611
0.00980598
0.00980198
0.00979191
0.00978817
0.00977816
0.00977469
0.00976473
0.00976153
0.00975161
0.00974869
0.00973878
0.0097361
0.00972619
0.00972375
0.00971387
0.00971167
0.00970181
0.00969986
0.00969002
0.00968831
0.00967849
0.00967702
0.00966721
0.00966596
0.00965617
0.00965514
0.00964535
0.00964454
0.00963476
0.00963415
0.00962437
0.00962396
0.00961419
0.00961395
0.00960419
0.00960413
0.00959437
0.00959447
0.00958472
0.00958498
0.00957524
0.00957564
0.00956592
0.00956645
0.00955675
0.0095574
0.00954772
0.00954848
0.00953883
0.00953969
0.00953008
0.00953101
0.00952145
0.00952244
0.00951295
0.00951397
0.00950456
0.00950559
0.00949622
0.00949737
0.00948827
0.00948858
0.00947971
0.00948394
0.00947251
0.00946883
0.0094609
0.00998179
0.00998476
0.00998859
0.00998765
0.00998774
0.00998341
0.00998074
0.00997396
0.00996934
0.00996083
0.00995492
0.00994528
0.00993863
0.00992832
0.00992131
0.00991066
0.00990357
0.00989281
0.00988575
0.00987471
0.00986769
0.00985664
0.00984986
0.00983895
0.00983255
0.00982187
0.00981588
0.00980546
0.00979992
0.00978975
0.00978463
0.0097747
0.00976999
0.00976026
0.00975594
0.00974639
0.00974242
0.00973302
0.00972938
0.00972011
0.00971678
0.00970761
0.00970454
0.0096955
0.00969272
0.00968378
0.00968127
0.0096724
0.00967013
0.00966132
0.00965928
0.0096505
0.00964868
0.00963993
0.0096383
0.00962957
0.00962814
0.00961942
0.00961816
0.00960945
0.00960837
0.00959966
0.00959873
0.00959003
0.00958926
0.00958055
0.00957993
0.00957122
0.00957074
0.00956203
0.00956168
0.00955298
0.00955275
0.00954405
0.00954395
0.00953525
0.00953526
0.00952658
0.00952669
0.00951802
0.00951822
0.00950957
0.00950986
0.00950123
0.0095016