/*--------------------------------*- C++ -*----------------------------------*\
  =========                 |
  \\      /  F ield         | OpenFOAM: The Open Source CFD Toolbox
   \\    /   O peration     | Website:  https://openfoam.org
    \\  /    A nd           | Version:  8
     \\/     M anipulation  |
\*---------------------------------------------------------------------------*/
FoamFile
{
    version     2.0;
    format      ascii;
    class       volScalarField;
    location    "2.0000073";
    object      k;
}
// * * * * * * * * * * * * * * * * * * * * * * * * * * * * * * * * * * * * * //

dimensions      [0 2 -2 0 0 0 0];

internalField   nonuniform List<scalar> 
6800
(
58.048
125.327
116.501
102.116
89.1591
68.0782
47.1493
28.8613
19.0579
15.0619
44.0701
96.043
98.2491
92.6356
74.6058
48.7832
29.3345
19.8734
14.3062
10.8079
44.5584
87.8517
91.7449
82.2725
56.5169
33.6673
22.1389
15.1805
10.2548
7.711
45.8305
82.3509
86.238
72.6954
42.9459
26.2465
16.1994
10.8963
7.9983
6.57406
46.1875
80.3772
82.6748
59.6377
32.5335
18.9654
12.5481
9.31887
7.072
5.5785
46.8957
81.4577
79.3154
47.6447
25.6936
16.3502
11.0113
7.72492
5.81083
4.95004
47.108
85.2784
74.2005
37.1408
21.1418
12.9619
8.8544
6.69435
5.40382
4.72547
47.5423
89.2959
65.3078
31.2996
17.9271
11.8668
8.21648
6.1954
4.86779
4.31591
47.6885
93.6288
56.5534
27.2565
15.8077
9.98674
7.03491
5.50073
4.62059
4.19831
48.0137
96.6612
48.6115
23.7854
13.5653
9.46598
6.71913
5.30725
4.36954
3.9465
337.9
449.525
467.825
479.456
499.771
528.359
558.878
585.192
599.601
603.744
323.494
433.689
458.022
481.001
514.028
555.716
597.464
631.255
651.221
657.151
315.542
404.925
443.142
484.738
538.095
593.373
634.119
657.827
668.331
662.035
304.074
380.357
435.79
501.151
571.741
615.742
631.17
621.428
599.134
544.054
293.661
377.468
458.954
549.006
596.515
593.729
569.585
509.995
457.389
346.417
290.381
404.891
530.238
589.72
573.145
517.998
436.623
320.509
249.315
159.409
306.588
479.608
586.311
553.372
462.533
327.259
219.908
149.168
120.18
81.6604
311.395
523.343
500.553
382.27
233.42
160.588
119.73
88.7963
75.4808
52.5416
282.278
396.818
307.976
189.401
135.988
106.135
83.1811
65.5827
55.6576
35.6529
172.352
188.047
153.491
120.202
101.35
84.4098
65.8208
50.9904
32.7089
20.737
594.678
563.457
529.861
497.972
469.649
445.042
423.641
405.017
388.691
374.227
361.292
349.626
339.027
329.335
320.422
312.181
304.525
297.382
290.692
284.406
278.484
272.892
267.603
262.593
257.839
253.32
249.019
244.918
240.999
237.242
233.633
230.158
226.805
223.562
220.42
217.371
214.408
211.525
208.719
205.987
203.328
200.74
198.222
195.774
193.395
191.084
188.841
186.663
184.55
182.499
180.507
178.572
176.692
174.862
173.081
171.345
169.652
167.998
166.383
164.803
163.257
161.743
160.259
158.806
157.38
155.981
154.609
153.263
151.941
150.644
149.37
148.12
146.892
145.688
144.505
143.344
142.205
141.088
139.991
138.916
137.86
136.825
135.809
134.812
133.834
132.874
131.931
131.004
130.096
129.2
128.325
127.454
126.614
125.758
124.965
124.103
123.381
122.469
121.866
120.724
649.112
615.428
578.034
543.587
513.084
486.247
462.753
442.149
423.964
407.815
393.365
380.336
368.504
357.692
347.751
338.562
330.022
322.048
314.573
307.545
300.919
294.66
288.737
283.124
277.797
272.733
267.911
263.313
258.912
254.686
250.626
246.719
242.952
239.312
235.787
232.368
229.047
225.819
222.679
219.624
216.652
213.762
210.953
208.224
205.574
203.001
200.504
198.081
195.732
193.452
191.239
189.089
186.999
184.965
182.984
181.054
179.171
177.334
175.539
173.784
172.067
170.387
168.742
167.13
165.55
164.002
162.483
160.994
159.533
158.099
156.693
155.313
153.96
152.633
151.332
150.055
148.804
147.576
146.373
145.193
144.036
142.901
141.788
140.697
139.626
138.575
137.544
136.53
135.537
134.557
133.6
132.649
131.732
130.797
129.931
128.991
128.206
127.212
126.559
125.314
656.129
629.196
593.744
561.006
531.816
505.843
482.858
462.516
444.462
428.376
413.95
400.919
389.074
378.242
368.27
359.034
350.424
342.359
334.773
327.617
320.851
314.444
308.367
302.597
297.112
291.891
286.917
282.158
277.623
273.291
269.13
265.116
261.23
257.456
253.784
250.204
246.71
243.299
239.967
236.715
233.542
230.449
227.435
224.501
221.646
218.868
216.168
213.541
210.986
208.499
206.08
203.724
201.43
199.195
197.015
194.888
192.811
190.781
188.796
186.853
184.952
183.089
181.263
179.473
177.718
175.998
174.308
172.649
171.021
169.424
167.858
166.322
164.815
163.338
161.89
160.469
159.077
157.711
156.373
155.06
153.773
152.511
151.272
150.057
148.865
147.694
146.546
145.416
144.309
143.216
142.149
141.087
140.065
139.022
138.057
137.007
136.133
135.024
134.3
132.912
531.982
513.304
491.702
471.257
452.969
436.597
421.883
408.788
397.077
386.594
377.122
368.479
360.556
353.252
346.448
340.047
333.963
328.156
322.599
317.276
312.177
307.293
302.618
298.14
293.85
289.735
285.781
281.977
278.293
274.716
271.239
267.847
264.53
261.278
258.083
254.941
251.849
248.806
245.813
242.873
239.988
237.159
234.388
231.677
229.028
226.442
223.917
221.455
219.052
216.707
214.418
212.181
209.995
207.857
205.764
203.713
201.702
199.729
197.792
195.89
194.02
192.182
190.375
188.598
186.85
185.13
183.442
181.783
180.153
178.551
176.976
175.428
173.905
172.409
170.938
169.493
168.072
166.676
165.304
163.955
162.63
161.327
160.045
158.786
157.546
156.327
155.128
153.947
152.786
151.638
150.517
149.396
148.318
147.212
146.193
145.076
144.151
142.97
142.2
140.725
323.564
302.907
286.929
275.328
267.315
262.002
258.428
256.243
254.799
254.045
253.617
253.417
253.399
253.47
253.325
252.943
252.306
251.516
250.619
249.651
248.641
247.606
246.562
245.515
244.468
243.422
242.369
241.305
240.219
239.098
237.938
236.722
235.446
234.106
232.699
231.228
229.702
228.13
226.523
224.89
223.243
221.588
219.934
218.286
216.649
215.026
213.417
211.829
210.253
208.691
207.145
205.614
204.096
202.591
201.095
199.61
198.132
196.663
195.202
193.748
192.301
190.863
189.433
188.012
186.601
185.201
183.81
182.431
181.065
179.711
178.372
177.047
175.737
174.443
173.163
171.9
170.651
169.418
168.199
166.996
165.808
164.635
163.475
162.331
161.199
160.082
158.978
157.887
156.81
155.741
154.694
153.641
152.628
151.582
150.62
149.555
148.681
147.551
146.812
145.404
147.877
137.412
129.313
123.229
118.743
115.565
113.37
112.071
111.376
111.443
111.772
112.436
113.741
115.062
116.934
119.204
121.759
124.564
127.536
130.624
133.799
137.019
140.267
143.501
146.696
149.82
152.849
155.763
158.52
161.131
163.54
165.683
167.574
169.214
170.615
171.814
172.836
173.706
174.442
175.062
175.582
176.013
176.37
176.655
176.88
177.05
177.159
177.232
177.231
177.176
177.098
176.961
176.772
176.533
176.244
175.908
175.526
175.102
174.637
174.136
173.601
173.034
172.439
171.818
171.174
170.509
169.826
169.126
168.412
167.686
166.948
166.201
165.444
164.682
163.911
163.137
162.357
161.574
160.786
159.998
159.205
158.413
157.618
156.824
156.028
155.234
154.439
153.645
152.853
152.059
151.272
150.474
149.701
148.892
148.148
147.309
146.624
145.722
145.131
144.006
77.0518
71.9342
67.5146
63.8046
60.666
57.999
55.7353
53.8099
52.2177
50.8547
49.8075
48.8982
48.2786
47.8015
47.4111
47.2967
47.3558
47.5309
47.9119
48.4817
49.3029
50.3187
51.5609
52.9926
54.6486
56.4834
58.4981
60.6509
62.9568
65.3757
67.9183
70.6233
73.48
76.4578
79.5123
82.6192
85.7486
88.8791
91.9878
95.0564
98.0686
101.009
103.867
106.632
109.294
111.849
114.286
116.608
118.81
120.848
122.735
124.472
126.074
127.546
128.903
130.149
131.294
132.349
133.315
134.197
135.003
135.737
136.402
137.005
137.546
138.031
138.459
138.837
139.164
139.444
139.676
139.866
140.01
140.117
140.181
140.216
140.206
140.174
140.108
140.014
139.889
139.745
139.572
139.385
139.169
138.942
138.688
138.426
138.138
137.842
137.525
137.197
136.857
136.494
136.145
135.739
135.401
134.941
134.626
134.033
49.6926
46.4
43.4159
40.7529
38.3375
36.1451
34.1261
32.3114
30.6151
29.1006
27.6528
26.3665
25.1258
24.0164
23.0516
22.1863
21.4595
20.7974
20.2596
19.7613
19.3855
19.0646
18.8479
18.7254
18.7363
18.7766
18.8841
19.0672
19.3741
19.7766
20.2775
20.8695
21.5601
22.3513
23.242
24.2419
25.3444
26.5628
27.8876
29.3344
30.8907
32.571
34.3585
36.266
38.2716
40.3863
42.5828
44.8706
47.2185
49.6644
52.1813
54.7604
57.3768
60.0155
62.6542
65.2808
67.8742
70.4286
72.9245
75.3573
77.7122
79.9896
82.1772
84.279
86.2852
88.2029
90.0239
91.7582
93.3816
94.913
96.3419
97.6892
98.944
100.131
101.235
102.285
103.258
104.186
105.045
105.867
106.622
107.349
108.013
108.654
109.229
109.791
110.285
110.773
111.19
111.609
111.951
112.306
112.577
112.871
113.075
113.316
113.459
113.652
113.753
113.924
33.3218
30.7371
28.3245
26.0953
24.0815
22.2556
20.6373
19.1815
17.9043
16.7576
15.7515
14.85
14.0476
13.333
12.7053
12.147
11.6522
11.2064
10.8099
10.4492
10.1274
9.83472
9.57277
9.33591
9.12662
8.93885
8.7754
8.62801
8.50644
8.39865
8.31901
8.24845
8.21126
8.17658
8.18041
8.20105
8.2351
8.30309
8.38911
8.51655
8.66437
8.85978
9.08097
9.35803
9.66693
10.0401
10.4518
10.9375
11.4687
12.0828
12.7488
13.5087
14.3255
15.2455
16.2246
17.3128
18.4604
19.7184
21.0335
22.456
23.9292
25.5031
27.1176
28.8231
30.5561
32.3681
34.1924
36.0822
37.9832
39.9468
41.9002
43.9001
45.8677
47.8658
49.8103
51.7724
53.6618
55.5598
57.3676
59.1796
60.8861
62.5972
64.1895
65.7922
67.2611
68.7523
70.0941
71.4767
72.6891
73.9561
75.0294
76.1937
77.1323
78.2119
79.0152
80.0293
80.7067
81.672
82.2657
83.3313
19.0604
17.2991
15.7996
14.5662
13.534
12.6528
11.8885
11.2165
10.6217
10.0884
9.6081
9.17402
8.78089
8.42425
8.09916
7.80281
7.53087
7.2818
7.0516
6.84002
6.64334
6.46213
6.29282
6.13694
5.99068
5.85612
5.72928
5.61275
5.50249
5.40176
5.30579
5.21901
5.13539
5.06084
4.98671
4.9229
4.85877
4.80452
4.74853
4.70282
4.65512
4.61792
4.5794
4.55161
4.52428
4.50751
4.49493
4.49591
4.50406
4.51272
4.54168
4.5677
4.60903
4.67229
4.7351
4.83907
4.92655
5.07552
5.20102
5.39723
5.56845
5.82065
6.04597
6.36377
6.65229
7.04607
7.40701
7.88708
8.32967
8.90718
9.44213
10.128
10.7639
11.5659
12.3072
13.2292
14.0758
15.1175
16.0645
17.2209
18.258
19.5199
20.6322
21.9872
23.1563
24.5898
25.7941
27.2908
28.5084
30.0662
31.283
32.8862
34.0749
35.7128
36.8406
38.4984
39.5382
41.2022
42.2455
44.1554
10.8077
10.3398
9.87729
9.42865
8.99814
8.59091
8.20807
7.85265
7.52204
7.21803
6.93888
6.68282
6.44678
6.22945
6.02808
5.84203
5.66884
5.50845
5.35851
5.21944
5.08881
4.96748
4.85286
4.74622
4.6448
4.55033
4.45986
4.37552
4.29421
4.21837
4.1448
4.0762
4.00924
3.94693
3.88569
3.82894
3.77264
3.72112
3.6697
3.62299
3.57585
3.5334
3.49009
3.45149
3.41164
3.37662
3.3399
3.30833
3.27457
3.24644
3.21542
3.19065
3.16235
3.14099
3.11579
3.09793
3.07631
3.06206
3.04463
3.03438
3.0218
3.0163
3.00945
3.00931
3.01176
3.01688
3.0245
3.04207
3.0561
3.08834
3.11084
3.1613
3.19481
3.26811
3.3157
3.4175
3.48223
3.6196
3.70467
3.88557
3.99494
4.22707
4.36593
4.65648
4.82884
5.18624
5.39545
5.8277
6.07648
6.59102
6.8822
7.48545
7.82171
8.51742
8.90248
9.67883
10.1208
10.9694
11.3541
12.8086
7.76262
7.46661
7.17772
6.89832
6.63333
6.38305
6.14981
5.932
5.73032
5.54276
5.36925
5.2077
5.0579
4.91797
4.78774
4.66556
4.55137
4.44382
4.34296
4.24768
4.15809
4.07329
3.99336
3.91754
3.84587
3.77772
3.71308
3.65145
3.59273
3.53664
3.48293
3.43158
3.38217
3.33495
3.28933
3.24575
3.20351
3.1632
3.12401
3.08663
3.05015
3.01538
2.98129
2.94884
2.91683
2.88648
2.85629
2.82784
2.79925
2.77253
2.74536
2.72022
2.69435
2.67068
2.64599
2.62371
2.60014
2.57921
2.5567
2.53702
2.51554
2.497
2.47652
2.45904
2.43947
2.42336
2.40493
2.39014
2.37286
2.35933
2.34324
2.33101
2.31629
2.30554
2.29248
2.28352
2.27255
2.26576
2.2575
2.2533
2.24879
2.24746
2.24777
2.25034
2.25364
2.2641
2.27106
2.29062
2.30245
2.33257
2.35034
2.39353
2.41823
2.47708
2.51658
2.58721
2.62643
2.73697
2.78265
2.98472
5.91719
5.74861
5.58269
5.41941
5.26144
5.10883
4.96341
4.82421
4.69259
4.5671
4.44892
4.3364
4.23066
4.12995
4.0354
3.94525
3.86063
3.77979
3.70387
3.63116
3.5628
3.49714
3.43534
3.37579
3.31969
3.26546
3.21432
3.16476
3.11797
3.07251
3.02956
2.9877
2.94812
2.90945
2.87285
2.83699
2.803
2.76964
2.73798
2.70683
2.67724
2.64809
2.62035
2.59298
2.56691
2.54116
2.5166
2.49232
2.46912
2.44618
2.42421
2.40248
2.38161
2.36099
2.34113
2.32151
2.30256
2.28385
2.26574
2.24787
2.23051
2.21341
2.19676
2.18036
2.16437
2.14863
2.13324
2.11811
2.1033
2.08874
2.07448
2.06044
2.04671
2.03317
2.01994
2.00687
1.99414
1.98153
1.96929
1.95712
1.94537
1.93365
1.92239
1.91127
1.90059
1.89008
1.88005
1.87019
1.86087
1.85169
1.8432
1.83476
1.82724
1.81959
1.81331
1.80653
1.8015
1.79558
1.79256
1.78803
4.74174
4.63787
4.53294
4.42655
4.32118
4.2172
4.11659
4.01889
3.92558
3.83572
3.75055
3.66882
3.59172
3.51778
3.44822
3.38144
3.31872
3.25839
3.20179
3.14717
3.09596
3.04634
2.99984
2.95458
2.91219
2.87072
2.83189
2.79371
2.758
2.7227
2.68973
2.65697
2.62641
2.59589
2.56746
2.53891
2.51238
2.48557
2.46072
2.43545
2.4121
2.38821
2.36621
2.34356
2.32277
2.30125
2.28158
2.26107
2.24241
2.22283
2.20511
2.18637
2.1695
2.15152
2.13543
2.11814
2.10277
2.0861
2.07139
2.05529
2.04119
2.02561
2.01209
1.99699
1.98401
1.96934
1.95688
1.94262
1.93065
1.91677
1.90527
1.89174
1.88069
1.86748
1.85686
1.84395
1.83374
1.8211
1.8113
1.7989
1.7895
1.77732
1.7683
1.75633
1.74768
1.73589
1.72762
1.716
1.70809
1.69663
1.68908
1.67776
1.67058
1.65939
1.65258
1.64153
1.63495
1.62385
1.61897
1.60275
3.97229
3.90578
3.83749
3.7668
3.69585
3.62478
3.5554
3.48717
3.42149
3.35751
3.29644
3.23722
3.18099
3.12654
3.07498
3.02503
2.97782
2.93197
2.88869
2.84653
2.80677
2.7679
2.73127
2.69532
2.66147
2.62811
2.59672
2.56564
2.53644
2.50738
2.48013
2.45286
2.42734
2.40166
2.37769
2.35344
2.33085
2.30787
2.28654
2.26471
2.24452
2.22372
2.20457
2.18472
2.16651
2.14752
2.13018
2.11197
2.09544
2.07794
2.06215
2.04531
2.03022
2.01399
1.99954
1.98386
1.97001
1.95485
1.94157
1.92688
1.91413
1.89989
1.88763
1.8738
1.86201
1.84855
1.83722
1.82411
1.81319
1.80041
1.7899
1.77742
1.7673
1.75509
1.74534
1.73339
1.724
1.71229
1.70325
1.69176
1.68305
1.67177
1.66338
1.65229
1.64421
1.6333
1.62552
1.61477
1.60729
1.59669
1.5895
1.57903
1.57213
1.56175
1.55512
1.54492
1.53869
1.52862
1.5218
1.51037
3.4744
3.42945
3.38276
3.33332
3.2831
3.23188
3.18143
3.13103
3.08216
3.03387
2.98751
2.94196
2.89851
2.85592
2.81546
2.77579
2.73822
2.70132
2.66644
2.63209
2.59966
2.56763
2.53742
2.50748
2.47928
2.45121
2.42482
2.39844
2.37368
2.34882
2.32552
2.30202
2.28005
2.25776
2.23699
2.21581
2.19611
2.17592
2.15721
2.13792
2.12011
2.10164
2.08466
2.06694
2.05072
2.03369
2.01818
2.00177
1.98692
1.97109
1.95685
1.94156
1.92789
1.9131
1.89997
1.88564
1.87301
1.8591
1.84695
1.83345
1.82175
1.8086
1.79733
1.78453
1.77366
1.76118
1.7507
1.73852
1.7284
1.7165
1.70674
1.69509
1.68566
1.67426
1.66516
1.65398
1.6452
1.63422
1.62575
1.61496
1.60679
1.59619
1.5883
1.57787
1.57026
1.55998
1.55265
1.54251
1.53545
1.52544
1.51864
1.50876
1.50221
1.49242
1.48614
1.47647
1.4703
1.46081
1.45659
1.44191
3.15282
3.11991
3.08551
3.04844
3.01049
2.97122
2.93231
2.89295
2.85459
2.81622
2.77925
2.74249
2.70732
2.67245
2.63924
2.60632
2.57508
2.54407
2.51472
2.48551
2.45793
2.43041
2.40446
2.37847
2.35402
2.32945
2.30637
2.28307
2.26124
2.23911
2.21842
2.19735
2.17769
2.15759
2.13889
2.11966
2.10183
2.08341
2.06639
2.0487
2.03243
2.01542
1.99983
1.98345
1.96851
1.9527
1.93836
1.92309
1.90932
1.89455
1.8813
1.86699
1.85424
1.84037
1.82809
1.81461
1.80278
1.78967
1.77826
1.76551
1.75449
1.74206
1.73143
1.71931
1.70904
1.6972
1.68728
1.67571
1.66612
1.6548
1.64554
1.63446
1.6255
1.61464
1.60599
1.59533
1.58697
1.5765
1.56842
1.55813
1.55033
1.54021
1.53267
1.5227
1.51543
1.50561
1.49859
1.48889
1.48213
1.47255
1.46603
1.45657
1.45029
1.4409
1.43485
1.42562
1.41993
1.41082
1.40457
1.39422
2.93922
2.91302
2.88558
2.85566
2.82492
2.79277
2.76082
2.72814
2.69622
2.66395
2.63278
2.60148
2.57148
2.54144
2.51281
2.48416
2.45697
2.42972
2.40396
2.37808
2.35367
2.3291
2.30597
2.28261
2.26068
2.23844
2.21762
2.19641
2.17662
2.15636
2.13751
2.11812
2.10014
2.08156
2.06438
2.04653
2.0301
2.01293
1.99719
1.98065
1.96554
1.94959
1.93508
1.91967
1.90572
1.89081
1.8774
1.86295
1.85004
1.83603
1.82358
1.80999
1.79799
1.78478
1.7732
1.76034
1.74916
1.73664
1.72585
1.71364
1.7032
1.69129
1.68121
1.66957
1.65981
1.64844
1.639
1.62787
1.61874
1.60784
1.59901
1.58833
1.57978
1.5693
1.56103
1.55075
1.54275
1.53264
1.5249
1.51496
1.50748
1.4977
1.49047
1.48083
1.47384
1.46434
1.45759
1.44822
1.4417
1.43244
1.42615
1.417
1.41094
1.40187
1.39604
1.38708
1.38134
1.37255
1.36864
1.35495
2.79212
2.76979
2.74636
2.72071
2.69429
2.66654
2.63888
2.61045
2.5826
2.55429
2.52687
2.49919
2.4726
2.44584
2.42028
2.39456
2.37013
2.34551
2.32221
2.29868
2.27648
2.25399
2.23286
2.21136
2.19122
2.17064
2.15143
2.13172
2.11338
2.09446
2.07693
2.05876
2.04198
2.02449
2.00842
1.99156
1.97614
1.95987
1.94507
1.92935
1.91511
1.8999
1.88621
1.87147
1.85829
1.844
1.83129
1.81742
1.80517
1.79168
1.77986
1.76674
1.75534
1.74256
1.73154
1.71908
1.70845
1.69629
1.68601
1.67413
1.6642
1.65259
1.64299
1.63162
1.62234
1.61121
1.60223
1.59133
1.58264
1.57195
1.56355
1.55305
1.54493
1.53461
1.52677
1.51662
1.50904
1.49905
1.49173
1.48189
1.47482
1.46512
1.45829
1.44872
1.44214
1.43269
1.42635
1.417
1.4109
1.40165
1.39578
1.38662
1.38098
1.37191
1.36645
1.35747
1.35241
1.34338
1.33946
1.32617
2.68657
2.66664
2.64561
2.6226
2.59891
2.574
2.54913
2.52353
2.49837
2.47275
2.44785
2.42267
2.39839
2.37391
2.35046
2.32683
2.30429
2.28156
2.25997
2.23814
2.21749
2.19654
2.1768
2.15669
2.1378
2.1185
2.10042
2.08186
2.06455
2.04669
2.03009
2.01287
1.99694
1.98034
1.96503
1.94899
1.93428
1.91876
1.9046
1.88957
1.87593
1.86136
1.84822
1.83407
1.8214
1.80766
1.79543
1.78207
1.77026
1.75726
1.74585
1.73318
1.72216
1.7098
1.69915
1.68709
1.67679
1.66501
1.65505
1.64353
1.6339
1.62262
1.6133
1.60226
1.59324
1.58241
1.57369
1.56307
1.55463
1.54421
1.53604
1.5258
1.5179
1.50783
1.5002
1.49029
1.48291
1.47315
1.46602
1.4564
1.44952
1.44003
1.43338
1.42402
1.4176
1.40835
1.40217
1.39302
1.38707
1.37802
1.37228
1.36332
1.35781
1.34893
1.3436
1.3348
1.32986
1.32101
1.31717
1.30417
2.60951
2.59081
2.57125
2.54994
2.52805
2.50504
2.48206
2.45838
2.43507
2.41131
2.38818
2.36475
2.34212
2.31927
2.29733
2.2752
2.25404
2.23268
2.21234
2.19177
2.17224
2.15245
2.13372
2.11467
2.0967
2.07836
2.06112
2.04344
2.02688
2.00983
1.99392
1.97745
1.96214
1.94622
1.93149
1.91608
1.90189
1.88696
1.87328
1.85879
1.8456
1.83153
1.8188
1.80513
1.79283
1.77953
1.76764
1.7547
1.74321
1.7306
1.71949
1.70719
1.69644
1.68444
1.67404
1.66231
1.65225
1.64079
1.63104
1.61983
1.6104
1.59941
1.59028
1.57952
1.57068
1.56012
1.55156
1.54121
1.53292
1.52274
1.51472
1.50472
1.49696
1.48713
1.47961
1.46993
1.46267
1.45313
1.44611
1.43671
1.42993
1.42065
1.4141
1.40494
1.39862
1.38957
1.38347
1.37452
1.36864
1.35978
1.35413
1.34535
1.3399
1.33118
1.326
1.31742
1.31246
1.30416
1.29853
1.28907
2.55137
2.53342
2.5148
2.49462
2.47395
2.45225
2.43058
2.40824
2.38625
2.36382
2.34196
2.3198
2.29837
2.27672
2.25589
2.23487
2.21473
2.1944
2.175
2.15538
2.13671
2.11779
2.09984
2.0816
2.06434
2.04674
2.03014
2.01315
1.99718
1.98076
1.96538
1.9495
1.93468
1.9193
1.90502
1.89012
1.87633
1.86187
1.84856
1.83452
1.82167
1.80802
1.79559
1.78232
1.7703
1.75738
1.74575
1.73316
1.72191
1.70963
1.69874
1.68676
1.67622
1.66451
1.6543
1.64286
1.63297
1.62178
1.6122
1.60125
1.59196
1.58123
1.57224
1.56172
1.55301
1.54268
1.53424
1.5241
1.51593
1.50597
1.49806
1.48826
1.4806
1.47096
1.46354
1.45405
1.44688
1.43753
1.43059
1.42136
1.41466
1.40556
1.39908
1.39009
1.38384
1.37495
1.36892
1.36012
1.35432
1.3456
1.34002
1.33138
1.32601
1.31742
1.31231
1.30386
1.29898
1.29081
1.28527
1.27591
2.50701
2.48953
2.47151
2.45206
2.43224
2.41143
2.39072
2.36934
2.34833
2.32686
2.30596
2.28473
2.26422
2.24345
2.22348
2.20329
2.18395
2.1644
2.14573
2.12684
2.10884
2.09059
2.07325
2.05563
2.03893
2.02191
2.00582
1.98937
1.97386
1.95794
1.94298
1.92757
1.91312
1.89819
1.88424
1.86975
1.85627
1.84221
1.82917
1.8155
1.80289
1.7896
1.77739
1.76445
1.75263
1.74003
1.72858
1.7163
1.7052
1.69322
1.68247
1.67078
1.66035
1.64893
1.63882
1.62765
1.61785
1.60693
1.59742
1.58673
1.5775
1.56703
1.55808
1.54782
1.53913
1.52907
1.52064
1.51077
1.50259
1.49289
1.48497
1.47543
1.46775
1.45837
1.45092
1.44169
1.43447
1.42539
1.41839
1.40944
1.40266
1.39383
1.38727
1.37856
1.37221
1.36361
1.35747
1.34897
1.34304
1.33463
1.32891
1.32058
1.31506
1.30679
1.30149
1.29332
1.2881
1.28007
1.27651
1.26407
2.47285
2.45563
2.43801
2.41901
2.39979
2.37959
2.35958
2.33886
2.31859
2.2978
2.27763
2.25707
2.23727
2.21714
2.19785
2.17827
2.15957
2.14059
2.12252
2.10415
2.08671
2.06895
2.05212
2.03496
2.01873
2.00213
1.98648
1.97041
1.9553
1.93975
1.92516
1.91008
1.89598
1.88135
1.86772
1.85352
1.84033
1.82653
1.81376
1.80034
1.78798
1.77492
1.76294
1.75022
1.73861
1.72622
1.71496
1.70287
1.69196
1.68016
1.66957
1.65805
1.64778
1.63652
1.62655
1.61555
1.60587
1.59511
1.58572
1.57517
1.56606
1.55573
1.54688
1.53675
1.52816
1.51823
1.50989
1.50014
1.49205
1.48247
1.47462
1.46521
1.45759
1.44833
1.44095
1.43183
1.42467
1.41569
1.40876
1.39991
1.39319
1.38446
1.37795
1.36934
1.36304
1.35453
1.34844
1.34003
1.33415
1.32583
1.32014
1.31191
1.30643
1.29825
1.29296
1.28491
1.27993
1.27196
1.26649
1.25747
2.44594
2.42886
2.4115
2.3928
2.37402
2.35426
2.33478
2.31456
2.29485
2.27458
2.255
2.23497
2.21574
2.19612
2.17738
2.15828
2.14011
2.12158
2.104
2.08605
2.06908
2.05171
2.03532
2.01851
2.00269
1.98641
1.97113
1.95537
1.94061
1.92532
1.91105
1.89622
1.88241
1.86801
1.85465
1.84065
1.82771
1.8141
1.80156
1.78832
1.77616
1.76326
1.75148
1.7389
1.72747
1.71521
1.70412
1.69216
1.6814
1.66972
1.65927
1.64786
1.63773
1.62657
1.61673
1.60582
1.59626
1.58558
1.5763
1.56584
1.55683
1.54658
1.53783
1.52778
1.51928
1.50942
1.50117
1.49149
1.48348
1.47397
1.46619
1.45684
1.4493
1.4401
1.43279
1.42373
1.41664
1.40772
1.40084
1.39205
1.38539
1.37672
1.37027
1.36171
1.35547
1.34701
1.34097
1.33261
1.32678
1.31851
1.31288
1.30469
1.29926
1.29112
1.28588
1.27788
1.27295
1.26504
1.25962
1.25062
2.42564
2.4086
2.39136
2.37285
2.35437
2.33493
2.31583
2.29599
2.27671
2.25684
2.2377
2.21806
2.19928
2.18004
2.16173
2.14298
2.12521
2.107
2.0898
2.07214
2.05552
2.0384
2.02234
2.00575
1.99023
1.97415
1.95914
1.94354
1.92903
1.91388
1.89984
1.88513
1.87154
1.85724
1.84407
1.83016
1.81741
1.80386
1.7915
1.77831
1.76632
1.75347
1.74184
1.72931
1.71802
1.7058
1.69485
1.68291
1.67229
1.66063
1.65031
1.63892
1.62891
1.61777
1.60804
1.59715
1.58771
1.57704
1.56787
1.55742
1.54852
1.53828
1.52963
1.5196
1.5112
1.50135
1.4932
1.48353
1.47561
1.46611
1.45843
1.44909
1.44164
1.43246
1.42522
1.41618
1.40917
1.40027
1.39346
1.3847
1.3781
1.36946
1.36307
1.35454
1.34836
1.33994
1.33395
1.32563
1.31984
1.31161
1.30602
1.29788
1.29248
1.2844
1.27921
1.27122
1.2661
1.25826
1.25477
1.24255
2.41093
2.39384
2.37659
2.35818
2.33982
2.32057
2.30166
2.28205
2.263
2.24337
2.22445
2.20505
2.18647
2.16744
2.14931
2.13074
2.11314
2.09508
2.07802
2.06048
2.04398
2.02695
2.01098
1.99445
1.97901
1.96297
1.94804
1.93246
1.91802
1.90288
1.88892
1.87421
1.8607
1.84639
1.83331
1.8194
1.80674
1.79319
1.78093
1.76774
1.75587
1.74301
1.7315
1.71895
1.70779
1.69554
1.68472
1.67276
1.66227
1.65058
1.64041
1.62899
1.61913
1.60795
1.5984
1.58746
1.5782
1.56748
1.5585
1.548
1.53929
1.529
1.52055
1.51045
1.50226
1.49235
1.48441
1.47467
1.46697
1.4574
1.44994
1.44052
1.4333
1.42402
1.41703
1.40789
1.40112
1.39211
1.38556
1.37668
1.37034
1.36157
1.35545
1.34679
1.34087
1.33231
1.3266
1.31813
1.31262
1.30423
1.29893
1.29062
1.28552
1.27728
1.27234
1.26418
1.25961
1.2514
1.24783
1.23577
2.39899
2.38184
2.36454
2.34613
2.32778
2.30857
2.28966
2.27007
2.25096
2.2313
2.21228
2.1928
2.17407
2.15495
2.13666
2.118
2.10023
2.08209
2.06487
2.04717
2.03046
2.01328
1.99712
1.98048
1.9649
1.9488
1.93379
1.91822
1.90376
1.88869
1.87476
1.86016
1.84672
1.83257
1.8196
1.80587
1.79333
1.77999
1.76787
1.75489
1.74317
1.73053
1.71918
1.70687
1.6959
1.68389
1.67327
1.66155
1.65125
1.63981
1.62982
1.61864
1.60896
1.59801
1.58862
1.5779
1.56879
1.55828
1.54945
1.53915
1.53057
1.52046
1.51215
1.50222
1.49415
1.4844
1.47657
1.46699
1.4594
1.44997
1.44261
1.43333
1.42619
1.41705
1.41014
1.40113
1.39444
1.38555
1.37907
1.3703
1.36404
1.35537
1.34931
1.34075
1.3349
1.32643
1.32079
1.31241
1.30696
1.29866
1.29341
1.28518
1.28013
1.27198
1.26708
1.25901
1.25447
1.24634
1.24282
1.23086
2.39032
2.37269
2.35473
2.33545
2.31615
2.29586
2.27589
2.2552
2.23512
2.21453
2.19476
2.17461
2.15541
2.13588
2.1174
2.09859
2.08087
2.0628
2.04586
2.02862
2.01247
1.99595
1.98051
1.96461
1.94978
1.93443
1.92016
1.9053
1.89152
1.87711
1.86379
1.84979
1.8369
1.82327
1.81078
1.7975
1.78539
1.77244
1.76069
1.74806
1.73665
1.72431
1.71323
1.70118
1.69043
1.67864
1.6682
1.65667
1.64653
1.63525
1.6254
1.61436
1.60478
1.59397
1.58467
1.57407
1.56504
1.55464
1.54587
1.53567
1.52715
1.51713
1.50886
1.49902
1.49099
1.48132
1.47353
1.46402
1.45646
1.4471
1.43976
1.43055
1.42343
1.41435
1.40746
1.39851
1.39183
1.383
1.37653
1.36782
1.36156
1.35295
1.3469
1.33839
1.33254
1.32413
1.31848
1.31015
1.3047
1.29645
1.2912
1.28303
1.27796
1.26983
1.26501
1.25702
1.25239
1.24465
1.2394
1.23057
2.36069
2.34175
2.3232
2.30403
2.28536
2.26617
2.24761
2.22861
2.21035
2.19169
2.17385
2.15562
2.13826
2.12051
2.10367
2.08642
2.07009
2.05334
2.03752
2.02124
2.00593
1.99011
1.97527
1.95989
1.9455
1.93054
1.91659
1.90202
1.88849
1.8743
1.86117
1.84733
1.83459
1.8211
1.80872
1.79556
1.78354
1.77068
1.75901
1.74645
1.73511
1.72284
1.71182
1.69983
1.68912
1.67739
1.66698
1.6555
1.64539
1.63416
1.62433
1.61333
1.60378
1.593
1.58372
1.57315
1.56414
1.55377
1.54501
1.53483
1.52633
1.51634
1.50808
1.49826
1.49024
1.48059
1.47281
1.46331
1.45576
1.44641
1.43908
1.42988
1.42278
1.41371
1.40682
1.39788
1.39121
1.38239
1.37592
1.36722
1.36096
1.35237
1.34632
1.33782
1.33197
1.32356
1.31792
1.3096
1.30415
1.29591
1.29066
1.28249
1.27744
1.26931
1.2645
1.25652
1.25191
1.2442
1.23897
1.23013
3.5504
3.67182
3.88207
4.04434
4.4193
4.64601
5.27883
5.99059
7.06752
11.025
3.26635
3.31293
3.4747
3.60205
3.81703
4.12142
4.36919
5.00131
5.48165
7.96249
3.0545
3.12591
3.1717
3.30771
3.3937
3.65226
3.80331
4.25356
4.5391
6.02428
2.93498
2.98789
3.0132
3.10109
3.15018
3.31095
3.40859
3.7082
3.89405
4.79413
2.84216
2.88041
2.8972
2.95822
2.98922
3.09078
3.15087
3.33759
3.45539
4.00223
2.76763
2.7935
2.80503
2.84783
2.86886
2.93721
2.97536
3.09257
3.16513
3.4942
2.71061
2.72713
2.73404
2.76302
2.77675
2.82318
2.84795
2.92394
2.96885
3.1672
2.66588
2.67495
2.67887
2.69729
2.70596
2.73656
2.75254
2.80201
2.83043
2.95064
2.62922
2.63338
2.63469
2.64563
2.6504
2.66985
2.6795
2.71141
2.72888
2.80383
2.59989
2.59964
2.59937
2.60419
2.60624
2.61722
2.62252
2.64196
2.65169
2.69995
2.57667
2.5737
2.57097
2.5713
2.57125
2.57575
2.57786
2.58797
2.59284
2.62269
2.55789
2.55323
2.54819
2.54577
2.54297
2.54287
2.5426
2.54601
2.54754
2.56475
2.54308
2.53638
2.53026
2.52529
2.52086
2.51739
2.51454
2.51289
2.51196
2.52016
2.53103
2.52317
2.51556
2.50934
2.50268
2.49784
2.49175
2.4884
2.48245
2.48585
2.52132
2.51323
2.50374
2.49714
2.48815
2.48262
2.47379
2.46924
2.45857
2.4589
2.51392
2.506
2.49481
2.48815
2.47726
2.47129
2.46036
2.45473
2.44291
2.43869
2.50784
2.50019
2.48768
2.48095
2.46887
2.46234
2.45033
2.44354
2.43152
2.42413
2.50357
2.49473
2.48243
2.47419
2.46244
2.45412
2.44248
2.43365
2.42188
2.41239
2.50145
2.49154
2.47942
2.46997
2.45834
2.44873
2.43708
2.42694
2.41496
2.40414
2.4893
2.47668
2.46333
2.45135
2.43837
2.42662
2.41357
2.40171
2.38833
2.37618
3.41014
3.67188
4.08947
4.74566
5.94631
7.66797
11.6657
22.1058
71.6297
49.015
3.43823
3.71742
4.11836
4.76929
5.93116
8.13631
12.7413
22.784
74.2975
49.4124
3.43809
3.71181
4.19936
4.90225
6.25452
8.1591
12.757
24.0183
78.4251
49.6449
3.47731
3.73073
4.20005
4.89406
6.25342
8.77892
14.0705
24.5551
81.8535
49.7414
3.47792
3.75301
4.30561
5.08599
6.64647
8.83482
14.1747
26.6228
85.9239
49.7506
3.54736
3.78567
4.31286
5.10181
6.6879
9.62388
15.9555
27.375
89.9026
49.6525
3.56191
3.8685
4.47511
5.37285
7.20442
9.76561
16.2547
30.1524
93.8229
49.2347
3.67216
3.92944
4.52298
5.44754
7.32442
10.846
18.3507
31.8084
97.4419
48.7671
3.70786
4.06622
4.77757
5.8631
8.0805
11.1734
19.3183
36.3194
98.8554
48.5286
3.87845
4.18593
4.88932
6.03296
8.3332
12.778
21.7544
41.4248
98.1702
48.179
3.42413
3.65983
4.03904
4.43942
5.51116
6.35634
11.8515
16.8176
52.7196
46.317
3.4251
3.63661
4.00088
4.41107
5.07987
6.98002
9.62305
19.1069
48.6061
44.1265
3.43211
3.66222
4.02121
4.4435
5.22994
7.11959
9.74411
19.7315
49.2573
43.632
3.42622
3.67108
4.01475
4.48997
5.32739
7.14363
9.97427
19.9565
52.1777
44.084
3.42317
3.67366
4.00788
4.53075
5.38279
7.12095
10.3562
19.9288
54.5918
44.4405
3.4167
3.6919
3.99346
4.54117
5.42032
7.14166
10.683
20.3563
57.031
45.61
3.4097
3.66937
4.06171
4.5399
5.42847
7.19525
10.856
20.3116
59.8487
46.0677
3.39798
3.66235
4.0417
4.66925
5.46509
7.18401
11.0825
21.0692
61.9216
47.1073
3.38346
3.63893
4.03379
4.66261
5.70833
7.328
10.9532
20.8589
65.4945
47.5193
3.39336
3.67374
4.03178
4.68648
5.68089
7.61037
11.7526
21.7462
67.6022
48.3848
57.852
49.6857
43.4318
38.5054
34.534
31.2705
28.5449
26.2369
24.2591
22.5467
21.0506
19.7329
18.5639
17.5204
16.5833
15.7376
14.9705
14.2719
13.6331
13.0468
12.5069
12.0082
11.5462
11.1171
10.7175
10.3445
9.99555
9.66852
9.36132
9.07234
8.7999
8.54277
8.29958
8.06938
7.85102
7.64377
7.44666
7.25913
7.08036
6.9099
6.74703
6.59144
6.44247
6.2999
6.16313
6.03204
5.90604
5.7851
5.66867
5.55676
5.44884
5.345
5.24469
5.14808
5.05462
4.96451
4.87721
4.79298
4.71126
4.63235
4.55568
4.48161
4.40954
4.33988
4.27201
4.20639
4.14236
4.08043
4.01994
3.96142
3.90418
3.84881
3.79458
3.74214
3.69071
3.64101
3.59221
3.5451
3.49879
3.45416
3.41025
3.36803
3.32651
3.28673
3.24765
3.21045
3.17404
3.13978
3.10656
3.07599
3.04704
3.02175
2.99936
2.98273
2.97199
2.97229
2.99831
3.03075
3.12056
3.27585
57.8485
49.6785
43.4225
38.495
34.5231
31.2594
28.5338
26.2259
24.2484
22.5363
21.0405
19.7231
18.5544
17.5112
16.5744