/*--------------------------------*- C++ -*----------------------------------*\
  =========                 |
  \\      /  F ield         | OpenFOAM: The Open Source CFD Toolbox
   \\    /   O peration     | Website:  https://openfoam.org
    \\  /    A nd           | Version:  8
     \\/     M anipulation  |
\*---------------------------------------------------------------------------*/
FoamFile
{
    version     2.0;
    format      ascii;
    class       volScalarField;
    location    "2.0000073";
    object      nut;
}
// * * * * * * * * * * * * * * * * * * * * * * * * * * * * * * * * * * * * * //

dimensions      [0 2 -1 0 0 0 0];

internalField   nonuniform List<scalar> 
6800
(
0.083932
0.114292
0.115309
0.11194
0.111413
0.0951788
0.0762583
0.0568399
0.046378
0.047381
0.0609838
0.0994962
0.106679
0.107653
0.100058
0.0775929
0.0570645
0.0492674
0.0454889
0.0383485
0.0615825
0.0962228
0.105925
0.100513
0.0823099
0.0606889
0.0511249
0.0450451
0.0351006
0.0317912
0.0627485
0.095025
0.101056
0.0926487
0.0697221
0.0566911
0.0467318
0.0377005
0.0326751
0.0305551
0.0627729
0.0937893
0.09872
0.0839923
0.0614974
0.0485768
0.0392764
0.0352751
0.0311211
0.0265147
0.0632171
0.0959164
0.095541
0.0726487
0.0549113
0.046572
0.0396734
0.0331894
0.0275254
0.0251682
0.0630454
0.0979283
0.0921809
0.0674511
0.0540164
0.0421445
0.0343934
0.0290104
0.0262927
0.0245061
0.0632264
0.101417
0.086332
0.0584887
0.0463145
0.0404435
0.0330758
0.0293654
0.025016
0.0230711
0.0631224
0.103903
0.0777588
0.0612478
0.0497676
0.0374315
0.0303187
0.0264814
0.0237567
0.0226359
0.063359
0.106274
0.0738573
0.053461
0.0403999
0.0362713
0.029609
0.0263079
0.0233764
0.0217356
0.577675
0.859716
0.98123
1.01643
1.0125
1.02246
1.04017
1.06219
1.07657
1.0822
0.544427
0.825209
0.937464
0.975794
0.964415
0.966362
0.974465
0.980434
0.975518
0.969592
0.50233
0.773978
0.882454
0.89525
0.885318
0.87953
0.872422
0.867877
0.865348
0.851017
0.493752
0.712119
0.790773
0.799135
0.783073
0.75864
0.743068
0.723032
0.685318
0.6131
0.46084
0.653553
0.709839
0.685052
0.647914
0.618352
0.584989
0.517764
0.463358
0.355396
0.439256
0.595623
0.589163
0.556216
0.527007
0.464467
0.393433
0.295896
0.240304
0.171966
0.488204
0.523112
0.491666
0.455575
0.364555
0.27066
0.199332
0.153436
0.139953
0.108341
0.480273
0.411095
0.374293
0.283046
0.197628
0.157112
0.134035
0.111758
0.106775
0.0862351
0.427889
0.297592
0.235845
0.163656
0.136061
0.12279
0.108723
0.0968514
0.0927694
0.0669519
0.255527
0.160203
0.138924
0.123202
0.118047
0.110858
0.0956845
0.0838995
0.0601202
0.0484071
1.08519
1.07255
1.05337
1.03278
1.01337
0.995971
0.980627
0.967616
0.956591
0.947033
0.938612
0.931105
0.924358
0.918261
0.912722
0.907669
0.903036
0.898771
0.894832
0.891189
0.887815
0.884697
0.881815
0.879167
0.876735
0.874482
0.872391
0.870455
0.868652
0.866949
0.865334
0.863795
0.862323
0.860908
0.859539
0.858206
0.856905
0.855628
0.854377
0.853149
0.851948
0.850782
0.849657
0.84858
0.847558
0.846595
0.845692
0.844852
0.84408
0.843375
0.842735
0.842155
0.841631
0.841158
0.84073
0.840342
0.83999
0.839668
0.839372
0.839097
0.838842
0.838603
0.838376
0.83816
0.837951
0.837749
0.837553
0.837361
0.837172
0.836986
0.836804
0.836626
0.836453
0.836287
0.836128
0.835978
0.835838
0.835711
0.835595
0.835496
0.835407
0.83534
0.835281
0.835251
0.835219
0.835227
0.835216
0.835269
0.835266
0.835371
0.835356
0.835529
0.835471
0.835731
0.835626
0.835964
0.83576
0.836294
0.835302
0.837594
0.971898
0.968204
0.956745
0.943714
0.931046
0.919331
0.908772
0.899905
0.89223
0.885497
0.87956
0.874297
0.869618
0.865451
0.861727
0.858374
0.855329
0.852547
0.849993
0.847648
0.845499
0.843542
0.841765
0.840181
0.838732
0.83736
0.836103
0.834982
0.833935
0.832932
0.832009
0.831166
0.83039
0.829665
0.828978
0.828312
0.827661
0.827014
0.826376
0.825736
0.825108
0.82451
0.823946
0.823422
0.822939
0.8225
0.822103
0.821762
0.821484
0.82126
0.821082
0.820945
0.820845
0.820778
0.820739
0.820724
0.820729
0.82075
0.820784
0.820827
0.820878
0.820932
0.820986
0.821038
0.821085
0.82113
0.82117
0.821203
0.82123
0.821254
0.821275
0.821296
0.821319
0.821345
0.821376
0.821415
0.82146
0.821517
0.821584
0.821666
0.821757
0.821868
0.821983
0.822126
0.822263
0.82244
0.82259
0.822805
0.822956
0.823219
0.823348
0.823675
0.823752
0.824166
0.824183
0.824677
0.824591
0.825293
0.82437
0.82689
0.85575
0.85706
0.84823
0.838663
0.829632
0.82144
0.814257
0.807168
0.800692
0.795086
0.79032
0.786289
0.782918
0.780125
0.77779
0.775835
0.774181
0.772781
0.771599
0.77062
0.76983
0.769223
0.7688
0.768544
0.768488
0.768657
0.769023
0.7695
0.770208
0.77112
0.772142
0.773208
0.774276
0.775318
0.776308
0.777233
0.778086
0.778863
0.779577
0.780211
0.780843
0.78149
0.782129
0.782754
0.783363
0.783959
0.784551
0.785131
0.785696
0.786253
0.786809
0.787366
0.787925
0.788486
0.789048
0.789608
0.790166
0.790716
0.79126
0.79179
0.792315
0.792813
0.793284
0.793734
0.794163
0.794582
0.794967
0.795331
0.795681
0.796022
0.796357
0.79669
0.79702
0.797353
0.797686
0.798025
0.79837
0.798727
0.799089
0.799466
0.799846
0.800244
0.800638
0.801057
0.80146
0.801902
0.802304
0.802774
0.80316
0.803668
0.804015
0.804582
0.804866
0.805518
0.805727
0.806462
0.80653
0.8075
0.80669
0.809615
0.610149
0.613382
0.614264
0.61484
0.615981
0.617645
0.619759
0.622703
0.62604
0.629729
0.633595
0.637515
0.641527
0.645609
0.649594
0.65345
0.657096
0.660556
0.663855
0.66703
0.670118
0.673153
0.676167
0.679178
0.682195
0.685233
0.688283
0.69136
0.694375
0.697323
0.700214
0.703029
0.705744
0.708351
0.710825
0.713165
0.715365
0.717445
0.719389
0.721269
0.722976
0.724527
0.725974
0.727353
0.728689
0.730003
0.731303
0.732602
0.733901
0.735198
0.736498
0.737798
0.739096
0.740388
0.741672
0.742945
0.744203
0.745443
0.746662
0.747859
0.749028
0.750181
0.751318
0.752434
0.753531
0.754597
0.755668
0.756734
0.757786
0.758822
0.759841
0.760844
0.761827
0.7628
0.76375
0.764704
0.765654
0.766603
0.76754
0.768475
0.769392
0.770311
0.771204
0.77211
0.772975
0.773871
0.774701
0.775597
0.776378
0.777287
0.778001
0.778944
0.779554
0.780557
0.781062
0.782134
0.782481
0.783784
0.783141
0.786588
0.34401
0.339924
0.339471
0.342102
0.347371
0.354799
0.363488
0.373379
0.383598
0.39447
0.40538
0.416334
0.427437
0.438431
0.448497
0.45802
0.466901
0.475457
0.483737
0.491799
0.499695
0.507458
0.515119
0.522683
0.530154
0.537527
0.544779
0.551906
0.55886
0.565634
0.572181
0.578487
0.584525
0.590253
0.595626
0.600705
0.605521
0.6101
0.614487
0.618683
0.622769
0.62675
0.630637
0.634434
0.63815
0.641798
0.64537
0.648896
0.652336
0.655689
0.658981
0.662204
0.665354
0.668426
0.67142
0.674332
0.67716
0.679906
0.682571
0.685153
0.687655
0.69008
0.692431
0.694713
0.69693
0.699086
0.701176
0.703209
0.70519
0.707127
0.709021
0.710876
0.712695
0.714477
0.716234
0.717944
0.719603
0.721229
0.722814
0.72438
0.725904
0.727421
0.728891
0.73037
0.731785
0.733234
0.734589
0.73602
0.737303
0.738732
0.739923
0.741373
0.742443
0.743942
0.744888
0.746454
0.747204
0.749026
0.748728
0.752833
0.169497
0.168252
0.167697
0.16807
0.169381
0.171699
0.174788
0.178812
0.183389
0.189236
0.194968
0.201113
0.208865
0.215871
0.225012
0.234161
0.244023
0.254575
0.265244
0.276058
0.287061
0.298226
0.30952
0.320846
0.332179
0.34345
0.354634
0.365722
0.376528
0.387273
0.39748
0.407346
0.416669
0.425314
0.433245
0.441154
0.448842
0.456334
0.463658
0.470822
0.477853
0.484752
0.491548
0.498224
0.504802
0.511283
0.517615
0.523914
0.529961
0.535843
0.541742
0.547416
0.552931
0.558269
0.563458
0.568478
0.573351
0.578093
0.582687
0.587142
0.591468
0.595674
0.599763
0.603746
0.607626
0.611411
0.615101
0.618705
0.622223
0.625662
0.62902
0.632306
0.635511
0.638655
0.641715
0.644731
0.647668
0.650558
0.653375
0.656151
0.658844
0.66151
0.664087
0.666659
0.669121
0.671612
0.673955
0.676379
0.678594
0.680971
0.683042
0.6854
0.687298
0.689667
0.69139
0.693809
0.695264
0.697916
0.698295
0.703321
0.10706
0.105537
0.104209
0.103203
0.102457
0.101958
0.101661
0.101625
0.101912
0.102339
0.103222
0.104074
0.105515
0.106959
0.108321
0.110316
0.112601
0.114812
0.117549
0.120334
0.124123
0.128485
0.13322
0.138407
0.144214
0.150477
0.157215
0.164271
0.171862
0.179738
0.188137
0.197126
0.207003
0.21722
0.227592
0.23809
0.248656
0.259252
0.269835
0.280369
0.290827
0.30118
0.311408
0.321495
0.331413
0.341174
0.350728
0.360104
0.369282
0.377997
0.386351
0.394301
0.402095
0.409636
0.417103
0.424273
0.431482
0.438572
0.445289
0.451929
0.458455
0.464863
0.471141
0.477298
0.483323
0.489228
0.494999
0.500656
0.506174
0.51157
0.516822
0.521951
0.526937
0.531819
0.53655
0.541226
0.545704
0.550174
0.554511
0.558769
0.562887
0.56699
0.570953
0.574915
0.578704
0.582538
0.586152
0.589876
0.593305
0.59694
0.600167
0.603741
0.606736
0.610284
0.613027
0.616603
0.61902
0.622802
0.624136
0.630214
0.0851292
0.0837
0.0823369
0.0809935
0.0796822
0.0783853
0.0771042
0.0758871
0.0744498
0.073144
0.0715178
0.0701733
0.068513
0.0670479
0.0658546
0.0647712
0.0640071
0.0632415
0.062772
0.0622545
0.0620731
0.0620212
0.0621762
0.0627316
0.0636798
0.0644498
0.0651495
0.0662403
0.0678579
0.0698231
0.0719496
0.0743283
0.0770311
0.080078
0.0834625
0.0872439
0.0913767
0.0959263
0.100847
0.106214
0.111972
0.118181
0.124773
0.131805
0.139189
0.146981
0.155067
0.163511
0.172174
0.181352
0.190908
0.200834
0.210869
0.220952
0.231043
0.241101
0.251065
0.260952
0.270686
0.280261
0.289637
0.298832
0.307805
0.316588
0.32514
0.333505
0.341642
0.349605
0.357218
0.364617
0.371695
0.378628
0.385355
0.392009
0.39846
0.404885
0.411101
0.417319
0.42331
0.429358
0.435119
0.441093
0.446712
0.452314
0.45769
0.463187
0.468341
0.47369
0.478595
0.483807
0.488426
0.493523
0.497815
0.502831
0.506763
0.511798
0.51525
0.520442
0.523217
0.530224
0.0650368
0.0631485
0.0612961
0.0593833
0.0575696
0.0557911
0.0542071
0.0526685
0.0513588
0.050107
0.0490566
0.0479316
0.0468214
0.0457698
0.0448526
0.0440315
0.043315
0.0426614
0.0420973
0.0415733
0.0411223
0.0407133
0.040359
0.0400501
0.0398028
0.0395947
0.0394457
0.0393069
0.0392568
0.0392149
0.0392832
0.0393277
0.0395268
0.0396547
0.0399666
0.040373
0.0406591
0.0411585
0.0417506
0.0425051
0.0433126
0.044313
0.0454079
0.0467358
0.0481871
0.0499072
0.051784
0.0539837
0.0563743
0.0591204
0.0620879
0.0654688
0.0690977
0.0731843
0.077531
0.0823533
0.087437
0.0929913
0.0988002
0.10506
0.111544
0.118446
0.125528
0.132986
0.140571
0.14848
0.156457
0.164705
0.1731
0.181801
0.190553
0.199523
0.208328
0.217274
0.225978
0.234794
0.2433
0.251907
0.260137
0.268482
0.276386
0.284436
0.291999
0.299754
0.306934
0.314405
0.3212
0.328421
0.334807
0.341702
0.34758
0.354237
0.359618
0.366177
0.371069
0.377649
0.382147
0.388731
0.393061
0.400828
0.0474718
0.0458679
0.0443116
0.0430219
0.0419171
0.0409398
0.0400566
0.0392429
0.038498
0.0377929
0.037129
0.0365074
0.0359295
0.035396
0.0349
0.0344447
0.0340199
0.0336311
0.0332654
0.0329333
0.0326191
0.032335
0.0320647
0.0318243
0.0315938
0.0313914
0.0311956
0.0310265
0.0308623
0.0307255
0.030589
0.0304824
0.0303707
0.0302912
0.0301874
0.0301311
0.0300663
0.0300372
0.029979
0.0299653
0.0299285
0.0299375
0.0299328
0.0299725
0.0300145
0.0300948
0.0302064
0.0304009
0.0306192
0.0307099
0.031039
0.0311514
0.0315238
0.0319522
0.0323883
0.0330281
0.0335358
0.0343662
0.0351054
0.0361461
0.0371159
0.038444
0.0397014
0.0413765
0.0429752
0.0450583
0.0470484
0.0495936
0.0520263
0.0550963
0.0580331
0.0616896
0.0651774
0.069453
0.0735035
0.0784077
0.0830094
0.0885299
0.0936456
0.0997476
0.105315
0.111945
0.11788
0.124975
0.131178
0.138666
0.145026
0.152838
0.159254
0.16747
0.17393
0.182471
0.188825
0.197618
0.203559
0.212491
0.217892
0.22682
0.23389
0.241462
0.0383878
0.0375167
0.0366729
0.0358695
0.0351166
0.0344191
0.0337625
0.0331606
0.0325904
0.0320739
0.0316059
0.0311844
0.0307949
0.0304393
0.0301046
0.0297973
0.0295049
0.0292374
0.0289831
0.028753
0.0285316
0.0283324
0.0281375
0.0279629
0.0277882
0.0276324
0.027473
0.0273314
0.0271841
0.0270535
0.0269161
0.0267947
0.026666
0.0265532
0.0264326
0.0263289
0.0262148
0.0261236
0.026023
0.0259458
0.0258569
0.0257919
0.0257135
0.0256597
0.0255909
0.0255479
0.0254876
0.025456
0.0254044
0.0253851
0.0253402
0.0253327
0.025296
0.0253003
0.0252775
0.0252938
0.0252884
0.025316
0.0253317
0.0253744
0.0254144
0.0254812
0.0255518
0.0256447
0.0257912
0.0258959
0.026008
0.026246
0.0263758
0.0266985
0.026871
0.0272991
0.0275336
0.0280975
0.0284159
0.0291524
0.029572
0.030534
0.031066
0.0323208
0.0329893
0.0345851
0.0354397
0.0374088
0.0384913
0.0408742
0.0422062
0.0450705
0.0466506
0.0500643
0.0518981
0.0559104
0.0580283
0.0626531
0.0650426
0.0701838
0.0727633
0.0784087
0.0809382
0.0901499
0.0318201
0.0314016
0.0309919
0.0305883
0.0301847
0.0297794
0.0293922
0.029017
0.0286663
0.0283337
0.0280259
0.0277353
0.0274669
0.0272131
0.0269778
0.0267541
0.0265457
0.0263466
0.0261578
0.0259756
0.0258031
0.0256375
0.0254812
0.0253317
0.0251904
0.0250554
0.0249271
0.0248046
0.024687
0.0245752
0.0244665
0.0243641
0.0242634
0.0241697
0.0240771
0.023992
0.0239076
0.0238311
0.023755
0.0236865
0.0236179
0.0235564
0.0234942
0.0234388
0.0233816
0.0233316
0.0232782
0.023233
0.0231827
0.0231419
0.0230942
0.0230576
0.0230121
0.02298
0.0229368
0.0229093
0.0228683
0.0228459
0.0228069
0.0227889
0.0227523
0.0227344
0.0226987
0.0226804
0.0226459
0.0226333
0.0226043
0.022596
0.0225747
0.0225692
0.0225566
0.0225547
0.0225533
0.0225572
0.0225691
0.0225818
0.0226077
0.0226333
0.0226759
0.0227181
0.0227851
0.0228436
0.0229441
0.0230339
0.0231123
0.0233014
0.0233765
0.0236473
0.0237459
0.0240903
0.0242263
0.0247046
0.0248168
0.0254857
0.0256252
0.0264998
0.0265179
0.0282122
0.0280235
0.0305605
0.0274708
0.0272308
0.0269855
0.0267273
0.0264684
0.0262051
0.0259493
0.0256938
0.0254501
0.0252088
0.0249815
0.0247574
0.0245481
0.0243424
0.0241516
0.0239643
0.0237918
0.0236223
0.0234669
0.0233141
0.0231745
0.0230369
0.0229117
0.0227878
0.0226753
0.0225639
0.0224629
0.0223627
0.0222722
0.0221821
0.0221009
0.0220199
0.0219469
0.0218741
0.0218083
0.0217427
0.0216831
0.0216239
0.0215697
0.0215163
0.0214668
0.0214187
0.0213735
0.0213302
0.0212888
0.0212501
0.0212121
0.0211776
0.0211426
0.021112
0.0210795
0.0210526
0.0210221
0.0209985
0.0209697
0.0209491
0.0209216
0.0209038
0.0208772
0.0208621
0.0208363
0.0208236
0.0207984
0.0207881
0.0207632
0.0207552
0.0207307
0.0207248
0.0207005
0.0206968
0.0206727
0.0206712
0.0206471
0.0206478
0.0206237
0.0206269
0.0206028
0.0206085
0.0205844
0.0205928
0.0205688
0.0205803
0.0205564
0.0205728
0.0205487
0.0205702
0.0205467
0.020574
0.0205515
0.0205854
0.0205645
0.0206062
0.0205894
0.0206382
0.0206285
0.0206857
0.0206908
0.0207499
0.0207733
0.0208917
0.0244785
0.0243342
0.0241816
0.0240142
0.0238434
0.0236654
0.0234915
0.0233154
0.0231476
0.0229799
0.0228229
0.022667
0.022523
0.02238
0.0222495
0.0221193
0.0220019
0.021884
0.0217788
0.0216722
0.0215781
0.0214815
0.0213973
0.0213095
0.0212339
0.0211538
0.0210858
0.0210125
0.0209512
0.0208841
0.0208288
0.0207672
0.0207174
0.0206606
0.0206156
0.0205631
0.0205223
0.0204736
0.0204365
0.020391
0.0203572
0.0203146
0.0202837
0.0202438
0.0202156
0.0201783
0.0201526
0.0201176
0.0200944
0.0200615
0.0200404
0.0200096
0.0199904
0.0199612
0.0199437
0.019916
0.0199
0.0198736
0.0198588
0.0198334
0.0198198
0.0197954
0.0197828
0.0197594
0.0197477
0.0197252
0.0197144
0.0196927
0.0196828
0.0196618
0.0196528
0.0196326
0.0196244
0.0196048
0.0195974
0.0195785
0.0195718
0.0195536
0.0195475
0.0195299
0.0195244
0.0195075
0.0195026
0.0194862
0.0194818
0.019466
0.0194621
0.0194468
0.0194433
0.0194284
0.0194253
0.0194105
0.0194077
0.0193932
0.0193892
0.0193725
0.0193635
0.0193386
0.0193881
0.0192758
0.0222977
0.022214
0.0221228
0.0220166
0.0219064
0.0217875
0.0216707
0.0215492
0.0214332
0.0213146
0.0212035
0.0210909
0.0209868
0.0208816
0.0207856
0.0206883
0.0206004
0.0205109
0.0204311
0.020349
0.0202766
0.0202014
0.020136
0.0200671
0.020008
0.0199449
0.0198916
0.0198336
0.0197854
0.019732
0.0196884
0.019639
0.0195997
0.0195539
0.0195183
0.0194758
0.0194436
0.019404
0.0193748
0.0193378
0.0193114
0.0192767
0.0192528
0.0192202
0.0191986
0.0191678
0.0191482
0.0191191
0.0191013
0.0190737
0.0190576
0.0190313
0.0190168
0.0189918
0.0189786
0.0189548
0.0189429
0.0189201
0.0189094
0.0188875
0.0188779
0.0188569
0.0188483
0.0188281
0.0188203
0.0188008
0.0187937
0.0187749
0.0187686
0.0187504
0.0187446
0.018727
0.0187217
0.0187047
0.0186999
0.0186834
0.0186789
0.018663
0.0186588
0.0186434
0.0186395
0.0186246
0.0186208
0.0186065
0.0186028
0.018589
0.0185854
0.0185722
0.0185685
0.0185558
0.0185521
0.01854
0.018536
0.0185246
0.0185202
0.0185094
0.0185047
0.0184945
0.0184887
0.018477
0.0207846
0.0207398
0.0206896
0.0206245
0.0205562
0.0204779
0.0204014
0.0203183
0.02024
0.0201568
0.0200802
0.0199997
0.019927
0.0198509
0.0197832
0.019712
0.0196496
0.0195836
0.0195265
0.0194654
0.0194134
0.0193569
0.0193096
0.0192574
0.0192143
0.019166
0.0191269
0.0190821
0.0190466
0.019005
0.0189727
0.018934
0.0189046
0.0188684
0.0188416
0.0188076
0.0187832
0.0187511
0.0187287
0.0186984
0.018678
0.0186491
0.0186304
0.018603
0.0185858
0.0185596
0.0185438
0.0185186
0.0185042
0.01848
0.0184667
0.0184434
0.0184312
0.0184088
0.0183976
0.0183759
0.0183656
0.0183448
0.0183353
0.0183151
0.0183065
0.0182869
0.018279
0.01826
0.0182527
0.0182342
0.0182275
0.0182095
0.0182033
0.0181858
0.01818
0.0181629
0.0181575
0.0181409
0.0181358
0.0181196
0.0181148
0.018099
0.0180944
0.0180791
0.0180746
0.0180597
0.0180553
0.018041
0.0180366
0.0180227
0.0180184
0.018005
0.0180005
0.0179877
0.0179831
0.0179709
0.0179661
0.0179544
0.0179494
0.0179384
0.017933
0.0179225
0.0179186
0.0179038
0.0197419
0.0197189
0.0196925
0.0196518
0.0196086
0.019555
0.0195033
0.019444
0.0193889
0.0193276
0.0192724
0.0192118
0.0191584
0.0191
0.0190494
0.0189939
0.0189467
0.0188944
0.0188506
0.0188016
0.0187613
0.0187154
0.0186784
0.0186354
0.0186015
0.0185612
0.0185301
0.0184924
0.0184639
0.0184284
0.0184023
0.0183689
0.0183449
0.0183133
0.0182914
0.0182614
0.0182413
0.0182128
0.0181943
0.0181672
0.0181502
0.0181243
0.0181086
0.0180839
0.0180695
0.0180457
0.0180325
0.0180097
0.0179975
0.0179755
0.0179644
0.0179432
0.0179329
0.0179124
0.017903
0.0178832
0.0178745
0.0178552
0.0178472
0.0178285
0.0178211
0.017803
0.0177961
0.0177784
0.0177721
0.0177549
0.017749
0.0177322
0.0177267
0.0177103
0.0177051
0.0176892
0.0176843
0.0176688
0.0176642
0.017649
0.0176446
0.0176299
0.0176256
0.0176113
0.0176071
0.0175932
0.0175891
0.0175756
0.0175715
0.0175585
0.0175543
0.0175417
0.0175374
0.0175253
0.0175208
0.0175093
0.0175045
0.0174933
0.0174877
0.0174783
0.0174786
0.0174689
0.0174102
0.0174887
0.0189941
0.0189842
0.0189716
0.0189456
0.0189178
0.0188797
0.0188437
0.0187995
0.0187596
0.0187127
0.0186715
0.0186242
0.0185837
0.0185372
0.0184984
0.0184536
0.018417
0.0183743
0.0183402
0.0182996
0.0182681
0.0182297
0.0182006
0.0181644
0.0181377
0.0181035
0.0180789
0.0180466
0.0180241
0.0179934
0.0179727
0.0179436
0.0179247
0.0178968
0.0178795
0.0178529
0.0178369
0.0178114
0.0177967
0.0177721
0.0177586
0.0177349
0.0177225
0.0176996
0.0176882
0.0176661
0.0176556
0.0176342
0.0176245
0.0176038
0.0175949
0.0175747
0.0175666
0.017547
0.0175395
0.0175204
0.0175136
0.0174949
0.0174886
0.0174704
0.0174646
0.0174468
0.0174414
0.0174239
0.017419
0.0174019
0.0173972
0.0173805
0.0173762
0.0173598
0.0173557
0.0173397
0.0173359
0.0173202
0.0173165
0.0173012
0.0172976
0.0172827
0.0172792
0.0172647
0.0172612
0.0172472
0.0172436
0.01723
0.0172264
0.0172132
0.0172095
0.0171968
0.0171928
0.0171807
0.0171764
0.0171648
0.0171601
0.0171493
0.0171447
0.0171336
0.0171221
0.0171131
0.0171598
0.0170562
0.018451
0.0184496
0.0184451
0.0184282
0.0184096
0.0183817
0.0183554
0.0183215
0.0182912
0.0182542
0.0182223
0.0181842
0.0181524
0.0181145
0.0180836
0.0180466
0.0180172
0.0179815
0.017954
0.0179197
0.0178941
0.0178614
0.0178376
0.0178064
0.0177845
0.0177546
0.0177344
0.0177058
0.0176873
0.0176599
0.0176429
0.0176166
0.017601
0.0175757
0.0175614
0.0175369
0.0175239
0.0175001
0.0174883
0.0174652
0.0174544
0.0174319
0.0174221
0.0174002
0.0173913
0.0173699
0.0173618
0.0173409
0.0173336
0.017313
0.0173065
0.0172863
0.0172805
0.0172606
0.0172555
0.0172359
0.0172314
0.017212
0.0172081
0.0171889
0.0171855
0.0171666
0.0171637
0.0171449
0.0171426
0.0171239
0.017122
0.0171035
0.017102
0.0170836
0.0170825
0.0170643
0.0170636
0.0170455
0.0170451
0.0170271
0.017027
0.0170091
0.0170093
0.0169915
0.016992
0.0169744
0.016975
0.0169575
0.0169583
0.016941
0.016942
0.0169248
0.0169258
0.0169089
0.0169099
0.0168931
0.0168944
0.016878
0.0168779
0.016862
0.016869
0.0168485
0.016842
0.0168266
0.0180418
0.0180466
0.0180466
0.0180354
0.0180226
0.0180014
0.0179815
0.0179547
0.0179307
0.0179008
0.017875
0.0178437
0.0178175
0.0177859
0.0177602
0.0177292
0.0177045
0.0176743
0.017651
0.0176218
0.0176
0.0175719
0.0175516
0.0175246
0.0175057
0.0174799
0.0174624
0.0174375
0.0174213
0.0173973
0.0173824
0.0173592
0.0173455
0.0173231
0.0173104
0.0172886
0.017277
0.0172558
0.0172451
0.0172244
0.0172146
0.0171944
0.0171854
0.0171656
0.0171575
0.0171379
0.0171306
0.0171114
0.0171047
0.0170858
0.0170798
0.0170611
0.0170557
0.0170372
0.0170325
0.0170142
0.01701
0.0169919
0.0169882
0.0169702
0.016967
0.0169491
0.0169464
0.0169286
0.0169264
0.0169087
0.0169068
0.0168892
0.0168878
0.0168703
0.0168692
0.0168517
0.016851
0.0168336
0.0168332
0.0168159
0.0168158
0.0167985
0.0167987
0.0167815
0.0167819
0.0167649
0.0167655
0.0167485
0.0167493
0.0167324
0.0167333
0.0167166
0.0167176
0.016701
0.0167022
0.0166855
0.0166869
0.016671
0.0166715
0.0166548
0.0166567
0.0166365
0.0166784
0.0165798
0.0177363
0.0177419
0.0177443
0.0177367
0.0177278
0.0177113
0.0176957
0.0176739
0.0176545
0.0176296
0.0176082
0.0175818
0.0175597
0.0175329
0.017511
0.0174844
0.0174633
0.0174372
0.0174171
0.0173918
0.0173728
0.0173484
0.0173306
0.0173071
0.0172904
0.0172677
0.0172522
0.0172303
0.0172158
0.0171946
0.0171812
0.0171607
0.0171482
0.0171282
0.0171166
0.0170972
0.0170864
0.0170675
0.0170574
0.0170389
0.0170296
0.0170115
0.0170028
0.016985
0.016977
0.0169595
0.0169521
0.0169349
0.016928
0.016911
0.0169046
0.0168879
0.016882
0.0168656
0.0168601
0.0168438
0.0168388
0.0168227
0.0168181
0.0168022
0.0167979
0.0167822
0.0167781
0.0167626
0.0167589
0.0167436
0.0167401
0.016725
0.0167217
0.0167068
0.0167037
0.0166889
0.016686
0.0166715
0.0166687
0.0166544
0.0166517
0.0166377
0.0166349
0.0166212
0.0166185
0.0166051
0.0166023
0.0165893
0.0165864
0.0165737
0.0165706
0.0165584
0.0165551
0.0165433
0.0165398
0.0165286
0.0165243
0.0165131
0.0165107
0.0165016
0.0164947
0.0164949
0.0164439
0.0165141
0.0174995
0.0175052
0.0175092
0.0175041
0.017498
0.0174847
0.0174724
0.0174541
0.017438
0.0174167
0.0173987
0.0173759
0.0173571
0.0173338
0.0173149
0.0172917
0.0172734
0.0172506
0.017233
0.0172108
0.017194
0.0171725
0.0171567
0.0171359
0.017121
0.0171009
0.0170869
0.0170674
0.0170543
0.0170354
0.0170231
0.0170047
0.0169932
0.0169753
0.0169645
0.016947
0.0169369
0.0169198
0.0169103
0.0168935
0.0168846
0.0168681
0.0168597
0.0168435
0.0168357
0.0168198
0.0168124
0.0167967
0.0167898
0.0167743
0.0167678
0.0167525
0.0167465
0.0167314
0.0167257
0.0167107
0.0167054
0.0166906
0.0166856
0.016671
0.0166663
0.0166518
0.0166474
0.0166331
0.0166289
0.0166147
0.0166107
0.0165968
0.0165929
0.0165792
0.0165755
0.0165619
0.0165584
0.0165449
0.0165415
0.0165283
0.016525
0.016512
0.0165087
0.0164959
0.0164927
0.0164802
0.0164769
0.0164647
0.0164613
0.0164494
0.0164459
0.0164343
0.0164307
0.0164195
0.0164157
0.016405
0.0164006
0.0163898
0.0163874
0.0163786
0.0163718
0.0163723
0.0163221
0.0163913
0.0173198
0.0173255
0.0173304
0.0173266
0.0173225
0.0173113
0.0173015
0.0172856
0.0172723
0.0172536
0.0172383
0.0172181
0.0172019
0.0171812
0.0171648
0.017144
0.0171279
0.0171075
0.0170919
0.0170719
0.017057
0.0170376
0.0170233
0.0170045
0.016991
0.0169727
0.0169599
0.0169422
0.0169301
0.0169129
0.0169013
0.0168846
0.0168737
0.0168574
0.016847
0.0168311
0.0168211
0.0168057
0.0167962
0.016781
0.016772
0.0167571
0.0167485
0.0167339
0.0167256
0.0167114
0.0167034
0.0166894
0.0166818
0.0166681
0.0166607
0.0166473
0.0166402
0.016627
0.0166201
0.0166072
0.0166005
0.0165878
0.0165813
0.0165689
0.0165625
0.0165503
0.0165441
0.0165322
0.0165261
0.0165144
0.0165083
0.016497
0.0164909
0.0164799
0.0164738
0.0164631
0.0164569
0.0164466
0.0164404
0.0164304
0.016424
0.0164145
0.016408
0.0163989
0.0163921
0.0163835
0.0163764
0.0163684
0.016361
0.0163535
0.0163457
0.0163388
0.0163306
0.0163243
0.0163156
0.0163102
0.0163007
0.0162957
0.0162869
0.0162827
0.0162663
0.016268
0.0162669
0.0162534
0.0171846
0.01719
0.0171955
0.0171921
0.0171894
0.0171791
0.0171711
0.0171565
0.0171451
0.0171277
0.0171145
0.0170956
0.0170814
0.0170619
0.0170475
0.0170279
0.0170136
0.0169942
0.0169804
0.0169614
0.0169481
0.0169296
0.0169169
0.0168989
0.0168868
0.0168693
0.0168578
0.0168408
0.0168298
0.0168133
0.0168028
0.0167867
0.0167768
0.0167611
0.0167515
0.0167362
0.0167271
0.0167121
0.0167034
0.0166887
0.0166803
0.0166659
0.0166579
0.0166438
0.016636
0.0166222
0.0166147
0.0166011
0.0165939
0.0165806
0.0165736
0.0165605
0.0165537
0.0165409
0.0165343
0.0165218
0.0165153
0.016503
0.0164966
0.0164846
0.0164784
0.0164666
0.0164604
0.0164489
0.0164428
0.0164316
0.0164254
0.0164146
0.0164084
0.0163978
0.0163916
0.0163814
0.0163751
0.0163652
0.0163588
0.0163494
0.0163427
0.0163337
0.0163269
0.0163184
0.0163113
0.0163032
0.0162958
0.0162883
0.0162806
0.0162737
0.0162655
0.0162592
0.0162505
0.0162449
0.0162357
0.016231
0.016221
0.0162165
0.0162067
0.0162041
0.0161925
0.0161942
0.0161437
0.0162149
0.0170742
0.0170792
0.0170851
0.0170817
0.01708
0.0170703
0.0170636
0.0170496
0.0170398
0.0170232
0.0170116
0.0169936
0.0169811
0.0169624
0.0169497
0.0169309
0.0169183
0.0168997
0.0168875
0.0168692
0.0168575
0.0168396
0.0168284
0.016811
0.0168003
0.0167833
0.0167732
0.0167566
0.016747
0.0167308
0.0167216
0.0167058
0.016697
0.0166815
0.0166731
0.0166579
0.0166499
0.016635
0.0166273
0.0166126
0.0166052
0.0165908
0.0165836
0.0165695
0.0165626
0.0165487
0.016542
0.0165283
0.0165218
0.0165084
0.0165021
0.016489
0.0164828
0.0164699
0.0164638
0.0164511
0.0164452
0.0164328
0.016427
0.0164148
0.016409
0.0163971
0.0163913
0.0163797
0.016374
0.0163626
0.0163569
0.0163458
0.01634
0.0163293
0.0163235
0.0163131
0.0163071
0.0162971
0.016291
0.0162814
0.0162751
0.0162659
0.0162594
0.0162506
0.0162438
0.0162356
0.0162285
0.0162208
0.0162134
0.0162062
0.0161984
0.0161919
0.0161835
0.0161777
0.0161688
0.0161637
0.0161544
0.0161501
0.0161388
0.016135
0.0161261
0.0161189
0.0161119
0.0161044
0.0169866
0.0169911
0.016997
0.0169937
0.0169927
0.0169835
0.0169778
0.0169646
0.0169561
0.0169404
0.0169301
0.016913
0.016902
0.0168841
0.0168729
0.0168547
0.0168437
0.0168256
0.0168149
0.016797
0.0167868
0.0167692
0.0167594
0.0167421
0.0167329
0.0167158
0.016707
0.0166902
0.0166819
0.0166654
0.0166575
0.0166411
0.0166336
0.0166175
0.0166104
0.0165945
0.0165877
0.016572
0.0165654
0.0165499
0.0165437
0.0165284
0.0165224
0.0165073
0.0165015
0.0164866
0.0164811
0.0164664
0.0164611
0.0164465
0.0164414
0.016427
0.0164221
0.016408
0.0164032
0.0163892
0.0163846
0.0163708
0.0163663
0.0163528
0.0163483
0.0163351
0.0163306
0.0163177
0.0163132
0.0163005
0.0162961
0.0162837
0.0162792
0.0162672
0.0162626
0.0162509
0.0162462
0.0162349
0.01623
0.0162192
0.016214
0.0162037
0.0161983
0.0161884
0.0161827
0.0161735
0.0161674
0.0161587
0.0161522
0.0161442
0.0161371
0.0161298
0.0161223
0.0161157
0.0161074
0.0161018
0.0160929
0.0160883
0.0160778
0.0160727
0.0160584
0.0160511
0.0160929
0.0160013
0.0169223
0.0169265
0.016932
0.0169289
0.0169279
0.0169192
0.0169139
0.0169014
0.0168933
0.0168783
0.0168686
0.0168521
0.0168415
0.0168241
0.0168133
0.0167955
0.0167848
0.0167669
0.0167564
0.0167385
0.0167284
0.0167106
0.0167009
0.0166832
0.016674
0.0166564
0.0166477
0.0166302
0.016622
0.0166047
0.016597
0.0165798
0.0165725
0.0165554
0.0165487
0.0165317
0.0165255
0.0165086
0.0165028
0.016486
0.0164807
0.016464
0.0164591
0.0164425
0.016438
0.0164213
0.0164173
0.0164007
0.016397
0.0163804
0.0163772
0.0163607
0.0163579
0.0163413
0.0163389
0.0163224
0.0163204
0.0163039
0.0163022
0.0162857
0.0162844
0.0162679
0.0162669
0.0162505
0.0162498
0.0162334
0.016233
0.0162166
0.0162165
0.0162001
0.0162003
0.0161838
0.0161843
0.0161679
0.0161686
0.0161522
0.0161531
0.0161368
0.0161379
0.0161216
0.0161229
0.0161067
0.0161081
0.0160919
0.0160935
0.0160774
0.0160791
0.0160631
0.0160648
0.016049
0.0160507
0.0160349
0.0160369
0.0160216
0.0160221
0.0160071
0.0160143
0.015995
0.0159888
0.0159755
0.0168723
0.0168761
0.0168811
0.0168779
0.0168765
0.0168678
0.016862
0.0168494
0.0168404
0.016825
0.0168141
0.016797
0.0167849
0.0167668
0.0167544
0.0167358
0.0167234
0.0167048
0.0166925
0.0166735
0.0166614
0.0166425
0.0166309
0.0166123
0.0166013
0.0165832
0.016573
0.0165553
0.0165459
0.0165287
0.01652
0.0165033
0.0164953
0.0164789
0.0164716
0.0164555
0.0164488
0.016433
0.0164269
0.0164113
0.0164057
0.0163902
0.0163851
0.0163699
0.0163652
0.0163502
0.016346
0.0163311
0.0163273
0.0163125
0.0163091
0.0162943
0.0162913
0.0162765
0.0162738
0.0162591
0.0162568
0.0162421
0.01624
0.0162253
0.0162235
0.0162089
0.0162073
0.0161927
0.0161914
0.0161767
0.0161757
0.016161
0.0161603
0.0161456
0.016145
0.0161303
0.01613
0.0161153
0.0161152
0.0161005
0.0161005
0.0160859
0.0160861
0.0160715
0.0160719
0.0160573
0.0160578
0.0160432
0.0160439
0.0160294
0.0160301
0.0160157
0.0160165
0.0160022
0.0160031
0.0159886
0.0159898
0.015976
0.0159764
0.0159618
0.0159636
0.0159458
0.0159853
0.0158941
0.0168359
0.0168376
0.0168396
0.0168324
0.0168268
0.016813
0.0168022
0.0167842
0.0167706
0.0167504
0.0167355
0.0167146
0.0166998
0.016679
0.016665
0.0166449
0.0166319
0.0166128
0.0166012
0.0165836
0.0165735
0.016557
0.0165482
0.0165325
0.0165246
0.0165096
0.0165025
0.0164879
0.0164813
0.016467
0.016461
0.0164469
0.0164413
0.0164273
0.0164221
0.0164082
0.0164033
0.0163894
0.0163848
0.016371
0.0163666
0.0163528
0.0163487
0.016335
0.0163311
0.0163174
0.0163138
0.0163
0.0162966
0.0162829
0.0162798
0.0162661
0.0162631
0.0162495
0.0162467
0.016233
0.0162305
0.0162169
0.0162144
0.0162009
0.0161986
0.0161851