/*--------------------------------*- C++ -*----------------------------------*\
  =========                 |
  \\      /  F ield         | OpenFOAM: The Open Source CFD Toolbox
   \\    /   O peration     | Website:  https://openfoam.org
    \\  /    A nd           | Version:  8
     \\/     M anipulation  |
\*---------------------------------------------------------------------------*/
FoamFile
{
    version     2.0;
    format      ascii;
    class       volScalarField;
    location    "2.0000073";
    object      p;
}
// * * * * * * * * * * * * * * * * * * * * * * * * * * * * * * * * * * * * * //

dimensions      [1 -1 -2 0 0 0 0];

internalField   nonuniform List<scalar> 
6800
(
99487.3
99819.2
99852.3
99874.6
99919.8
99970.6
100026
100086
100144
100192
99045.1
99614.8
99609.4
99657.2
99733.4
99806.5
99880.9
99957.3
100033
100103
98344.2
99244.8
99239.8
99359.2
99486.7
99597.9
99704.2
99807.7
99907
100001
97459.7
98733.4
98761.8
98994.1
99189.2
99352.8
99501.4
99639.2
99767.2
99885.4
96469.1
98121.2
98212
98586.2
98858.5
99085.5
99283.6
99460.4
99619.7
99763.4
95452.4
97460.4
97636.1
98165.7
98517.7
98814.3
99064.7
99282.6
99474.2
99643.8
94485.7
96804.6
97082
97764.4
98192.5
98559.5
98860.9
99119.1
99342
99536.5
93635.2
96204.7
96591.6
97412
97908.2
98341
98688.4
98983.3
99233.8
99451
92953.2
95703.9
96200.6
97134.7
97687.5
98176.5
98562.3
98888
99160.8
99397.2
92476.6
95337.2
95935.3
96951.6
97548.8
98081
98495.4
98843.8
99132.1
99383.2
100335
100207
100160
100167
100208
100274
100362
100468
100584
100701
100284
100176
100132
100136
100173
100236
100325
100437
100562
100689
100193
100114
100082
100084
100120
100186
100280
100399
100538
100684
100088
100046
100032
100040
100077
100151
100257
100382
100523
100679
99995.2
99994
100001
100023
100069
100151
100258
100378
100509
100657
99925.5
99969.2
100006
100041
100097
100176
100270
100374
100485
100612
99872.6
99973.4
100032
100078
100132
100197
100274
100360
100452
100553
99807.1
99966.7
100047
100096
100142
100196
100260
100332
100406
100486
99735.7
99923.5
100030
100076
100115
100162
100217
100278
100344
100415
99676.4
99879.3
99974.2
100009
100045
100088
100139
100197
100259
100330
100835
100968
101074
101161
101232
101288
101335
101373
101405
101432
101454
101472
101487
101499
101509
101517
101523
101527
101530
101531
101532
101531
101530
101528
101526
101523
101519
101516
101512
101507
101503
101499
101494
101489
101484
101480
101475
101470
101465
101460
101456
101451
101447
101442
101438
101434
101430
101426
101422
101418
101414
101411
101407
101404
101401
101398
101395
101392
101389
101386
101384
101381
101379
101376
101374
101372
101370
101368
101366
101364
101362
101361
101359
101357
101356
101354
101353
101351
101350
101349
101347
101346
101345
101344
101343
101341
101340
101339
101338
101337
101336
101335
101334
101333
101333
101332
101331
101330
101330
101330
100819
100958
101066
101153
101223
101281
101328
101368
101400
101427
101450
101469
101484
101497
101507
101515
101521
101525
101528
101530
101531
101530
101529
101527
101525
101522
101519
101515
101511
101507
101503
101498
101493
101489
101484
101479
101474
101470
101465
101460
101456
101451
101446
101442
101438
101434
101429
101425
101422
101418
101414
101411
101407
101404
101401
101397
101394
101392
101389
101386
101384
101381
101379
101376
101374
101372
101370
101368
101366
101364
101362
101360
101359
101357
101356
101354
101353
101351
101350
101349
101347
101346
101345
101344
101343
101341
101340
101339
101338
101337
101336
101335
101334
101333
101332
101332
101331
101330
101329
101329
100801
100938
101047
101135
101208
101267
101316
101357
101391
101420
101443
101463
101479
101492
101503
101511
101518
101522
101526
101528
101529
101528
101528
101526
101524
101521
101518
101514
101510
101506
101502
101497
101493
101488
101483
101479
101474
101469
101464
101460
101455
101451
101446
101442
101437
101433
101429
101425
101421
101417
101414
101410
101407
101404
101400
101397
101394
101391
101389
101386
101383
101381
101378
101376
101374
101372
101370
101368
101366
101364
101362
101360
101359
101357
101356
101354
101353
101351
101350
101349
101347
101346
101345
101344
101343
101341
101340
101339
101338
101337
101336
101335
101334
101333
101332
101332
101331
101330
101329
101329
100765
100899
101016
101109
101184
101246
101299
101342
101378
101408
101433
101454
101471
101485
101497
101506
101513
101518
101522
101524
101525
101525
101525
101523
101521
101519
101516
101512
101509
101505
101500
101496
101492
101487
101482
101478
101473
101468
101464
101459
101454
101450
101445
101441
101437
101433
101429
101425
101421
101417
101413
101410
101406
101403
101400
101397
101394
101391
101388
101386
101383
101381
101378
101376
101374
101372
101369
101367
101366
101364
101362
101360
101359
101357
101355
101354
101352
101351
101350
101348
101347
101346
101345
101344
101342
101341
101340
101339
101338
101337
101336
101335
101334
101333
101332
101331
101330
101330
101329
101328
100703
100837
100969
101071
101151
101218
101274
101322
101361
101393
101421
101443
101462
101477
101489
101499
101507
101512
101517
101519
101521
101522
101521
101520
101518
101516
101513
101510
101507
101503
101499
101494
101490
101486
101481
101476
101472
101467
101463
101458
101453
101449
101445
101440
101436
101432
101428
101424
101420
101416
101413
101409
101406
101403
101400
101396
101394
101391
101388
101385
101383
101380
101378
101376
101373
101371
101369
101367
101365
101363
101362
101360
101358
101357
101355
101354
101352
101351
101350
101348
101347
101346
101345
101343
101342
101341
101340
101339
101338
101337
101336
101335
101334
101333
101332
101331
101330
101329
101328
101328
100623
100756
100904
101018
101105
101177
101239
101291
101335
101371
101401
101426
101447
101464
101478
101489
101498
101505
101510
101513
101516
101517
101517
101516
101515
101513
101510
101507
101504
101500
101497
101492
101488
101484
101479
101475
101470
101466
101461
101457
101452
101448
101443
101439
101435
101431
101427
101423
101419
101416
101412
101409
101405
101402
101399
101396
101393
101390
101387
101385
101382
101380
101377
101375
101373
101371
101369
101367
101365
101363
101361
101360
101358
101356
101355
101353
101352
101351
101349
101348
101347
101346
101344
101343
101342
101341
101340
101339
101338
101337
101336
101335
101334
101333
101332
101331
101330
101329
101328
101327
100545
100674
100831
100955
101049
101127
101194
101251
101299
101339
101373
101401
101425
101444
101460
101473
101484
101492
101499
101503
101507
101509
101510
101510
101509
101508
101506
101503
101501
101497
101494
101490
101486
101482
101477
101473
101469
101464
101460
101455
101451
101447
101442
101438
101434
101430
101426
101422
101418
101415
101411
101408
101404
101401
101398
101395
101392
101389
101387
101384
101382
101379
101377
101375
101372
101370
101368
101366
101365
101363
101361
101359
101358
101356
101355
101353
101352
101350
101349
101348
101347
101345
101344
101343
101342
101341
101340
101339
101338
101337
101336
101335
101334
101333
101332
101331
101330
101329
101327
101326
100477
100599
100756
100887
100990
101074
101146
101207
101259
101303
101341
101372
101398
101420
101438
101453
101465
101475
101483
101489
101494
101497
101499
101500
101500
101499
101498
101496
101494
101491
101488
101484
101481
101477
101473
101469
101465
101461
101457
101453
101449
101445
101441
101437
101433
101429
101425
101421
101418
101414
101410
101407
101404
101401
101398
101395
101392
101389
101386
101384
101381
101379
101376
101374
101372
101370
101368
101366
101364
101362
101361
101359
101357
101356
101354
101353
101351
101350
101349
101348
101346
101345
101344
101343
101342
101341
101340
101339
101338
101337
101336
101335
101334
101333
101332
101331
101330
101328
101327
101325
100418
100531
100680
100815
100926
101018
101096
101163
101220
101269
101309
101344
101373
101397
101418
101435
101448
101460
101469
101476
101481
101486
101488
101490
101491
101491
101490
101488
101486
101484
101481
101478
101475
101472
101468
101464
101460
101457
101453
101449
101445
101441
101437
101433
101429
101426
101422
101418
101415
101412
101408
101405
101402
101399
101396
101393
101390
101388
101385
101383
101380
101378
101376
101373
101371
101369
101367
101366
101364
101362
101360
101359
101357
101355
101354
101353
101351
101350
101349
101347
101346
101345
101344
101343
101342
101341
101340
101338
101337
101337
101336
101335
101334
101333
101332
101330
101329
101328
101327
101325
100366
100470
100602
100732
100846
100944
101029
101102
101165
101219
101265
101304
101337
101365
101388
101408
101425
101438
101449
101458
101465
101471
101475
101478
101479
101480
101480
101480
101478
101477
101474
101472
101469
101466
101463
101459
101456
101452
101449
101445
101441
101437
101434
101430
101426
101423
101419
101416
101413
101409
101406
101403
101400
101397
101394
101391
101389
101386
101383
101381
101379
101376
101374
101372
101370
101368
101366
101364
101363
101361
101359
101358
101356
101355
101353
101352
101351
101350
101348
101347
101346
101345
101344
101343
101342
101341
101340
101339
101338
101337
101336
101335
101334
101333
101332
101331
101329
101328
101327
101325
100340
100459
100583
100706
100818
100916
101001
101075
101139
101194
101242
101282
101317
101346
101371
101392
101409
101424
101436
101446
101453
101459
101464
101467
101470
101471
101472
101471
101470
101469
101467
101465
101463
101460
101457
101454
101450
101447
101444
101440
101437
101433
101430
101426
101423
101419
101416
101412
101409
101406
101403
101400
101397
101394
101391
101389
101386
101384
101381
101379
101377
101375
101372
101370
101368
101367
101365
101363
101361
101360
101358
101356
101355
101354
101352
101351
101350
101348
101347
101346
101345
101344
101343
101342
101341
101340
101339
101338
101337
101336
101335
101334
101333
101332
101331
101330
101329
101328
101327
101325
100369
100492
100614
100729
100834
100926
101006
101076
101137
101190
101236
101275
101308
101337
101361
101381
101399
101413
101425
101435
101443
101449
101454
101457
101460
101461
101462
101462
101461
101460
101459
101457
101455
101452
101449
101447
101443
101440
101437
101434
101431
101427
101424
101421
101417
101414
101411
101408
101405
101402
101399
101396
101393
101391
101388
101386
101383
101381
101379
101376
101374
101372
101370
101368
101366
101364
101363
101361
101359
101358
101356
101355
101354
101352
101351
101350
101349
101347
101346
101345
101344
101343
101342
101341
101340
101339
101338
101337
101336
101336
101335
101334
101333
101332
101331
101330
101329
101328
101327
101325
100400
100516
100632
100740
100837
100923
101000
101067
101126
101178
101222
101261
101294
101323
101347
101368
101386
101400
101413
101423
101431
101438
101443
101447
101450
101452
101453
101453
101453
101452
101451
101449
101447
101445
101443
101440
101437
101434
101431
101428
101425
101422
101419
101416
101413
101410
101407
101404
101401
101398
101396
101393
101390
101388
101385
101383
101381
101378
101376
101374
101372
101370
101368
101366
101364
101363
101361
101359
101358
101356
101355
101354
101352
101351
101350
101349
101347
101346
101345
101344
101343
101342
101341
101340
101339
101338
101338
101337
101336
101335
101334
101333
101332
101331
101331
101330
101329
101328
101327
101326
100438
100546
100657
100759
100850
100931
101004
101068
101124
101174
101217
101254
101287
101315
101339
101359
101376
101391
101403
101413
101422
101428
101434
101438
101441
101443
101444
101444
101444
101444
101443
101441
101440
101438
101436
101433
101431
101428
101425
101422
101420
101417
101414
101411
101408
101405
101402
101400
101397
101394
101392
101389
101387
101384
101382
101380
101377
101375
101373
101371
101369
101368
101366
101364
101362
101361
101359
101358
101356
101355
101353
101352
101351
101350
101348
101347
101346
101345
101344
101343
101342
101341
101340
101339
101339
101338
101337
101336
101335
101334
101334
101333
101332
101331
101330
101329
101328
101327
101327
101326
100482
100581
100685
100780
100865
100941
101008
101069
101123
101170
101211
101247
101279
101306
101329
101349
101366
101381
101393
101403
101412
101418
101424
101428
101431
101433
101435
101436
101436
101436
101435
101434
101432
101430
101428
101426
101424
101422
101419
101417
101414
101411
101409
101406
101403
101401
101398
101395
101393
101390
101388
101386
101383
101381
101379
101377
101375
101373
101371
101369
101367
101365
101364
101362
101360
101359
101357
101356
101354
101353
101352
101351
101349
101348
101347
101346
101345
101344
101343
101342
101341
101340
101340
101339
101338
101337
101336
101335
101335
101334
101333
101332
101332
101331
101330
101329
101328
101327
101326
101326
100530
100620
100716
100805
100883
100954
101017
101074
101125
101170
101209
101244
101274
101300
101322
101342
101358
101373
101385
101395
101403
101410
101415
101419
101423
101425
101427
101428
101428
101428
101427
101426
101425
101423
101422
101420
101418
101415
101413
101411
101408
101406
101403
101401
101398
101396
101393
101391
101389
101386
101384
101382
101380
101378
101375
101373
101372
101370
101368
101366
101364
101363
101361
101360
101358
101357
101355
101354
101353
101351
101350
101349
101348
101347
101346
101345
101344
101343
101342
101341
101340
101339
101339
101338
101337
101336
101335
101335
101334
101333
101333
101332
101331
101330
101330
101329
101328
101327
101326
101326
100582
100662
100751
100832
100905
100970
101028
101082
101129
101171
101208
101241
101270
101295
101316
101335
101351
101365
101376
101386
101394
101401
101406
101411
101414
101416
101418
101419
101420
101420
101419
101419
101417
101416
101415
101413
101411
101409
101407
101405
101402
101400
101398
101396
101393
101391
101389
101387
101384
101382
101380
101378
101376
101374
101372
101370
101369
101367
101365
101363
101362
101360
101359
101357
101356
101355
101353
101352
101351
101350
101349
101348
101347
101345
101345
101344
101343
101342
101341
101340
101339
101338
101338
101337
101336
101336
101335
101334
101333
101333
101332
101331
101331
101330
101329
101329
101328
101327
101326
101326
100636
100707
100788
100862
100928
100988
101042
101091
101135
101175
101210
101241
101268
101291
101312
101330
101345
101358
101369
101379
101387
101393
101398
101403
101406
101408
101410
101411
101412
101412
101412
101411
101410
101409
101408
101406
101405
101403
101401
101399
101397
101395
101393
101390
101388
101386
101384
101382
101380
101378
101376
101374
101372
101371
101369
101367
101365
101364
101362
101361
101359
101358
101356
101355
101354
101353
101351
101350
101349
101348
101347
101346
101345
101344
101343
101342
101341
101341
101340
101339
101338
101338
101337
101336
101335
101335
101334
101333
101333
101332
101332
101331
101330
101330
101329
101328
101328
101327
101326
101326
100692
100755
100827
100894
100954
101009
101058
101103
101144
101180
101213
101242
101267
101289
101308
101325
101340
101352
101363
101372
101379
101386
101391
101395
101398
101401
101402
101404
101404
101404
101404
101404
101403
101402
101401
101400
101398
101396
101395
101393
101391
101389
101387
101385
101383
101381
101380
101378
101376
101374
101372
101370
101369
101367
101365
101364
101362
101361
101359
101358
101357
101355
101354
101353
101352
101350
101349
101348
101347
101346
101345
101344
101343
101343
101342
101341
101340
101339
101339
101338
101337
101337
101336
101335
101335
101334
101333
101333
101332
101332
101331
101330
101330
101329
101329
101328
101327
101327
101326
101326
100749
100803
100868
100928
100982
101031
101076
101117
101154
101188
101218
101244
101267
101288
101306
101322
101335
101347
101357
101366
101373
101379
101384
101387
101391
101393
101395
101396
101397
101397
101397
101397
101396
101395
101394
101393
101392
101390
101389
101387
101385
101384
101382
101380
101378
101377
101375
101373
101371
101370
101368
101367
101365
101364
101362
101361
101359
101358
101356
101355
101354
101353
101352
101350
101349
101348
101347
101346
101345
101344
101344
101343
101342
101341
101340
101340
101339
101338
101338
101337
101336
101336
101335
101334
101334
101333
101333
101332
101332
101331
101330
101330
101329
101329
101328
101328
101327
101327
101326
101325
100806
100853
100910
100964
101012
101055
101096
101133
101166
101197
101224
101248
101269
101288
101305
101319
101332
101343
101352
101360
101367
101372
101377
101380
101383
101386
101387
101389
101389
101390
101390
101390
101389
101388
101387
101386
101385
101384
101382
101381
101380
101378
101376
101375
101373
101372
101370
101369
101367
101366
101364
101363
101361
101360
101359
101357
101356
101355
101354
101352
101351
101350
101349
101348
101347
101346
101345
101344
101343
101343
101342
101341
101340
101340
101339
101338
101338
101337
101336
101336
101335
101335
101334
101334
101333
101332
101332
101331
101331
101330
101330
101329
101329
101328
101328
101327
101327
101326
101326
101325
100863
100904
100953
101000
101042
101081
101117
101150
101180
101207
101231
101253
101272
101289
101304
101318
101329
101339
101347
101355
101361
101366
101370
101374
101376
101379
101380
101381
101382
101383
101383
101382
101382
101381
101381
101380
101379
101378
101376
101375
101374
101372
101371
101370
101368
101367
101365
101364
101363
101361
101360
101359
101358
101356
101355
101354
101353
101352
101351
101350
101349
101348
101347
101346
101345
101344
101343
101342
101342
101341
101340
101339
101339
101338
101337
101337
101336
101336
101335
101335
101334
101334
101333
101333
101332
101332
101331
101331
101330
101330
101329
101329
101329
101328
101328
101327
101327
101326
101326
101325
100921
100955
100997
101037
101074
101108
101139
101168
101194
101218
101240
101259
101276
101291
101305
101317
101327
101336
101343
101350
101356
101360
101364
101367
101370
101372
101373
101374
101375
101376
101376
101376
101375
101375
101374
101373
101372
101371
101370
101369
101368
101367
101366
101364
101363
101362
101361
101360
101358
101357
101356
101355
101354
101353
101352
101351
101350
101349
101348
101347
101346
101345
101344
101343
101343
101342
101341
101340
101340
101339
101338
101338
101337
101337
101336
101336
101335
101334
101334
101334
101333
101333
101332
101332
101331
101331
101331
101330
101330
101329
101329
101329
101328
101328
101327
101327
101327
101326
101326
101325
100977
101005
101041
101075
101106
101135
101162
101187
101210
101230
101249
101266
101281
101294
101306
101316
101325
101333
101340
101346
101351
101355
101358
101361
101363
101365
101367
101368
101368
101369
101369
101369
101368
101368
101367
101367
101366
101365
101364
101363
101362
101361
101360
101359
101358
101357
101356
101355
101354
101353
101352
101351
101350
101349
101348
101347
101346
101345
101345
101344
101343
101342
101342
101341
101340
101340
101339
101338
101338
101337
101337
101336
101336
101335
101335
101334
101334
101333
101333
101332
101332
101332
101331
101331
101330
101330
101330
101329
101329
101329
101328
101328
101328
101327
101327
101327
101326
101326
101326
101325
101033
101056
101085
101113
101139
101163
101186
101207
101226
101244
101259
101274
101287
101298
101308
101317
101324
101331
101337
101342
101346
101350
101353
101355
101357
101359
101360
101361
101361
101362
101362
101362
101362
101361
101361
101360
101360
101359
101358
101357
101357
101356
101355
101354
101353
101352
101351
101350
101350
101349
101348
101347
101346
101345
101345
101344
101343
101342
101342
101341
101340
101340
101339
101338
101338
101337
101337
101336
101336
101335
101335
101334
101334
101334
101333
101333
101332
101332
101332
101331
101331
101331
101330
101330
101330
101329
101329
101329
101328
101328
101328
101328
101327
101327
101327
101326
101326
101326
101326
101325
101088
101106
101129
101152
101173
101192
101211
101228
101243
101258
101270
101282
101293
101302
101310
101318
101324
101329
101334
101338
101342
101345
101347
101349
101351
101352
101353
101354
101355
101355
101355
101355
101355
101355
101354
101354
101353
101353
101352
101352
101351
101350
101349
101349
101348
101347
101347
101346
101345
101344
101344
101343
101342
101342
101341
101340
101340
101339
101339
101338
101338
101337
101337
101336
101336
101335
101335
101334
101334
101333
101333
101333
101332
101332
101332
101331
101331
101331
101330
101330
101330
101330
101329
101329
101329
101329
101328
101328
101328
101328
101327
101327
101327
101327
101326
101326
101326
101326
101325
101325
101142
101156
101173
101191
101207
101222
101236
101249
101261
101272
101282
101291
101299
101307
101313
101319
101324
101328
101332
101335
101338
101340
101342
101344
101345
101346
101347
101348
101348
101348
101348
101348
101348
101348
101348
101347
101347
101347
101346
101346
101345
101345
101344
101343
101343
101342
101342
101341
101341
101340
101340
101339
101338
101338
101337
101337
101337
101336
101336
101335
101335
101334
101334
101334
101333
101333
101333
101332
101332
101332
101331
101331
101331
101330
101330
101330
101330
101329
101329
101329
101329
101329
101328
101328
101328
101328
101328
101327
101327
101327
101327
101327
101326
101326
101326
101326
101326
101326
101325
101325
101195
101205
101217
101229
101240
101251
101261
101270
101279
101287
101294
101301
101306
101312
101316
101320
101324
101327
101330
101332
101334
101336
101337
101338
101339
101340
101341
101341
101341
101342
101342
101342
101342
101341
101341
101341
101341
101340
101340
101340
101339
101339
101339
101338
101338
101337
101337
101337
101336
101336
101335
101335
101335
101334
101334
101334
101333
101333
101333
101332
101332
101332
101331
101331
101331
101331
101330
101330
101330
101330
101329
101329
101329
101329
101329
101329
101328
101328
101328
101328
101328
101328
101327
101327
101327
101327
101327
101327
101327
101326
101326
101326
101326
101326
101326
101326
101326
101325
101325
101325
101248
101253
101260
101268
101274
101281
101287
101292
101297
101302
101306
101310
101314
101317
101320
101322
101324
101326
101328
101329
101330
101331
101332
101333
101334
101334
101334
101335
101335
101335
101335
101335
101335
101335
101335
101335
101334
101334
101334
101334
101334
101333
101333
101333
101333
101332
101332
101332
101332
101331
101331
101331
101331
101331
101330
101330
101330
101330
101330
101329
101329
101329
101329
101329
101329
101328
101328
101328
101328
101328
101328
101328
101327
101327
101327
101327
101327
101327
101327
101327
101327
101327
101326
101326
101326
101326
101326
101326
101326
101326
101326
101326
101326
101326
101325
101325
101325
101325
101325
101325
101299
101301
101304
101306
101308
101310
101312
101314
101316
101317
101319
101320
101321
101322
101323
101324
101325
101325
101326
101326
101327
101327
101327
101328
101328
101328
101328
101328
101328
101328
101328
101328
101328
101328
101328
101328
101328
101328
101328
101328
101328
101328
101328
101328
101328
101327
101327
101327
101327
101327
101327
101327
101327
101327
101327
101327
101327
101327
101327
101326
101326
101326
101326
101326
101326
101326
101326
101326
101326
101326
101326
101326
101326
101326
101326
101326
101326
101326
101326
101326
101326
101326
101325
101325
101325
101325
101325
101325
101325
101325
101325
101325
101325
101325
101325
101325
101325
101325
101325
101325
99597.7
99603.9
99644.2
99711.6
99798.6
99897
99999.1
100097
100180
100227
99777.7
99775.5
99800.6
99847.6
99911.6
99986.4
100067
100146
100219
100264
99940.2
99931
99943.9
99975.1
100021
100076
100138
100201
100263
100308
100082
100070
100075
100096
100129
100170
100218
100268
100319
100359
100211
100195
100195
100208
100231
100263
100299
100339
100380
100415
100326
100309
100306
100313
100329
100351
100379
100411
100444
100474
100430
100413
100407
100410
100421
100437
100458
100483
100510
100535
100525
100509
100501
100501
100508
100520
100536
100555
100576
100597
100613
100597
100589
100587
100590
100599
100611
100625
100643
100660
100694
100679
100670
100667
100669
100674
100683
100695
100708
100723
100769
100755
100747
100743
100743
100747
100753
100762
100773
100786
100839
100827
100819
100815
100814
100816
100821
100828
100837
100847
100906
100895
100888
100884
100882
100883
100887
100892
100899
100907
100969
100959
100953
100949
100947
100948
100950
100954
100960
100967
101029
101021
101015
101012
101010
101010
101012
101015
101019
101025
101086
101080
101075
101072
101070
101070
101071
101074
101077
101082
101141
101137
101133
101131
101129
101129
101130
101131
101134
101137
101195
101192
101189
101187
101186
101186
101187
101188
101189
101192
101248
101246
101244
101243
101243
101242
101243
101243
101244
101246
101299
101299
101298
101298
101298
101298
101298
101298
101298
101299
101719
101677
101601
101500
101362
101169
100897
100480
100004
98714.3
101370
101278
101155
101005
100810
100544
100188
99651.1
99082.6
97512.8
101006
100875
100714
100521
100269
99935.3
99500.3
98846
98197
96354.3
100658
100492
100296
100061
99758
99360.4
98854.8
98088.9
97373.8
95274.5
100341
100144
99916.4
99641.4
99292
98837.7
98272.8
97404.4
96640.2
94310.1
100062
99838.5
99583.9
99274.7
98886.5
98384.3
97773.9
96816.5
96022.5
93497.3
99826.1
99582.7
99307
98970.6
98553.6
98014.7
97375.3
96348.4
95545.2
92866.5
99638.4
99381.9
99091.9
98737
98302.7
97740.4
97089.7
96020.9
95229.8
92433.5
99501.8
99239.3
98942.2
98578.4
98138.7
97569
96923
95840.4
95090.4
92214.4
99416.5
99156.2
98859.8
98498.3
98065.6
97506.3
96878.3
95812.2
95127.6
92227.3
103961
104182
104396
104622
104872
105151
105452
105768
106083
106379
103929
104150
104364
104587
104836
105111
105409
105719
106022
106327
103839
104051
104254
104466
104701
104959
105236
105521
105789
106075
103700
103895
104082
104275
104486
104715
104955
105196
105403
105615
103513
103686
103852
104019
104197
104386
104578
104759
104888
104981
103284
103429
103568
103701
103840
103981
104113
104220
104260
104194
103016
103128
103236
103331
103423
103507
103570
103591
103532
103271
102716
102792
102864
102916
102955
102976
102961
102884
102721
102233
102391
102430
102462
102466
102448
102400
102302
102118
101848
101108
102045
102046
102036
101990
101912
101792
101608
101309
100934
99923.9
101328
101328
101328
101328
101328
101328
101328
101328
101328
101328
101328
101329
101329
101329
101329
101330
101330
101330
101330
101331
101331
101332
101332
101333
101333
101334
101334
101335
101336
101337
101337
101338
101339
101340
101342
101343
101344
101346
101347
101349
101351
101353
101355
101357
101359
101362
101365
101368
101371
101375
101378
101382
101387
101391
101396
101402
101407
101414
101420
101428
101435
101444
101453
101462
101473
101484
101496
101508
101522
101537
101553
101570
101588
101608
101629
101652
101677
101704
101732
101763
101797
101833
101872
101914
101960
102010
102065
102124
102190
102261
102340
102428
102526
102635
102759
102898
103057
103240
103452
103697
101328
101328
101328
101328
101328
101328
101328
101328
101328
101328
101328
101329
101329
101329
101329
101330
101330
101330
101330
101331
101331
101332
101332
101333
101333
101334
101334
101335
101336
101337
101337
101338
101339
101340
101342
101343
101344
101346
101347
101349
101351
101353
101355
101357
101359
101362
101365
101368
101371
101375
101378
101382
101387
101391
101396
101402
101407
101414
101420
101428
101435
101444
101453
101462
101472
101484
101495
101508
101522
101537
101553
101570
101588
101608
101629
101652
101677
101704
101732
101763
101797
101833
101872
101914
101960
102010
102064
102124
102189
102260
102339
102426
102523
102631
102753
102890
103047
103226
103432
103670
101328
101328
101328
101328
101328
101328
101328
101328
101328
101328
101328
101329
101329
101329
101329
101330
101330
101330
101330
101331
101331
101332
101332
101333
101333
101334
101334
101335
101336
101337
101337
101338
101339
101340
101342
101343
101344
101346
101347
101349
101351
101353
101355
101357
101359
101362
101365
101368
101371
101374
101378
101382
101387
101391
101396
101402
101407
101414
101420
101427
101435
101443
101452
101462
101472
101483
101495
101508
101522
101537
101553
101570
101588
101608
101629
101652
101677
101704
101732
101763
101796
101832
101871
101914
101959
102009
102063
102122
102186
102257
102334
102420
102515
102621
102739
102872
103022
103192
103385
103602
101328
101328
101328
101328
101328
101328
101328
101328
101328
101328
101328
101329
101329
101329
101329
101329
101330
101330
101330
101331
101331
101332
101332
101333
101333
101334
101334
101335
101336
101336
101337
101338
101339
101340
101341
101343
101344
101346
101347
101349
101351
101352
101355
101357
101359
101362
101365
101368
101371
101374
101378
101382
101386
101391
101396
101401
101407
101413
101420
101427
101435
101443
101452
101462
101472
101483
101495
101508
101522
101537
101553
101570
101588
101608
101629
101652
101677
101704
101732
101763
101796
101832
101871
101913
101958
102008
102061
102119
102183
102252
102328
102412
102504
102606
102719
102844
102984
103139
103312
103497
101328
101328
101328
101328
101328
101328
101328
101328
101328
101328
101328
101329
101329
101329
101329
101329
101330
101330
101330
101331
101331
101332
101332
101332
101333
101334
101334
101335
101336
101336
101337
101338
101339
101340
101341
101343
101344
101345
101347
101349
101350
101352
101354
101357
101359
101362
101364
101367
101371
101374
101378
101382
101386
101391
101396
101401
101407
101413
101420
101427
101435
101443
101452
101462
101472
101483
101495
101508
101522
101536
101552
101570
101588
101608
101629
101652
101677
101703
101732
101763
101796
101831
101870
101912
101957
102005
102058
102115
102178
102245
102319
102400
102488
102585
102690
102806
102932
103068
103212
103357
101328
101328
101328
101328
101328
101328
101328
101328
101328
101328
101328
101328
101329
101329
101329
101329
101330
101330
101330
101331
101331
101331
101332
101332
101333
101333
101334
101335
101336
101336
101337
101338
101339
101340
101341
101342
101344
101345
101347
101348
101350
101352
101354
101356
101359
101361
101364
101367
101370
101374
101378
101382
101386
101391
101396
101401
101407
101413
101420
101427
101435
101443
101452
101462