/*--------------------------------*- C++ -*----------------------------------*\
  =========                 |
  \\      /  F ield         | OpenFOAM: The Open Source CFD Toolbox
   \\    /   O peration     | Website:  https://openfoam.org
    \\  /    A nd           | Version:  8
     \\/     M anipulation  |
\*---------------------------------------------------------------------------*/
FoamFile
{
    version     2.0;
    format      ascii;
    class       surfaceScalarField;
    location    "2.0000073";
    object      phi;
}
// * * * * * * * * * * * * * * * * * * * * * * * * * * * * * * * * * * * * * //

dimensions      [1 0 -1 0 0 0 0];

internalField   nonuniform List<scalar> 
13330
(
0.587377
-0.76807
0.180411
1.17567
-2.17431
1.5859
1.67057
-2.66843
2.17343
2.10169
-2.93689
2.50568
2.47989
-3.08739
2.7091
2.81625
-3.16808
2.83165
3.12156
-3.20937
2.904
3.40467
-3.22785
2.94469
3.67412
-3.23417
2.96468
-3.23495
2.96971
3.93934
0.635022
-1.40318
1.20132
-2.74065
1.65571
-3.12285
2.04387
-3.32509
2.37895
-3.42251
2.67515
-3.46431
2.94331
-3.47756
3.19144
-3.47601
3.42506
-3.4678
-3.45693
3.64702
0.627873
-2.03111
1.16281
-3.27561
1.57274
-3.53281
1.91857
-3.67095
2.21401
-3.71798
2.47405
-3.72438
2.70933
-3.71287
2.92725
-3.69396
3.13259
-3.67316
-3.65239
3.32803
0.595255
-2.62641
1.0821
-3.76248
1.44455
-3.89529
1.74982
-3.97624
2.00765
-3.97584
2.23494
-3.95169
2.44154
-3.91949
2.63404
-3.88648
2.81644
-3.85558
-3.82659
2.99063
0.546795
-3.17323
0.975332
-4.19103
1.29006
-4.21003
1.55512
-4.24133
1.77789
-4.19861
1.97577
-4.14959
2.15663
-4.10037
2.32578
-4.05565
2.48636
-4.01618
-3.97998
2.63974
0.489201
-3.66245
0.854336
-4.55618
1.122
-4.47771
1.34821
-4.46754
1.53794
-4.38836
1.70784
-4.31949
1.86362
-4.25617
2.00966
-4.2017
2.14851
-4.15503
-4.1125
2.28101
0.426893
-4.08936
0.727537
-4.85683
0.950826
-4.70101
1.13824
-4.65496
1.296
-4.54614
1.43831
-4.46181
1.56892
-4.38678
1.69131
-4.32411
1.80749
-4.27122
-4.22271
1.9177
0.363273
-4.45264
0.600998
-5.09457
0.781453
-4.88147
0.930542
-4.80406
1.05714
-4.67274
1.17121
-4.57589
1.27554
-4.49113
1.37298
-4.42155
1.46514
-4.36338
-4.30945
1.55187
0.300259
-4.7529
0.477842
-5.27215
0.617398
-5.02103
0.728343
-4.91501
0.823536
-4.76794
0.908288
-4.66064
0.985228
-4.56807
1.05647
-4.4928
1.12336
-4.43027
-4.37152
1.18542
0.239034
-4.99194
0.359886
-5.39301
0.459467
-5.12062
0.532544
-4.98809
0.596066
-4.83147
0.650448
-4.71503
0.698819
-4.61645
0.742595
-4.53658
0.782912
-4.47059
0.819236
-4.40785
-0.258239
0.259911
-0.47083
0.213227
-0.628769
0.158405
-0.74787
0.119246
-0.82965
0.0818972
-0.870154
0.0405224
-0.864264
-0.00585132
-0.810389
-0.0538871
-0.714748
-0.0956479
-0.123708
-0.591044
-0.239303
0.501201
-0.403082
0.378675
-0.526618
0.282591
-0.610541
0.20355
-0.649261
0.120803
-0.636684
0.0280513
-0.571576
-0.0709148
-0.45768
-0.167798
-0.305776
-0.247553
-0.302112
-0.127416
-0.153581
0.655588
-0.271482
0.496986
-0.34198
0.353524
-0.358494
0.220327
-0.306853
0.0693316
-0.18614
-0.0925472
-0.01174
-0.245278
0.197011
-0.376543
0.426923
-0.477525
-0.545928
0.670729
-0.0851842
0.740522
-0.131957
0.54397
-0.116289
0.337973
-0.0131522
0.117373
0.181442
-0.125161
0.433276
-0.344303
0.711607
-0.523588
1.00186
-0.666836
1.30265
-0.778312
-0.855542
1.61222
-0.0242139
0.764428
0.0121091
0.507361
0.155738
0.194283
0.416174
-0.143043
0.741125
-0.450094
1.09126
-0.694417
1.45319
-0.885523
1.81981
-1.03345
2.18744
-1.146
-1.22516
2.55704
0.0267611
0.737098
0.168199
0.365541
0.472717
-0.110428
0.865759
-0.536157
1.28071
-0.865082
1.70199
-1.11572
2.12202
-1.30558
2.53669
-1.44816
2.94266
-1.55198
-1.62395
3.3414
0.0687693
0.667825
0.367018
0.0669192
0.811691
-0.555302
1.28329
-1.00787
1.75355
-1.33542
2.21194
-1.57415
2.65288
-1.74657
3.07427
-1.86956
3.47745
-1.9552
-2.01336
3.86684
0.145297
0.522246
0.606452
-0.394551
1.12897
-1.07798
1.64202
-1.52103
2.12835
-1.82184
2.58264
-2.02851
3.00616
-2.17013
3.40291
-2.26635
3.77826
-2.33058
-2.37168
4.13655
0.271832
0.250118
0.845312
-0.968208
1.40006
-1.63285
1.90978
-2.03086
2.3738
-2.28594
2.79649
-2.45126
3.18429
-2.55798
3.54354
-2.62564
3.88015
-2.66722
-2.69115
4.19959
0.43043
1.04807
1.5886
2.06338
2.4865
2.86685
3.21284
3.53187
3.82932
4.10786
-0.338625
-0.252434
-0.108963
-0.229648
0.0975398
-0.206486
0.280566
-0.183015
0.443605
-0.163031
0.59125
-0.14764
0.726661
-0.135407
0.852024
-0.125361
0.968907
-0.11688
1.07848
-0.109565
1.18163
-0.10315
1.27907
-0.0974418
1.37138
-0.0923055
1.45903
-0.0876426
1.5424
-0.0833743
1.62184
-0.0794366
1.69762
-0.0757793
1.76999
-0.0723651
1.83916
-0.0691656
1.90532
-0.0661583
1.96864
-0.0633249
2.0293
-0.0606509
2.08742
-0.0581239
2.14316
-0.0557329
2.19663
-0.0534676
2.24795
-0.0513193
2.29723
-0.04928
2.34458
-0.0473417
2.39008
-0.0454972
2.43382
-0.0437404
2.47589
-0.0420657
2.51636
-0.0404676
2.55531
-0.0389412
2.59279
-0.0374814
2.62888
-0.0360837
2.66363
-0.0347441
2.69709
-0.0334596
2.72932
-0.0322276
2.76037
-0.0310461
2.79029
-0.0299129
2.81912
-0.0288264
2.8469
-0.0277853
2.87369
-0.0267878
2.89953
-0.0258323
2.92444
-0.024917
2.94848
-0.0240404
2.97169
-0.0232008
2.99408
-0.0223968
3.01571
-0.0216268
3.0366
-0.020889
3.05678
-0.0201817
3.07629
-0.0195034
3.09514
-0.0188526
3.11337
-0.0182281
3.131
-0.0176284
3.14805
-0.0170524
3.16455
-0.0164988
3.18052
-0.0159665
3.19597
-0.0154546
3.21094
-0.0149622
3.22542
-0.0144882
3.23946
-0.0140319
3.25305
-0.0135925
3.26622
-0.0131692
3.27898
-0.0127614
3.29135
-0.0123684
3.30334
-0.0119898
3.31496
-0.0116249
3.32623
-0.0112732
3.33717
-0.0109344
3.34778
-0.0106078
3.35807
-0.0102932
3.36806
-0.00998996
3.37775
-0.00969774
3.38717
-0.00941613
3.39631
-0.0091447
3.4052
-0.00888306
3.41383
-0.00863084
3.42221
-0.00838764
3.43036
-0.00815314
3.43829
-0.00792696
3.446
-0.00770875
3.4535
-0.00749815
3.46079
-0.00729484
3.46789
-0.00709838
3.4748
-0.00690848
3.48152
-0.00672461
3.48807
-0.00654648
3.49444
-0.00637333
3.50064
-0.00620478
3.50668
-0.00603961
3.51256
-0.00587712
3.51827
-0.00571509
3.52383
-0.00555202
3.52921
-0.00538377
3.53442
-0.00520645
3.53943
-0.00501282
3.54422
-0.00479536
3.54877
-0.00454769
-0.00404936
0.0924861
-0.472337
0.281382
-0.418513
0.449637
-0.374709
0.603855
-0.33721
0.745815
-0.304977
0.8766
-0.278416
0.997831
-0.25663
1.11089
-0.23841
1.21685
-0.222839
1.31659
-0.209297
1.4108
-0.197348
1.50002
-0.186657
1.58471
-0.176991
1.66526
-0.16818
1.74197
-0.160082
1.81513
-0.152587
1.88496
-0.145608
1.95168
-0.13908
2.01547
-0.132954
2.0765
-0.12719
2.13494
-0.121754
2.19091
-0.116622
2.24456
-0.11177
2.29601
-0.107178
2.34538
-0.102826
2.39276
-0.0986994
2.43827
-0.0947817
2.482
-0.0910577
2.52402
-0.0875138
2.56443
-0.0841378
2.60329
-0.0809181
2.64067
-0.0778437
2.67665
-0.0749058
2.71127
-0.0720956
2.7446
-0.0694039
2.77668
-0.0668233
2.80758
-0.0643483
2.83733
-0.0619743
2.86599
-0.0596975
2.8936
-0.0575145
2.92019
-0.0554222
2.94583
-0.0534172
2.97054
-0.051496
2.99437
-0.0496552
3.01734
-0.0478919
3.03951
-0.0462029
3.0609
-0.0445853
3.08154
-0.0430365
3.10147
-0.0415532
3.12071
-0.0401322
3.1393
-0.0387702
3.15726
-0.0374645
3.17462
-0.0362122
3.19141
-0.0350107
3.20764
-0.0338573
3.22334
-0.0327496
3.23853
-0.0316853
3.25322
-0.0306624
3.26745
-0.0296789
3.28122
-0.0287329
3.29455
-0.0278227
3.30747
-0.0269464
3.31998
-0.0261028
3.3321
-0.0252904
3.34385
-0.024508
3.35523
-0.0237543
3.36627
-0.0230282
3.37697
-0.0223287
3.38735
-0.0216548
3.39742
-0.0210057
3.40719
-0.0203803
3.41668
-0.0197778
3.42588
-0.0191973
3.43482
-0.0186379
3.4435
-0.0180988
3.45193
-0.0175792
3.46013
-0.0170784
3.46809
-0.0165957
3.47583
-0.0161302
3.48336
-0.0156814
3.49068
-0.0152484
3.4978
-0.0148308
3.50473
-0.0144276
3.51147
-0.0140385
3.51803
-0.0136626
3.52442
-0.0132992
3.53064
-0.0129474
3.5367
-0.0126067
3.5426
-0.0122757
3.54835
-0.0119535
3.55395
-0.0116379
3.5594
-0.0113275
3.5647
-0.0110181
3.56985
-0.0107068
3.57486
-0.0103855
3.5797
-0.0100466
3.58436
-0.00967632
3.58881
-0.00924841
3.593
-0.00873538
-0.00809087
0.805222
-0.606867
0.927917
-0.541204
1.04683
-0.493611
1.16196
-0.452335
1.27195
-0.414954
1.37613
-0.382596
1.47465
-0.355145
1.56789
-0.331647
1.65624
-0.311189
1.74008
-0.293124
1.81973
-0.27699
1.89548
-0.262408
1.96762
-0.249119
2.03637
-0.236929
2.10196
-0.22566
2.16456
-0.215182
2.22435
-0.205394
2.28149
-0.196218
2.33614
-0.187596
2.38843
-0.179476
2.43849
-0.171816
2.48645
-0.164579
2.53242
-0.157736
2.57651
-0.151257
2.6188
-0.145117
2.6594
-0.139291
2.69838
-0.133756
2.73582
-0.128491
2.7718
-0.123477
2.80636
-0.118696
2.83958
-0.114132
2.87152
-0.109771
2.90222
-0.105602
2.93175
-0.101614
2.96014
-0.097793
2.98746
-0.09413
3.01373
-0.0906183
3.03901
-0.0872519
3.06335
-0.0840254
3.08677
-0.0809338
3.10932
-0.0779721
3.13104
-0.0751352
3.15197
-0.0724185
3.17213
-0.0698177
3.19157
-0.0673282
3.21032
-0.0649455
3.2284
-0.0626647
3.24585
-0.0604821
3.26269
-0.0583929
3.27895
-0.0563917
3.29466
-0.0544743
3.30983
-0.0526365
3.32449
-0.0508743
3.33867
-0.0491835
3.35237
-0.0475606
3.36563
-0.0460021
3.37845
-0.0445046
3.39085
-0.0430657
3.40286
-0.0416826
3.41448
-0.0403526
3.42573
-0.0390731
3.43662
-0.037842
3.44718
-0.0366573
3.4574
-0.035517
3.46731
-0.0344193
3.47692
-0.0333625
3.48624
-0.0323451
3.49527
-0.0313655
3.50404
-0.0304224
3.51255
-0.0295142
3.52081
-0.0286396
3.52882
-0.0277972
3.53661
-0.0269857
3.54417
-0.026204
3.55153
-0.0254508
3.55867
-0.0247252
3.56562
-0.0240261
3.57237
-0.0233521
3.57894
-0.0227024
3.58534
-0.022076
3.59156
-0.0214718
3.59761
-0.0208891
3.60351
-0.0203269
3.60926
-0.0197843
3.61485
-0.0192603
3.62031
-0.0187542
3.62562
-0.0182644
3.63081
-0.0177903
3.63586
-0.0173299
3.64079
-0.0168822
3.64559
-0.0164438
3.65028
-0.016013
3.65484
-0.0155837
3.65929
-0.0151521
3.66361
-0.0147066
3.6678
-0.0142364
3.67184
-0.0137221
3.67572
-0.0131255
3.6794
-0.0124138
-0.0115742
1.67178
-0.666456
1.7349
-0.604342
1.804
-0.562714
1.8768
-0.52514
1.95057
-0.488736
2.02355
-0.455573
2.09477
-0.426375
2.16375
-0.400627
2.23021
-0.377641
2.29402
-0.356932
2.35518
-0.338153
2.41375
-0.320964
2.46978
-0.305149
2.52337
-0.290514
2.5746
-0.276883
2.62358
-0.264154
2.67041
-0.252226
2.71523
-0.241027
2.75813
-0.230495
2.79923
-0.220565
2.8386
-0.211185
2.87634
-0.202316
2.91253
-0.19392
2.94724
-0.185962
2.98054
-0.178409
3.01249
-0.171234
3.04315
-0.164407
3.07257
-0.157904
3.1008
-0.151702
3.1279
-0.145783
3.1539
-0.140127
3.17885
-0.134718
3.2028
-0.129547
3.2258
-0.124601
3.24787
-0.119862
3.26907
-0.115322
3.28943
-0.110975
3.30899
-0.106814
3.3278
-0.102832
3.3459
-0.0990206
3.3633
-0.095374
3.38005
-0.0918855
3.39619
-0.0885488
3.41173
-0.0853573
3.42671
-0.0823046
3.44115
-0.0793845
3.45508
-0.0765901
3.46851
-0.073917
3.48148
-0.0713585
3.494
-0.0689072
3.50608
-0.0665587
3.51776
-0.0643072
3.52903
-0.0621479
3.53993
-0.0600758
3.55045
-0.0580865
3.56063
-0.056176
3.57047
-0.0543405
3.57998
-0.0525772
3.58918
-0.0508833
3.59808
-0.0492551
3.6067
-0.0476896
3.61504
-0.0461843
3.62312
-0.0447369
3.63095
-0.0433449
3.63854
-0.042006
3.64589
-0.0407182
3.65303
-0.0394794
3.65995
-0.0382877
3.66666
-0.0371412
3.67319
-0.036038
3.67952
-0.0349764
3.68568
-0.0339546
3.69166
-0.0329709
3.69748
-0.0320237
3.70314
-0.0311116
3.70865
-0.0302333
3.71401
-0.0293871
3.71923
-0.0285719
3.72431
-0.0277864
3.72926
-0.0270296
3.73409
-0.0263003
3.73879
-0.0255972
3.74339
-0.0249195
3.74787
-0.0242662
3.75224
-0.0236358
3.75651
-0.0230275
3.76069
-0.0224395
3.76477
-0.021871
3.76876
-0.0213194
3.77266
-0.0207837
3.77647
-0.0202597
3.7802
-0.0197455
3.78385
-0.0192334
3.78742
-0.0187192
3.7909
-0.0181887
3.79429
-0.017629
3.79759
-0.0170159
3.80076
-0.0163038
3.8038
-0.015452
-0.0144595
2.57238
-0.681844
2.5994
-0.6314
2.63399
-0.597338
2.67323
-0.564404
2.71546
-0.530982
2.75919
-0.499317
2.80323
-0.470421
2.84679
-0.444188
2.8894
-0.420256
2.93079
-0.39833
2.97083
-0.378185
3.00943
-0.359564
3.04658
-0.342299
3.0823
-0.326229
3.11664
-0.311214
3.14965
-0.29716
3.18139
-0.283963
3.21192
-0.271545
3.24126
-0.259833
3.26946
-0.248758
3.29655
-0.238269
3.32257
-0.228331
3.34756
-0.218902
3.37155
-0.209944
3.39457
-0.201426
3.41666
-0.193319
3.43786
-0.185593
3.45818
-0.178222
3.47767
-0.171183
3.49635
-0.164457
3.51425
-0.158023
3.53139
-0.15186
3.54781
-0.145962
3.56354
-0.140324
3.57861
-0.134929
3.59307
-0.129772
3.60694
-0.124844
3.62026
-0.120135
3.63307
-0.115633
3.64538
-0.111331
3.65723
-0.10722
3.66864
-0.103291
3.67962
-0.099534
3.69021
-0.0959416
3.70041
-0.0925055
3.71025
-0.089218
3.71973
-0.0860708
3.72888
-0.0830583
3.73769
-0.0801738
3.7462
-0.0774098
3.7544
-0.0747609
3.76232
-0.0722196
3.76995
-0.0697812
3.77732
-0.0674411
3.78443
-0.0651954
3.7913
-0.0630395
3.79793
-0.0609691
3.80433
-0.0589826
3.81053
-0.0570762
3.81652
-0.0552452
3.82231
-0.0534862
3.82793
-0.0517969
3.83336
-0.0501743
3.83863
-0.0486156
3.84374
-0.0471181
3.84871
-0.0456793
3.85352
-0.0442965
3.8582
-0.0429678
3.86275
-0.0416908
3.86717
-0.0404634
3.87148
-0.0392833
3.87567
-0.0381483
3.87976
-0.0370566
3.88374
-0.0360063
3.88762
-0.0349956
3.89141
-0.0340232
3.89511
-0.0330874
3.89872
-0.0321864
3.90225
-0.0313194
3.90571
-0.0304853
3.90909
-0.0296821
3.9124
-0.0289089
3.91564
-0.0281648
3.91883
-0.0274487
3.92195
-0.0267587
3.92501
-0.0260939
3.92802
-0.0254522
3.93099
-0.024833
3.9339
-0.0242332
3.93677
-0.0236519
3.93959
-0.0230842
3.94237
-0.0225282
3.94511
-0.0219755
3.94781
-0.0214216
3.95048
-0.020851
3.9531
-0.02025
3.95567
-0.0195906
3.95819
-0.018824
3.96064
-0.0178979
-0.0168149
3.33711
-0.67761
3.3479
-0.642235
3.36617
-0.615658
3.38825
-0.586514
3.41319
-0.555944
3.44006
-0.526216
3.46783
-0.498205
3.49568
-0.472046
3.52308
-0.44767
3.54973
-0.42498
3.57542
-0.40388
3.60006
-0.384198
3.62359
-0.365826
3.64601
-0.34865
3.66734
-0.332542
3.68762
-0.31743
3.70688
-0.303216
3.72515
-0.289815
3.74249
-0.277165
3.75895
-0.265206
3.77457
-0.253886
3.78941
-0.243163
3.80351
-0.23299
3.8169
-0.223329
3.82963
-0.214148
3.84173
-0.205419
3.85325
-0.197106
3.86422
-0.189181
3.87466
-0.181624
3.88463
-0.174416
3.89415
-0.167537
3.90326
-0.160966
3.91199
-0.154694
3.92038
-0.148709
3.92845
-0.142991
3.9362
-0.137525
3.94366
-0.132301
3.95084
-0.127307
3.95774
-0.122532
3.96438
-0.117967
3.97076
-0.113603
3.9769
-0.109428
3.98281
-0.105436
3.98849
-0.101619
3.99395
-0.097966
3.99921
-0.0944706
4.00426
-0.0911234
4.00912
-0.0879185
4.0138
-0.0848482
4.0183
-0.0819037
4.02262
-0.0790798
4.02677
-0.0763716
4.03077
-0.0737774
4.03462
-0.071292
4.03834
-0.0689111
4.04193
-0.0666292
4.04541
-0.0644415
4.04877
-0.0623449
4.05203
-0.060335
4.05519
-0.058407
4.05826
-0.0565576
4.06125
-0.0547841
4.06416
-0.0530825
4.06699
-0.0514498
4.06976
-0.0498829
4.07245
-0.0483788
4.07509
-0.0469347
4.07767
-0.0455482
4.0802
-0.0442168
4.08267
-0.0429377
4.08509
-0.0417088
4.08747
-0.0405277
4.08981
-0.0393926
4.0921
-0.038302
4.09436
-0.037254
4.09658
-0.0362474
4.09877
-0.0352804
4.10094
-0.0343514
4.10308
-0.0334591
4.10519
-0.0326023
4.10729
-0.0317786
4.10937
-0.0309874
4.11143
-0.030228
4.11348
-0.0294988
4.11552
-0.0287975
4.11754
-0.0281234
4.11957
-0.0274741
4.12158
-0.0268493
4.12359
-0.0262455
4.1256
-0.0256619
4.12761
-0.0250934
4.12962
-0.0245384
4.13163
-0.0239882
4.13365
-0.0234386
4.13567
-0.0228742
4.1377
-0.0222819
4.13974
-0.0216327
4.1418
-0.0208786
4.14385
-0.0199527
-0.0188539
3.84597
-0.656802
3.84145
-0.637771
3.84614
-0.620401
3.85618
-0.596598
3.87034
-0.570132
3.88777
-0.543668
3.90744
-0.517901
3.92845
-0.493064
3.95011
-0.469345
3.97195
-0.446828
3.99361
-0.425542
4.01484
-0.405429
4.03544
-0.386433
4.05529
-0.368494
4.07429
-0.351537
4.09236
-0.335504
4.10948
-0.320327
4.12562
-0.305947
4.14077
-0.292314
4.15495
-0.279377
4.16816
-0.267084
4.1804
-0.255402
4.19172
-0.244295
4.20212
-0.23373
4.21166
-0.223676
4.22035
-0.214105
4.22824
-0.204991
4.23539
-0.196316
4.24183
-0.188062
4.24763
-0.180211
4.25284
-0.172745
4.25752
-0.16564
4.26171
-0.158883
4.26547
-0.15246
4.26883
-0.146349
4.27184
-0.140532
4.27453
-0.134994
4.27695
-0.129722
4.27912
-0.124701
4.28108
-0.119919
4.28284
-0.115365
4.28444
-0.111025
4.2859
-0.10689
4.28723
-0.102949
4.28846
-0.09919
4.28959
-0.095603
4.29065
-0.0921787
4.29164
-0.0889088
4.29258
-0.0857854
4.29348
-0.0827993
4.29435
-0.0799457
4.2952
-0.0772184
4.29603
-0.0746099
4.29686
-0.0721127
4.29767
-0.0697218
4.29847
-0.0674323
4.29927
-0.0652383
4.30006
-0.0631363
4.30085
-0.0611229
4.30164
-0.0591937
4.30243
-0.0573445
4.30322
-0.0555726
4.30401
-0.0538743
4.3048
-0.0522466
4.30561
-0.0506865
4.30642
-0.0491911
4.30724
-0.0477571
4.30807
-0.0463816
4.30892
-0.0450614
4.30977
-0.0437946
4.31064
-0.0425795
4.31153
-0.0414149
4.31243
-0.0402989
4.31336
-0.0392299
4.31431
-0.0382057
4.31529
-0.0372249
4.31629
-0.0362855
4.31733
-0.0353859
4.31839
-0.0345243
4.31949
-0.0336998
4.32062
-0.0329096
4.32178
-0.032153
4.32298
-0.0314285
4.32422
-0.0307346
4.32549
-0.0300694
4.3268
-0.0294323
4.32814
-0.0288206
4.32953
-0.0282341
4.33095
-0.0276694
4.33241
-0.0271255
4.33392
-0.0265976
4.33546
-0.0260847
4.33705
-0.0255783
4.33869
-0.0250756
4.34037
-0.0245623
4.34212
-0.0240289
4.34393
-0.0234464
4.34583
-0.022777
4.34782
-0.021939
-0.0209122
4.1028
-0.623121
4.08384
-0.618869
4.07507
-0.611683
4.07345
-0.595019
4.07738
-0.574097
4.0857
-0.552017
4.09741
-0.529631
4.11163
-0.507306
4.12766
-0.485387
4.14495
-0.464123
4.16306
-0.443661
4.18168
-0.424057
4.20058
-0.405328
4.21954
-0.387463
4.23844
-0.370431
4.25714
-0.354196
4.27554
-0.338725
4.29357
-0.323976
4.31117
-0.30991
4.32829
-0.296487
4.34488
-0.283666
4.36091
-0.27142
4.37634
-0.25972
4.39115
-0.248532
4.40531
-0.237832
4.41882
-0.227603
4.43166
-0.217826
4.44382
-0.208473
4.45529
-0.199527
4.46606
-0.190974
4.47612
-0.182795
4.48545
-0.174974
4.49408
-0.1675
4.50198
-0.160364
4.50919
-0.153553
4.51572
-0.147053
4.52158
-0.14085
4.52679
-0.134934
4.53139
-0.129293
4.53539
-0.123917
4.53882
-0.118797
4.54172
-0.113923
4.54412
-0.109285
4.54605
-0.104874
4.54754
-0.10068
4.54864
-0.0966966
4.54938
-0.0929134
4.5498
-0.089324
4.54994
-0.0859217
4.54984
-0.0826974
4.54954
-0.0796423
4.54907
-0.0767478
4.54846
-0.0740054
4.54776
-0.0714048
4.54698
-0.0689382
4.54614
-0.066598
4.54528
-0.0643763
4.54442
-0.0622672
4.54356
-0.0602647
4.54273
-0.0583614
4.54193
-0.0565504
4.54119
-0.0548266
4.5405
-0.0531848
4.53987
-0.0516201
4.53931
-0.0501282
4.53883
-0.0487048
4.53842
-0.0473461
4.53808
-0.0460489
4.53783
-0.04481
4.53766
-0.0436267
4.53758
-0.0424962
4.53758
-0.041416
4.53766
-0.0403834
4.53783
-0.0393965
4.53807
-0.0384528
4.5384
-0.0375514
4.5388
-0.0366901
4.53928
-0.0358675
4.53984
-0.0350819
4.54047
-0.0343328
4.54118
-0.0336175
4.54196
-0.032935
4.54282
-0.0322843
4.54374
-0.0316641
4.54475
-0.0310726
4.54582
-0.0305092
4.54697
-0.0299714
4.5482
-0.0294586
4.54949
-0.0289672
4.55087
-0.0284975
4.55231
-0.0280443
4.55383
-0.0276081
4.55544
-0.0271815
4.55712
-0.0267639
4.5589
-0.0263427
4.56079
-0.0259144
4.5628
-0.0254534
4.56496
-0.024943
4.56732
-0.0242957
-0.0234771
4.15971
-0.583293
4.13252
-0.591732
4.1151
-0.594313
4.10608
-0.586043
4.10374
-0.571791
4.10645
-0.554751
4.11304
-0.53624
4.12264
-0.516925
4.13456
-0.497311
4.14821
-0.477789
4.16317
-0.458628
4.1791
-0.439989
4.19573
-0.421965
4.21287
-0.404596
4.23034
-0.3879
4.24802
-0.371874
4.2658
-0.356503
4.28359
-0.341769
4.30134
-0.327651
4.31898
-0.314122
4.33647
-0.301149
4.35377
-0.288712
4.37084
-0.276786
4.38767
-0.265348
4.40422
-0.25438
4.42049
-0.243863
4.43645
-0.233779
4.45209
-0.224106
4.46739
-0.214828
4.48236
-0.205932
4.49697
-0.197403
4.51123
-0.189225
4.52512
-0.181386
4.53863
-0.173874
4.55176
-0.166678
4.5645
-0.159784
4.57684
-0.153182
4.58876
-0.14686
4.60028
-0.140806
4.61138
-0.135011
4.62205
-0.129466
4.63229
-0.124159
4.64209
-0.119083
4.65145
-0.114227
4.66036
-0.109585
4.66881
-0.105148
4.67681
-0.100908
4.68435
-0.0968586
4.69142
-0.092992
4.69803
-0.0893008
4.70417
-0.0857786
4.70984
-0.0824207
4.71506
-0.0792212
4.71983
-0.0761744
4.72417
-0.0732753
4.72809
-0.0705179
4.73161
-0.0678966
4.73475
-0.0654076
4.73754
-0.0630464
4.73998
-0.060808
4.74212
-0.0586874
4.74398
-0.0566803
4.74557
-0.054782
4.74694
-0.0529886
4.74811
-0.0512955
4.7491
-0.0496989
4.74995
-0.048195
4.75068
-0.0467803
4.75132
-0.0454503
4.7519
-0.0442008
4.75243
-0.043028
4.75294
-0.0419274
4.75345
-0.0408943
4.75398
-0.0399253
4.75454
-0.0390161
4.75515
-0.0381634
4.75582
-0.0373629
4.75657
-0.0366117
4.75739
-0.0359059
4.7583
-0.0352435
4.7593
-0.0346203
4.7604
-0.0340347
4.7616
-0.0334841
4.7629
-0.0329669
4.76431
-0.0324797
4.76582
-0.0320214
4.76744
-0.0315892
4.76916
-0.0311826
4.77099
-0.0307984
4.77293
-0.0304367
4.77498
-0.0300932
4.77714
-0.0297678
4.77941
-0.0294552
4.7818
-0.0291554
4.78432
-0.0288611
4.78698
-0.0285723
4.7898
-0.0282762
4.79283
-0.027976
4.79616
-0.0276219
-0.0271616
4.06368
-0.53916
4.02901
-0.557116
4.00246
-0.567802
3.98556
-0.569184
3.97701
-0.563264
3.97493
-0.552695
3.97789
-0.539223
3.98483
-0.523886
3.9949
-0.50739
4.00738
-0.490281
4.02172
-0.472968
4.03746
-0.455737
4.05427
-0.438779
4.07189
-0.422211
4.09009
-0.406107
4.10873
-0.390506
4.12766
-0.375431
4.14678
-0.360887
4.166
-0.346871
4.18526
-0.333373
4.2045
-0.320379
4.22367
-0.307876
4.24273
-0.295845
4.26166
-0.284273
4.28044
-0.273146
4.29903
-0.262446
4.31742
-0.252162
4.3356
-0.242277
4.35355
-0.232777
4.37127
-0.223649
4.38876
-0.21488
4.406
-0.206459
4.42299
-0.198373
4.43973
-0.190612
4.45622
-0.183165
4.47246
-0.17602
4.48845
-0.169168
4.50419
-0.162597
4.51969
-0.156297
4.53494
-0.150257
4.54995
-0.144469
4.56471
-0.138923
4.57924
-0.133609
4.59354
-0.128518
4.6076
-0.123643
4.62143
-0.118974
4.63503
-0.114504
4.6484
-0.110225
4.66154
-0.10613
4.67445
-0.102211
4.68714
-0.0984601
4.69959
-0.0948721
4.71181
-0.091439
4.72379
-0.088156
4.73554
-0.0850171
4.74704
-0.0820166
4.75829
-0.0791485
4.76929
-0.0764072
4.78004
-0.0737889
4.79052
-0.0712885
4.80073
-0.0689011
4.81068
-0.0666225
4.82034
-0.0644483
4.82973
-0.062375
4.83883
-0.0603984
4.84765
-0.0585158
4.85618
-0.0567228
4.86441
-0.0550165
4.87236
-0.0533936
4.88001
-0.051852
4.88737
-0.0503887
4.89444
-0.0490012
4.90124
-0.0476871
4.90775
-0.0464441
4.91401
-0.0452694
4.92
-0.0441618
4.92576
-0.0431182
4.93128
-0.0421377
4.9366
-0.041217
4.94171
-0.0403556
4.94664
-0.03955
4.9514
-0.0387998
4.95602
-0.0381017
4.96051
-0.0374558
4.96488
-0.0368586
4.96917
-0.0363087
4.97338
-0.0358035
4.97754
-0.0353425
4.98167
-0.0349218
4.98577
-0.0345416
4.98987
-0.0341968
4.99399
-0.0338881
4.99815
-0.033609
5.00235
-0.0333618
5.00663
-0.03314
5.01101
-0.0329521
5.01553
-0.0327943
5.02025
-0.032701
5.02532
-0.0326938
-0.032918
5.1141
-0.484994
-5.1683
5.05906
-0.502112
5.00802
-0.516788
4.96204
-0.523218
4.92156
-0.522806
4.88647
-0.517621
4.85637
-0.50913
4.83076
-0.49829
4.80916
-0.485797
4.79108
-0.472205
4.77606
-0.457955
4.76369
-0.443376
4.75361
-0.428702
4.7455
-0.4141
4.73908
-0.399684
4.73411
-0.385533
4.73038
-0.371702
4.72772
-0.358223
4.72597
-0.345119
4.725
-0.3324
4.7247
-0.320073
4.72496
-0.308136
4.72571
-0.296588
4.72686
-0.285423
4.72836
-0.274636
4.73014
-0.264224
4.73216
-0.254175
4.73437
-0.244482
4.73673
-0.235137
4.73922
-0.226132
4.7418
-0.217457
4.74445
-0.209105
4.74715
-0.201066
4.74988
-0.193333
4.75261
-0.185897
4.75535
-0.178749
4.75806
-0.171881
4.76075
-0.165284
4.76341
-0.158949
4.76602
-0.152867
4.76859
-0.14703
4.7711
-0.14143
4.77355
-0.136057
4.77594
-0.130905
4.77827
-0.125965
4.78052
-0.121229
4.78271
-0.116691
4.78483
-0.112342
4.78688
-0.108176
4.78886
-0.104185
4.79076
-0.100363
4.7926
-0.0967033
4.79436
-0.093199
4.79605
-0.0898444
4.79767
-0.0866341
4.79922
-0.0835623
4.80069
-0.0806233
4.8021
-0.0778114
4.80343
-0.0751223
4.8047
-0.0725508
4.80589
-0.0700922
4.80701
-0.067742
4.80806
-0.0654956
4.80903
-0.063349
4.80993
-0.0612983
4.81076
-0.0593397
4.8115
-0.0574693
4.81217
-0.0556837
4.81276
-0.0539794
4.81326
-0.0523537
4.81367
-0.0508026
4.81399
-0.0493242
4.81422
-0.047915
4.81435
-0.046573
4.81438
-0.0452951
4.81429
-0.0440795
4.8141
-0.0429235
4.81379
-0.0418256
4.81335
-0.0407828
4.81279
-0.0397944
4.8121
-0.0388574
4.81127
-0.0379714
4.8103
-0.0371336
4.80919
-0.0363444
4.80793
-0.0355999
4.80652
-0.0349018
4.80496
-0.0342456
4.80325
-0.0336335
4.80139
-0.0330606
4.79938
-0.0325296
4.79722
-0.0320357
4.79491
-0.0315825
4.79247
-0.0311647
4.78989
-0.0307891
4.7872
-0.0304509
4.78442
-0.0301647
4.78156
-0.0299388
4.77868
-0.0298204
4.77583
-0.0298498
-0.0304142
5.15149
-0.429545
-5.20697
5.10012
-0.450764
5.05198
-0.468672
5.00868
-0.479936
4.97048
-0.484613
4.93707
-0.484232
4.90808
-0.480148
4.88308
-0.473304
4.86168
-0.464398
4.84346
-0.453999
4.82807
-0.442567
4.81515
-0.43046
4.80439
-0.417948
4.79552
-0.405231
4.78829
-0.392456
4.78249
-0.379731
4.77793
-0.367136
4.77444
-0.354729
4.77187
-0.342552
4.77011
-0.330635
4.76904
-0.318999
4.76857
-0.307656
4.7686
-0.296619
4.76907
-0.285891
4.76992
-0.275476
4.77108
-0.265377
4.7725
-0.255593
4.77415
-0.246121
4.77598
-0.236959
4.77795
-0.228102
4.78005
-0.219546
4.78223
-0.211287
4.78449
-0.203318
4.7868
-0.195636
4.78914
-0.188233
4.7915
-0.181103
4.79386
-0.174239
4.79622
-0.167636
4.79856
-0.161284
4.80087
-0.155178
4.80315
-0.14931
4.8054
-0.143672
4.8076
-0.138258
4.80976
-0.13306
4.81187
-0.128071
4.81393
-0.123284
4.81593
-0.118692
4.81788
-0.114288
4.81977
-0.110066
4.82161
-0.106019
4.82339
-0.102141
4.82512
-0.0984246
4.82678
-0.0948643
4.8284
-0.0914543
4.82995
-0.088189
4.83145
-0.0850629
4.8329
-0.0820705
4.8343
-0.0792065
4.83565
-0.0764662
4.83694
-0.0738446
4.83819
-0.0713371
4.83938
-0.0689391
4.84054
-0.0666464
4.84164
-0.0644546
4.8427
-0.0623601
4.84372
-0.0603587
4.8447
-0.0584469
4.84564
-0.056621
4.84654
-0.0548777
4.8474
-0.0532138
4.84822
-0.0516259
4.84901
-0.0501113
4.84976
-0.0486671
4.85048
-0.0472907
4.85116
-0.0459793
4.85181
-0.0447306
4.85243
-0.0435422
4.85302
-0.0424118
4.85357
-0.0413373
4.85409
-0.0403169
4.85458
-0.0393484
4.85504
-0.0384303
4.85547
-0.0375608
4.85586
-0.0367386
4.85622
-0.0359616
4.85655
-0.0352293
4.85684
-0.0345391
4.8571
-0.0338913
4.85732
-0.0332831
4.85751
-0.0327152
4.85766
-0.0321849
4.85777
-0.0316941
4.85784
-0.0312407
4.85788
-0.0308288
4.85789
-0.03046
4.85787
-0.0301446
4.85783
-0.0298948
4.85775
-0.0297388
4.85762
-0.0297282
-0.0300052
5.17694
-0.37567
-5.23084
5.12811
-0.40195
5.08286
-0.423434
5.0417
-0.438793
5.00493
-0.447852
4.97241
-0.451723
4.94387
-0.45162
4.91902
-0.448457
4.89753
-0.442916
4.87908
-0.435557
4.86336
-0.426845
4.85004
-0.417151
4.83886
-0.406768
4.82955
-0.395921
4.82188
-0.384783
4.81563
-0.373488
4.81064
-0.362139
4.80672
-0.350816
4.80375
-0.33958
4.8016
-0.328478
4.80015
-0.317546
4.79931
-0.306813
4.79899
-0.296298
4.79913
-0.28602
4.79964
-0.275989
4.80049
-0.266216
4.8016
-0.256708
4.80296
-0.247467
4.8045
-0.238497
4.8062
-0.229799
4.80803
-0.221372
4.80996
-0.213215
4.81198
-0.205326
4.81405
-0.197703
4.81616
-0.190342
4.8183
-0.183238
4.82045
-0.176388
4.82261
-0.169786
4.82475
-0.163426
4.82688
-0.157303
4.82899
-0.151411
4.83106
-0.145743
4.8331
-0.140294
4.8351
-0.135057
4.83706
-0.130026
4.83897
-0.125194
4.84084
-0.120555
4.84265
-0.116102
4.84442
-0.111831
4.84614
-0.107733
4.8478
-0.103804
4.84942
-0.100036
4.85098
-0.0964255
4.85249
-0.0929651
4.85396
-0.08965
4.85537
-0.0864748
4.85673
-0.0834342
4.85805
-0.080523
4.85932
-0.0777364
4.86055
-0.0750697
4.86173
-0.0725183
4.86287
-0.0700776
4.86397
-0.0677435
4.86503
-0.0655117
4.86604
-0.0633783
4.86703
-0.0613395
4.86797
-0.0593916
4.86888
-0.0575309
4.86976
-0.0557542
4.8706
-0.0540581
4.87142
-0.0524395
4.8722
-0.0508954
4.87296
-0.049423
4.87368
-0.0480196
4.87439
-0.0466826
4.87507
-0.0454095
4.87572
-0.0441978
4.87636
-0.0430455
4.87697
-0.0419503
4.87756
-0.0409103
4.87814
-0.0399235
4.87869
-0.0389883
4.87924
-0.0381029
4.87976
-0.037266
4.88028
-0.0364757
4.88078
-0.035731
4.88127
-0.0350305
4.88175
-0.0343731
4.88222
-0.0337577
4.88269
-0.0331838
4.88316
-0.0326505
4.88362
-0.0321582
4.88409
-0.0317074
4.88456
-0.0313006
4.88504
-0.0309416
4.88553
-0.0306379
4.88604
-0.0304009
4.88655
-0.0302491
4.88703
-0.0302077
-0.0302965
5.19154
-0.324317
-5.24291
5.14514
-0.355565
5.10249
-0.380798
5.06357
-0.399876
5.02857
-0.412865
4.99746
-0.420622
4.97002
-0.424196
4.94601
-0.424446
4.92512
-0.42204
4.90709
-0.417529
4.89162
-0.411377
4.87843
-0.403968
4.86727
-0.395611
4.8579
-0.386553
4.85011
-0.37699
4.84369
-0.367077
4.83849
-0.356938
4.83435
-0.346671
4.83113
-0.336356
4.82871
-0.326056
4.82698
-0.31582
4.82586
-0.305689
4.82526
-0.295696
4.82512
-0.285866
4.82535
-0.276221
4.82592
-0.266776
4.82676
-0.257547
4.82784
-0.248543
4.82912
-0.239771
4.83056
-0.231236
4.83214
-0.222944
4.83383
-0.214896
4.8356
-0.207094
4.83744
-0.199536
4.83932
-0.192224
4.84124
-0.185153
4.84318
-0.178323
4.84513
-0.171729
4.84707
-0.165368
4.84901
-0.159235
4.85093
-0.153325
4.85282
-0.147634
4.85469
-0.142157
4.85652
-0.136887
4.85832
-0.13182
4.86008
-0.126949
4.8618
-0.122269
4.86347
-0.117774
4.8651
-0.113458
4.86668
-0.109315
4.86822
-0.10534
4.86972
-0.101527
4.87116
-0.0978703
4.87257
-0.0943645
4.87392
-0.0910042
4.87523
-0.0877844
4.8765
-0.0846998
4.87772
-0.0817455
4.87891
-0.0789168
4.88005
-0.0762088
4.88115
-0.0736172
4.88221
-0.0711374
4.88323
-0.0687652
4.88421
-0.0664966
4.88516
-0.0643276
4.88608
-0.0622544
4.88696
-0.0602732
4.88781
-0.0583806
4.88863
-0.0565732
4.88942
-0.0548477
4.89018
-0.0532009
4.89092
-0.0516298
4.89163
-0.0501317
4.89231
-0.0487038
4.89297
-0.0473435
4.89361
-0.0460483
4.89423
-0.0448158
4.89483
-0.0436438
4.89541
-0.0425302
4.89597
-0.041473
4.89651
-0.0404703
4.89705
-0.0395204
4.89756
-0.0386217
4.89807
-0.0377725
4.89857
-0.0369716
4.89905
-0.0362175
4.89953
-0.0355091
4.9
-0.0348454
4.90047
-0.0342255
4.90094
-0.0336489
4.9014
-0.0331152
4.90187
-0.0326249
4.90234
-0.0321789
4.90282
-0.0317796
4.9033
-0.0314306
4.9038
-0.0311382
4.90431
-0.0309109
4.90482
-0.0307595
4.90531
-0.030693
-0.0307003
5.19928
-0.276383
-5.24722
5.15584
-0.312138
5.11603
-0.340996
5.07962
-0.363469
5.04669
-0.379944
5.01723