/*--------------------------------*- C++ -*----------------------------------*\
  =========                 |
  \\      /  F ield         | OpenFOAM: The Open Source CFD Toolbox
   \\    /   O peration     | Website:  https://openfoam.org
    \\  /    A nd           | Version:  8
     \\/     M anipulation  |
\*---------------------------------------------------------------------------*/
FoamFile
{
    version     2.0;
    format      ascii;
    class       volScalarField;
    location    "2.0000073";
    object      T;
}
// * * * * * * * * * * * * * * * * * * * * * * * * * * * * * * * * * * * * * //

dimensions      [0 0 0 1 0 0 0];

internalField   nonuniform List<scalar> 
6800
(
375.323
375.399
375.097
374.32
373.556
373.162
372.902
372.794
372.705
372.603
375.336
375.22
374.355
373.431
372.992
372.728
372.554
372.458
372.369
372.359
375.178
374.53
373.355
372.823
372.468
372.282
372.19
372.187
372.206
372.244
374.576
373.494
372.693
372.178
371.978
371.943
371.96
372.003
372.037
372.057
373.774
372.538
371.792
371.58
371.573
371.621
371.693
371.763
371.833
371.928
372.763
371.396
371.148
371.086
371.182
371.327
371.47
371.599
371.716
371.818
371.711
370.48
370.433
370.565
370.838
371.063
371.252
371.405
371.541
371.672
370.632
369.546
369.862
370.217
370.549
370.828
371.068
371.27
371.442
371.59
369.66
368.861
369.388
369.839
370.29
370.644
370.922
371.148
371.337
371.504
368.802
368.268
369.046
369.629
370.128
370.515
370.826
371.075
371.28
371.463
376.098
376.063
376.045
376.029
376.018
376.018
376.033
376.059
376.095
376.136
376.077
376.049
376.03
376.012
375.998
375.995
376.007
376.037
376.081
376.127
376.022
375.992
375.991
375.972
375.953
375.946
375.956
375.985
376.027
376.09
375.943
375.948
375.949
375.922
375.885
375.862
375.859
375.879
375.911
375.996
375.914
375.928
375.913
375.856
375.776
375.726
375.719
375.732
375.733
375.801
375.909
375.929
375.88
375.738
375.623
375.576
375.558
375.535
375.485
375.453
375.929
375.924
375.797
375.572
375.497
375.443
375.374
375.231
375.094
374.799
375.98
375.913
375.574
375.481
375.402
375.243
374.984
374.635
374.325
373.894
375.925
375.752
375.461
375.38
375.145
374.706
374.188
373.785
373.42
373.231
375.649
375.47
375.392
375.094
374.466
373.825
373.395
373.108
372.991
372.92
376.19
376.243
376.279
376.302
376.316
376.321
376.32
376.315
376.306
376.294
376.279
376.262
376.243
376.223
376.201
376.179
376.156
376.133
376.109
376.085
376.061
376.036
376.01
375.984
375.958
375.932
375.905
375.879
375.852
375.827
375.801
375.777
375.753
375.729
375.707
375.685
375.664
375.644
375.624
375.605
375.586
375.567
375.549
375.53
375.512
375.493
375.475
375.456
375.438
375.419
375.401
375.382
375.364
375.346
375.328
375.31
375.293
375.276
375.26
375.244
375.229
375.214
375.199
375.185
375.172
375.159
375.146
375.134
375.122
375.11
375.099
375.088
375.077
375.066
375.055
375.044
375.034
375.023
375.013
375.002
374.992
374.982
374.971
374.961
374.951
374.941
374.931
374.921
374.912
374.902
374.893
374.883
374.874
374.865
374.855
374.847
374.838
374.83
374.82
374.812
376.184
376.242
376.283
376.311
376.328
376.336
376.336
376.333
376.325
376.312
376.297
376.28
376.26
376.24
376.218
376.196
376.172
376.148
376.124
376.099
376.074
376.048
376.021
375.995
375.968
375.941
375.914
375.887
375.86
375.834
375.808
375.783
375.759
375.736
375.713
375.691
375.67
375.649
375.629
375.609
375.59
375.571
375.552
375.533
375.514
375.496
375.477
375.458
375.439
375.42
375.402
375.383
375.365
375.347
375.329
375.311
375.294
375.277
375.261
375.245
375.23
375.215
375.201
375.187
375.174
375.161
375.148
375.136
375.124
375.112
375.101
375.09
375.078
375.068
375.057
375.046
375.035
375.025
375.014
375.004
374.993
374.983
374.973
374.963
374.953
374.943
374.933
374.923
374.913
374.904
374.894
374.885
374.875
374.866
374.857
374.849
374.839
374.832
374.822
374.814
376.153
376.225
376.278
376.314
376.337
376.348
376.351
376.349
376.341
376.329
376.313
376.295
376.276
376.254
376.232
376.208
376.184
376.159
376.133
376.107
376.08
376.053
376.025
375.997
375.969
375.942
375.914
375.886
375.859
375.833
375.807
375.782
375.757
375.734
375.711
375.689
375.667
375.646
375.626
375.605
375.586
375.566
375.547
375.528
375.508
375.489
375.47
375.451
375.432
375.414
375.395
375.376
375.358
375.34
375.323
375.305
375.289
375.272
375.256
375.241
375.226
375.212
375.198
375.184
375.171
375.158
375.146
375.133
375.122
375.11
375.099
375.088
375.077
375.066
375.055
375.044
375.034
375.023
375.013
375.002
374.992
374.982
374.972
374.962
374.952
374.942
374.932
374.922
374.913
374.903
374.894
374.885
374.876
374.867
374.858
374.849
374.84
374.832
374.823
374.814
376.067
376.162
376.23
376.275
376.304
376.319
376.325
376.323
376.316
376.303
376.287
376.267
376.246
376.223
376.199
376.173
376.148
376.121
376.094
376.066
376.038
376.01
375.982
375.954
375.925
375.897
375.87
375.843
375.816
375.79
375.765
375.74
375.716
375.693
375.671
375.649
375.628
375.607
375.587
375.567
375.548
375.529
375.51
375.491
375.472
375.454
375.435
375.417
375.399
375.381
375.363
375.345
375.328
375.311
375.294
375.278
375.262
375.247
375.232
375.217
375.203
375.189
375.176
375.163
375.151
375.138
375.127
375.115
375.104
375.093
375.082
375.071
375.061
375.05
375.04
375.03
375.019
375.009
374.999
374.989
374.979
374.97
374.96
374.95
374.941
374.931
374.922
374.913
374.903
374.894
374.885
374.876
374.868
374.859
374.851
374.842
374.834
374.826
374.818
374.808
375.859
375.963
376.04
376.089
376.119
376.135
376.143
376.142
376.136
376.124
376.108
376.089
376.068
376.046
376.023
375.999
375.974
375.949
375.923
375.898
375.872
375.846
375.82
375.794
375.769
375.744
375.72
375.696
375.673
375.651
375.629
375.608
375.587
375.568
375.549
375.53
375.512
375.494
375.476
375.459
375.442
375.425
375.408
375.392
375.375
375.359
375.343
375.327
375.311
375.295
375.279
375.264
375.249
375.234
375.22
375.206
375.192
375.179
375.166
375.154
375.142
375.13
375.118
375.107
375.096
375.086
375.075
375.065
375.055
375.045
375.036
375.026
375.017
375.007
374.998
374.989
374.98
374.97
374.961
374.952
374.944
374.935
374.926
374.917
374.909
374.9
374.891
374.883
374.875
374.866
374.858
374.85
374.842
374.834
374.827
374.819
374.811
374.804
374.797
374.787
375.457
375.523
375.581
375.611
375.621
375.624
375.623
375.617
375.607
375.595
375.582
375.567
375.553
375.538
375.523
375.509
375.494
375.48
375.466
375.452
375.439
375.425
375.412
375.399
375.386
375.374
375.362
375.35
375.339
375.328
375.317
375.306
375.296
375.286
375.275
375.265
375.255
375.245
375.235
375.225
375.215
375.204
375.194
375.184
375.173
375.163
375.153
375.142
375.132
375.121
375.111
375.101
375.091
375.081
375.071
375.062
375.053
375.043
375.035
375.026
375.017
375.009
375.001
374.993
374.985
374.977
374.97
374.962
374.955
374.948
374.94
374.933
374.926
374.919
374.912
374.905
374.898
374.891
374.884
374.877
374.87
374.862
374.856
374.849
374.842
374.835
374.828
374.821
374.814
374.808
374.801
374.794
374.788
374.781
374.775
374.768
374.762
374.755
374.75
374.741
374.753
374.792
374.827
374.832
374.829
374.821
374.806
374.794
374.778
374.761
374.746
374.731
374.717
374.704
374.693
374.684
374.675
374.669
374.664
374.661
374.66
374.66
374.662
374.665
374.67
374.676
374.683
374.691
374.7
374.709
374.718
374.727
374.736
374.745
374.753
374.76
374.768
374.774
374.78
374.785
374.79
374.794
374.798
374.801
374.803
374.805
374.806
374.807
374.808
374.808
374.808
374.808
374.807
374.806
374.805
374.804
374.803
374.801
374.799
374.798
374.796
374.794
374.791
374.789
374.787
374.785
374.782
374.78
374.777
374.774
374.771
374.768
374.765
374.762
374.759
374.756
374.752
374.749
374.745
374.742
374.738
374.734
374.73
374.726
374.722
374.718
374.714
374.71
374.706
374.702
374.697
374.693
374.689
374.685
374.681
374.676
374.672
374.667
374.663
374.656
373.86
373.916
373.969
374.005
374.027
374.042
374.052
374.06
374.064
374.066
374.066
374.064
374.061
374.057
374.053
374.048
374.043
374.038
374.034
374.029
374.025
374.022
374.019
374.016
374.015
374.014
374.014
374.015
374.017
374.02
374.024
374.03
374.037
374.045
374.055
374.065
374.077
374.09
374.103
374.118
374.133
374.149
374.165
374.182
374.199
374.216
374.233
374.25
374.267
374.284
374.3
374.316
374.331
374.345
374.359
374.372
374.384
374.395
374.406
374.416
374.426
374.435
374.443
374.451
374.458
374.465
374.471
374.477
374.482
374.487
374.492
374.496
374.5
374.504
374.507
374.51
374.513
374.515
374.518
374.519
374.521
374.523
374.524
374.525
374.526
374.526
374.526
374.527
374.527
374.527
374.526
374.526
374.525
374.524
374.524
374.523
374.522
374.52
374.519
374.515
373.227
373.337
373.415
373.487
373.543
373.589
373.625
373.656
373.681
373.701
373.716
373.728
373.736
373.742
373.746
373.747
373.747
373.746
373.744
373.741
373.737
373.733
373.727
373.722
373.716
373.711
373.705
373.699
373.693
373.687
373.682
373.677
373.672
373.667
373.663
373.66
373.657
373.655
373.654
373.654
373.655
373.656
373.658
373.661
373.665
373.67
373.676
373.683
373.691
373.7
373.71
373.72
373.732
373.746
373.76
373.775
373.79
373.807
373.824
373.842
373.86
373.879
373.898
373.916
373.935
373.954
373.973
373.991
374.009
374.027
374.044
374.061
374.077
374.092
374.107
374.12
374.134
374.146
374.158
374.169
374.179
374.189
374.199
374.207
374.216
374.223
374.231
374.238
374.244
374.25
374.256
374.262
374.267
374.272
374.277
374.28
374.285
374.288
374.292
374.294
372.951
373.016
373.102
373.182
373.251
373.309
373.358
373.399
373.433
373.461
373.484
373.502
373.516
373.526
373.534
373.539
373.542
373.544
373.544
373.543
373.542
373.539
373.535
373.531
373.527
373.522
373.517
373.512
373.507
373.501
373.496
373.49
373.484
373.479
373.473
373.468
373.463
373.458
373.454
373.449
373.445
373.441
373.438
373.434
373.431
373.428
373.426
373.424
373.422
373.42
373.419
373.419
373.418
373.418
373.419
373.42
373.422
373.424
373.426
373.43
373.434
373.439
373.444
373.451
373.458
373.466
373.474
373.483
373.494
373.505
373.516
373.529
373.542
373.556
373.57
373.585
373.601
373.617
373.633
373.651
373.668
373.685
373.702
373.72
373.737
373.755
373.771
373.789
373.805
373.821
373.836
373.852
373.866
373.881
373.893
373.908
373.918
373.932
373.94
373.955
372.608
372.709
372.811
372.906
372.99
373.062
373.123
373.175
373.219
373.255
373.286
373.312
373.333
373.35
373.364
373.376
373.385
373.392
373.397
373.401
373.403
373.404
373.405
373.404
373.403
373.401
373.399
373.396
373.393
373.389
373.385
373.382
373.377
373.373
373.369
373.365
373.361
373.356
373.352
373.348
373.344
373.341
373.337
373.333
373.33
373.327
373.323
373.32
373.317
373.314
373.311
373.308
373.306
373.303
373.301
373.298
373.296
373.294
373.292
373.291
373.289
373.288
373.287
373.286
373.285
373.284
373.284
373.284
373.284
373.285
373.286
373.287
373.288
373.29
373.292
373.295
373.297
373.301
373.304
373.309
373.313
373.319
373.324
373.331
373.337
373.345
373.352
373.362
373.37
373.38
373.389
373.401
373.41
373.424
373.433
373.448
373.458
373.473
373.482
373.504
372.547
372.646
372.741
372.83
372.908
372.976
373.035
373.086
373.13
373.168
373.201
373.228
373.251
373.271
373.287
373.301
373.311
373.32
373.327
373.333
373.336
373.339
373.341
373.342
373.341
373.341
373.34
373.338
373.335
373.333
373.329
373.326
373.323
373.319
373.315
373.312
373.308
373.304
373.3
373.297
373.293
373.289
373.286
373.283
373.279
373.276
373.273
373.27
373.267
373.264
373.261
373.258
373.255
373.252
373.249
373.247
373.244
373.242
373.239
373.237
373.235
373.233
373.231
373.229
373.227
373.225
373.223
373.222
373.22
373.219
373.218
373.217
373.215
373.214
373.213
373.212
373.212
373.211
373.21
373.21
373.209
373.209
373.209
373.208
373.208
373.209
373.209
373.209
373.21
373.211
373.211
373.213
373.213
373.215
373.216
373.219
373.22
373.223
373.226
373.229
372.516
372.611
372.703
372.786
372.861
372.927
372.985
373.035
373.079
373.117
373.149
373.177
373.201
373.22
373.237
373.251
373.262
373.271
373.278
373.284
373.288
373.291
373.293
373.294
373.294
373.293
373.292
373.29
373.288
373.286
373.283
373.28
373.277
373.273
373.27
373.266
373.263
373.259
373.255
373.252
373.249
373.245
373.242
373.239
373.235
373.232
373.229
373.227
373.224
373.221
373.218
373.215
373.213
373.21
373.207
373.205
373.202
373.2
373.198
373.196
373.193
373.191
373.189
373.188
373.186
373.184
373.182
373.181
373.179
373.178
373.176
373.175
373.174
373.173
373.171
373.17
373.169
373.168
373.167
373.166
373.165
373.165
373.164
373.163
373.162
373.162
373.161
373.16
373.159
373.159
373.158
373.157
373.156
373.156
373.155
373.154
373.153
373.153
373.152
373.152
372.5
372.591
372.678
372.757
372.827
372.89
372.945
372.993
373.035
373.072
373.103
373.13
373.154
373.173
373.19
373.203
373.215
373.224
373.232
373.238
373.243
373.246
373.248
373.25
373.25
373.25
373.25
373.249
373.247
373.245
373.243
373.24
373.237
373.234
373.231
373.228
373.225
373.221
373.218
373.215
373.212
373.209
373.206
373.203
373.2
373.197
373.195
373.192
373.189
373.187
373.184
373.182
373.179
373.177
373.174
373.172
373.17
373.167
373.165
373.163
373.161
373.159
373.157
373.156
373.154
373.152
373.151
373.149
373.148
373.146
373.145
373.144
373.143
373.141
373.14
373.139
373.138
373.137
373.136
373.135
373.135
373.134
373.133
373.132
373.131
373.13
373.13
373.129
373.128
373.127
373.126
373.126
373.125
373.124
373.123
373.122
373.121
373.121
373.12
373.119
372.496
372.58
372.663
372.737
372.802
372.861
372.913
372.959
373
373.035
373.066
373.092
373.115
373.135
373.151
373.165
373.177
373.186
373.194
373.201
373.205
373.209
373.212
373.214
373.215
373.215
373.215
373.214
373.213
373.211
373.209
373.207
373.204
373.202
373.199
373.196
373.193
373.19
373.187
373.184
373.181
373.178
373.176
373.173
373.17
373.168
373.165
373.163
373.16
373.158
373.155
373.153
373.151
373.148
373.146
373.144
373.142
373.14
373.138
373.136
373.134
373.132
373.13
373.129
373.127
373.126
373.124
373.123
373.121
373.12
373.119
373.118
373.117
373.116
373.114
373.113
373.113
373.112
373.111
373.11
373.109
373.108
373.107
373.107
373.106
373.105
373.104
373.104
373.103
373.102
373.101
373.101
373.1
373.099
373.098
373.097
373.097
373.096
373.095
373.094
372.501
372.579
372.655
372.724
372.785
372.84
372.889
372.933
372.971
373.005
373.035
373.06
373.083
373.102
373.118
373.131
373.143
373.153
373.16
373.167
373.172
373.176
373.179
373.181
373.182
373.183
373.183
373.182
373.181
373.18
373.178
373.176
373.174
373.172
373.169
373.167
373.164
373.162
373.159
373.156
373.154
373.151
373.149
373.146
373.144
373.141
373.139
373.137
373.135
373.132
373.13
373.128
373.126
373.124
373.122
373.12
373.118
373.116
373.114
373.112
373.11
373.109
373.107
373.106
373.104
373.103
373.101
373.1
373.099
373.098
373.096
373.095
373.094
373.093
373.092
373.091
373.09
373.09
373.089
373.088
373.087
373.086
373.086
373.085
373.084
373.084
373.083
373.082
373.082
373.081
373.08
373.079
373.079
373.078
373.077
373.076
373.076
373.075
373.074
373.073
372.513
372.583
372.654
372.718
372.774
372.825
372.871
372.912
372.948
372.98
373.009
373.033
373.055
373.073
373.089
373.102
373.114
373.123
373.131
373.137
373.143
373.147
373.15
373.152
373.154
373.154
373.155
373.154
373.154
373.153
373.151
373.15
373.148
373.146
373.144
373.141
373.139
373.137
373.134
373.132
373.13
373.127
373.125
373.123
373.121
373.118
373.116
373.114
373.112
373.11
373.108
373.106
373.104
373.102
373.1
373.099
373.097
373.095
373.093
373.092
373.09
373.089
373.087
373.086
373.084
373.083
373.082
373.081
373.079
373.078
373.077
373.076
373.075
373.074
373.073
373.073
373.072
373.071
373.07
373.069
373.069
373.068
373.067
373.067
373.066
373.065
373.065
373.064
373.064
373.063
373.062
373.062
373.061
373.06
373.06
373.059
373.058
373.057
373.057
373.056
372.531
372.594
372.659
372.717
372.769
372.816
372.859
372.897
372.931
372.961
372.988
373.011
373.031
373.049
373.064
373.077
373.088
373.098
373.105
373.112
373.117
373.121
373.124
373.127
373.128
373.13
373.13
373.13
373.13
373.129
373.128
373.126
373.125
373.123
373.121
373.119
373.117
373.115
373.113
373.111
373.109
373.107
373.105
373.103
373.101
373.099
373.097
373.095
373.093
373.091
373.089
373.088
373.086
373.084
373.082
373.081
373.079
373.077
373.076
373.074
373.073
373.072
373.07
373.069
373.068
373.066
373.065
373.064
373.063
373.062
373.061
373.06
373.059
373.058
373.058
373.057
373.056
373.055
373.055
373.054
373.053
373.053
373.052
373.052
373.051
373.05
373.05
373.049
373.049
373.048
373.047
373.047
373.046
373.046
373.045
373.044
373.044
373.043
373.042
373.042
372.554
372.61
372.669
372.722
372.769
372.812
372.851
372.887
372.918
372.946
372.971
372.993
373.012
373.029
373.044
373.056
373.067
373.076
373.083
373.09
373.095
373.099
373.102
373.105
373.107
373.108
373.109
373.109
373.109
373.108
373.107
373.106
373.105
373.103
373.102
373.1
373.098
373.096
373.094
373.092
373.091
373.089
373.087
373.085
373.083
373.082
373.08
373.078
373.077
373.075
373.073
373.072
373.07
373.069
373.067
373.065
373.064
373.063
373.061
373.06
373.059
373.057
373.056
373.055
373.054
373.053
373.051
373.051
373.05
373.049
373.048
373.047
373.046
373.045
373.045
373.044
373.043
373.043
373.042
373.041
373.041
373.04
373.04
373.039
373.039
373.038
373.037
373.037
373.036
373.036
373.035
373.035
373.034
373.034
373.033
373.033
373.032
373.031
373.031
373.03
372.581
372.632
372.684
372.732
372.775
372.813
372.849
372.881
372.91
372.936
372.959
372.98
372.998
373.014
373.027
373.039
373.049
373.058
373.065
373.071
373.076
373.08
373.084
373.086
373.088
373.089
373.09
373.09
373.09
373.09
373.09
373.089
373.088
373.086
373.085
373.083
373.082
373.08
373.079
373.077
373.075
373.074
373.072
373.07
373.069
373.067
373.066
373.064
373.063
373.061
373.06
373.059
373.057
373.056
373.054
373.053
373.052
373.05
373.049
373.048
373.047
373.046
373.044
373.043
373.042
373.041
373.04
373.039
373.039
373.038
373.037
373.036
373.035
373.035
373.034
373.034
373.033
373.032
373.032
373.031
373.031
373.03
373.03
373.029
373.029
373.028
373.028
373.027
373.027
373.026
373.026
373.025
373.025
373.024
373.024
373.023
373.023
373.022
373.022
373.021
372.613
372.657
372.703
372.746
372.784
372.819
372.851
372.881
372.907
372.931
372.952
372.971
372.987
373.002
373.015
373.026
373.035
373.043
373.05
373.056
373.061
373.065
373.068
373.07
373.072
373.074
373.075
373.075
373.075
373.075
373.075
373.074
373.073
373.072
373.071
373.07
373.068
373.067
373.065
373.064
373.062
373.061
373.06
373.058
373.057
373.055
373.054
373.053
373.051
373.05
373.049
373.048
373.046
373.045
373.044
373.043
373.042
373.04
373.039
373.038
373.037
373.036
373.035
373.034
373.033
373.032
373.031
373.031
373.03
373.029
373.028
373.028
373.027
373.026
373.026
373.025
373.025
373.024
373.024
373.023
373.023
373.022
373.022
373.021
373.021
373.021
373.02
373.02
373.019
373.019
373.018
373.018
373.017
373.017
373.017
373.016
373.016
373.015
373.015
373.014
372.649
372.687
372.727
372.765
372.798
372.829
372.858
372.884
372.908
372.929
372.948
372.965
372.981
372.994
373.005
373.016
373.024
373.032
373.038
373.044
373.048
373.052
373.055
373.057
373.059
373.061
373.062
373.062
373.062
373.062
373.062
373.061
373.061
373.06
373.059
373.058
373.056
373.055
373.054
373.053
373.052
373.05
373.049
373.048
373.047
373.045
373.044
373.043
373.042
373.041
373.04
373.039
373.038
373.036
373.035
373.034
373.033
373.032
373.031
373.03
373.029
373.028
373.028
373.027
373.026
373.025
373.024
373.024
373.023
373.022
373.022
373.021
373.02
373.02
373.019
373.019
373.018
373.018
373.017
373.017
373.017
373.016
373.016
373.015
373.015
373.015
373.014
373.014
373.013
373.013
373.013
373.012
373.012
373.012
373.011
373.011
373.01
373.01
373.009
373.009
372.687
372.719
372.754
372.786
372.816
372.843
372.868
372.891
372.912
372.931
372.948
372.963
372.977
372.988
372.999
373.008
373.016
373.023
373.029
373.034
373.038
373.041
373.044
373.046
373.048
373.049
373.05
373.051
373.051
373.051
373.051
373.051
373.05
373.049
373.048
373.048
373.047
373.046
373.045
373.043
373.042
373.041
373.04
373.039
373.038
373.037
373.036
373.035
373.034
373.033
373.032
373.031
373.03
373.029
373.028
373.027
373.026
373.026
373.025
373.024
373.023
373.022
373.021
373.021
373.02
373.019
373.019
373.018
373.017
373.017
373.016
373.016
373.015
373.015
373.014
373.014
373.013
373.013
373.013
373.012
373.012
373.011
373.011
373.011
373.01
373.01
373.01
373.009
373.009
373.009
373.008
373.008
373.008
373.007
373.007
373.007
373.006
373.006
373.005
373.005
372.726
372.753
372.783
372.811
372.836
372.859
372.881
372.901
372.919
372.935
372.95
372.963
372.975
372.986
372.995
373.003
373.01
373.016
373.021
373.026
373.029
373.032
373.035
373.037
373.039
373.04
373.041
373.041
373.042
373.042
373.042
373.041
373.041
373.04
373.04
373.039
373.038
373.037
373.036
373.035
373.034
373.033
373.033
373.032
373.031
373.03
373.029
373.028
373.027
373.026
373.026
373.025
373.024
373.023
373.022
373.022
373.021
373.02
373.019
373.018
373.018
373.017
373.016
373.016
373.015
373.014
373.014
373.013
373.013
373.012
373.012
373.011
373.011
373.01
373.01
373.01
373.009
373.009
373.008
373.008
373.008
373.008
373.007
373.007
373.007
373.006
373.006
373.006
373.005
373.005
373.005
373.005
373.004
373.004
373.004
373.003
373.003
373.003
373.002
373.002
372.767
372.789
372.814
372.837
372.858
372.877
372.896
372.912
372.928
372.942
372.954
372.966
372.976
372.985
372.993
373
373.006
373.011
373.015
373.019
373.022
373.025
373.027
373.029
373.031
373.032
373.032
373.033
373.033
373.033
373.033
373.033
373.033
373.032
373.032
373.031
373.03
373.03
373.029
373.028
373.027
373.026
373.026
373.025
373.024
373.023
373.022
373.022
373.021
373.02
373.02
373.019
373.018
373.017
373.017
373.016
373.015
373.015
373.014
373.013
373.013
373.012
373.012
373.011
373.01
373.01
373.009
373.009
373.008
373.008
373.008
373.007
373.007
373.006
373.006
373.006
373.005
373.005
373.005
373.004
373.004
373.004
373.004
373.003
373.003
373.003
373.003
373.002
373.002
373.002
373.002
373.001
373.001
373.001
373
373
373
373
372.999
372.999
372.81
372.827
372.847
372.865
372.882
372.898
372.913
372.926
372.939
372.95
372.961
372.97
372.978
372.986
372.992
372.998
373.003
373.007
373.011
373.014
373.017
373.019
373.021
373.022
373.023
373.024
373.025
373.025
373.026
373.026
373.026
373.025
373.025
373.024
373.024
373.023
373.023
373.022
373.021
373.021
373.02
373.019
373.019
373.018
373.017
373.017
373.016
373.015
373.015
373.014
373.013
373.013
373.012
373.012
373.011
373.01
373.01
373.009
373.009
373.008
373.008
373.007
373.007
373.006
373.006
373.005
373.005
373.004
373.004
373.004
373.003
373.003
373.003
373.002
373.002
373.002
373.001
373.001
373.001
373.001
373
373
373
373
372.999
372.999
372.999
372.999
372.999
372.998
372.998
372.998
372.998
372.998
372.997
372.997
372.997
372.997
372.996
372.996
372.851
372.865
372.879
372.894
372.907
372.919
372.93
372.941
372.951
372.96
372.968
372.975
372.981
372.987
372.992
372.997
373
373.004
373.007
373.009
373.011
373.013
373.014
373.015
373.016
373.017
373.017
373.017
373.017
373.017
373.017
373.017
373.016
373.016
373.016
373.015
373.014
373.014
373.013
373.013
373.012
373.011
373.011
373.01
373.01
373.009
373.009
373.008
373.007
373.007
373.006
373.006
373.005
373.005
373.005
373.004
373.004
373.003
373.003
373.002
373.002
373.002
373.001
373.001
373
373
373
372.999
372.999
372.999
372.999
372.998
372.998
372.998
372.998
372.997
372.997
372.997
372.997
372.997
372.996
372.996
372.996
372.996
372.996
372.996
372.995
372.995
372.995
372.995
372.995
372.995
372.994
372.994
372.994
372.994
372.994
372.994
372.993
372.993
372.894
372.903
372.914
372.924
372.933
372.942
372.95
372.957
372.964
372.971
372.976
372.981
372.985
372.989
372.992
372.995
372.998
373
373.002
373.003
373.005
373.005
373.006
373.007
373.007
373.008
373.008
373.008
373.008
373.008
373.007
373.007
373.007
373.006
373.006
373.005
373.005
373.005
373.004
373.004
373.003
373.003
373.002
373.002
373.001
373.001
373.001
373
373
373
372.999
372.999
372.999
372.998
372.998
372.998
372.998
372.997
372.997
372.997
372.997
372.996
372.996
372.996
372.996
372.996
372.995
372.995
372.995
372.995
372.995
372.994
372.994
372.994
372.994
372.994
372.994
372.994
372.994
372.993
372.993
372.993
372.993
372.993
372.993
372.993
372.993
372.993
372.993
372.993
372.993
372.992
372.992
372.992
372.992
372.992
372.992
372.992
372.992
372.992
372.937
372.942
372.948
372.954
372.959
372.964
372.968
372.972
372.976
372.978
372.981
372.983
372.986
372.987
372.989
372.99
372.991
372.992
372.993
372.994
372.994
372.995
372.995
372.995
372.996
372.996
372.996
372.996
372.996
372.996
372.996
372.996
372.996
372.996
372.996
372.996
372.996
372.996
372.996
372.996
372.996
372.996
372.995
372.995
372.995
372.995
372.995
372.995
372.995
372.995
372.995
372.995
372.994
372.994
372.994
372.994
372.994
372.994
372.994
372.994
372.994
372.994
372.994
372.994
372.994
372.993
372.993
372.993
372.993
372.993
372.993
372.993
372.993
372.993
372.993
372.993
372.993
372.993
372.993
372.993
372.993
372.992
372.992
372.992
372.992
372.992
372.992
372.992
372.992
372.992
372.992
372.992
372.992
372.992
372.992
372.992
372.992
372.992
372.992
372.992
372.971
372.973
372.974
372.975
372.976
372.976
372.977
372.978
372.978
372.979
372.98
372.98
372.981
372.981
372.982
372.983
372.983
372.984
372.985
372.985
372.986
372.986
372.987
372.987
372.988
372.989
372.989
372.989
372.99
372.99
372.991
372.991
372.991
372.991
372.992
372.992
372.992
372.992
372.992
372.992
372.993
372.993
372.993
372.993
372.993
372.993
372.993
372.993
372.993
372.993
372.993
372.993
372.993
372.993
372.993
372.993
372.994
372.994
372.994
372.994
372.994
372.994
372.994
372.994
372.994
372.993
372.993
372.993
372.993
372.993
372.993
372.993
372.993
372.993
372.993
372.993
372.993
372.993
372.993
372.993
372.993
372.993
372.993
372.993
372.993
372.993
372.993
372.993
372.993
372.993
372.993
372.993
372.993
372.993
372.993
372.993
372.993
372.992
372.992
372.992
371.635
371.659
371.713
371.797
371.878
372.014
372.094
372.245
372.338
372.498
371.781
371.794
371.83
371.894
371.951
372.057
372.123
372.238
372.328
372.444
371.899
371.906
371.931
371.979
372.023
372.105
372.162
372.247
372.328
372.422
372.004
372.005
372.022
372.057
372.094
372.15
372.21
372.268
372.338
372.417
372.099
372.096
372.107
372.129
372.163
372.2
372.253
372.301
372.357
372.422
372.186
372.18
372.186
372.201
372.227
372.255
372.295
372.336
372.381
372.436
372.267
372.259
372.26
372.27
372.288
372.311
372.34
372.374
372.411
372.456
372.341
372.332
372.331
372.337
372.348
372.366
372.388
372.415
372.445
372.482
372.411
372.401
372.398
372.401
372.409
372.421
372.438
372.458
372.482
372.512
372.476
372.466
372.462
372.463
372.467
372.476
372.488
372.504
372.522
372.546
372.537
372.528
372.523
372.522
372.525
372.531
372.539
372.551
372.565
372.583
372.594
372.586
372.581
372.579
372.58
372.584
372.59
372.599
372.61
372.624
372.648
372.641
372.636
372.634
372.634
372.637
372.641
372.647
372.655
372.666
372.701
372.694
372.69
372.687
372.687
372.688
372.691
372.695
372.702
372.709
372.751
372.745
372.741
372.739
372.738
372.738
372.74
372.744
372.748
372.753
372.8
372.795
372.791
372.789
372.788
372.788
372.789
372.791
372.795
372.799
372.846
372.843
372.84
372.838
372.837
372.836
372.837
372.838
372.84
372.843
372.893
372.89
372.888
372.887
372.886
372.885
372.885
372.886
372.887
372.888
372.937
372.935
372.934
372.933
372.933
372.932
372.932
372.932
372.933
372.934
372.978
372.977
372.976
372.975
372.974
372.973
372.972
372.972
372.971
372.971
373.302
373.286
373.222
373.124
372.986
372.798
372.531
372.152
371.643
370.971
372.971
372.924
372.835
372.708
372.525
372.279
371.946
371.483
370.858
370.161
372.659
372.576
372.461
372.303
372.082
371.784
371.381
370.834
370.124
369.417
372.375
372.257
372.114
371.925
371.665
371.32
370.864
370.243
369.431
368.809
372.123
371.975
371.806
371.588
371.297
370.911
370.403
369.718
368.841
368.257
371.907
371.735
371.543
371.301
370.982
370.565
370.025
369.292
368.34
367.817
371.731
371.542
371.334
371.074
370.738
370.298
369.733
368.975
367.989
367.478
371.598
371.399
371.182
370.911
370.565
370.119
369.546
368.786
367.769
367.523
371.507
371.308
371.088
370.815
370.472
370.028
369.46
368.728
367.761
367.729
371.463
371.269
371.053
370.787
370.455
370.032
369.486
368.808
367.92
368.143
375.289
375.458
375.638
375.822
376.036
376.261
376.508
376.747
376.984
377.01
375.257
375.423
375.598
375.776
375.982
376.197
376.434
376.659
376.888
376.906
375.176
375.333
375.496
375.661
375.851
376.048
376.261
376.454
376.663
376.676
375.053
375.197
375.342
375.488
375.656
375.821
376.003
376.15
376.302
376.271
374.893
375.014
375.142
375.26
375.399
375.53
375.665
375.761
375.837
375.751
374.696
374.794
374.894
374.988
375.084
375.174
375.259
375.29
375.281
375.118
374.463
374.541
374.609
374.669
374.73
374.763
374.788
374.751
374.651
374.39
374.208
374.254
374.296
374.311
374.328
374.313
374.264
374.155
373.949
373.588
373.931
373.948
373.954
373.935
373.895
373.828
373.708
373.506
373.208
372.732
373.645
373.634
373.599
373.537
373.445
373.314
373.124
372.84
372.424
371.852
373
373
373
373
373
373
373
373
373.001
373.001
373.001
373.001
373.001
373.001
373.002
373.002
373.002
373.002
373.003
373.003
373.003
373.004
373.004
373.004
373.005
373.005
373.006
373.006
373.007
373.008
373.009
373.009
373.011
373.011
373.012
373.013
373.015
373.016
373.017
373.018
373.021
373.022
373.024
373.025
373.028
373.03
373.033
373.035
373.039
373.041
373.045
373.047
373.052
373.055
373.061
373.064
373.071
373.075
373.082
373.087
373.095
373.1
373.111
373.116
373.128
373.135
373.148
373.157
373.171
373.182
373.198
373.21
373.229
373.244
373.265
373.282
373.307
373.327
373.355
373.379
373.412
373.44
373.477
373.511
373.555
373.595
373.647
373.695
373.756
373.816
373.889
373.963
374.054
374.146
374.26
374.38
374.528
374.686
374.882
375.115
373
373
373
373
373
373
373
373
373.001
373.001
373.001
373.001
373.001
373.001
373.002
373.002
373.002
373.002
373.003
373.003
373.003