/*--------------------------------*- C++ -*----------------------------------*\
  =========                 |
  \\      /  F ield         | OpenFOAM: The Open Source CFD Toolbox
   \\    /   O peration     | Website:  https://openfoam.org
    \\  /    A nd           | Version:  8
     \\/     M anipulation  |
\*---------------------------------------------------------------------------*/
FoamFile
{
    version     2.0;
    format      ascii;
    class       volVectorField;
    location    "2.0000073";
    object      U;
}
// * * * * * * * * * * * * * * * * * * * * * * * * * * * * * * * * * * * * * //

dimensions      [0 1 -1 0 0 0 0];

internalField   nonuniform List<vector> 
6800
(
(26.5502 4.41397 -4.71848e-15)
(70.6311 -19.4142 0)
(95.9947 -19.7319 1.16993e-15)
(111.113 -18.3441 -1.9812e-15)
(120.532 -16.7377 -4.20586e-19)
(126.554 -15.0492 4.71357e-19)
(130.414 -13.4777 -1.55986e-15)
(132.878 -12.0902 1.49125e-15)
(134.48 -10.8413 0)
(135.504 -9.74739 -6.90218e-16)
(47.3274 -2.96946 6.08387e-15)
(87.8805 -26.336 -6.6328e-16)
(110.408 -21.9869 0)
(122.547 -19.1558 0)
(129.555 -16.6955 0)
(133.724 -14.4556 8.01891e-16)
(136.156 -12.5798 -7.68969e-16)
(137.529 -11.0625 1.47885e-15)
(138.286 -9.83221 7.16452e-16)
(138.633 -8.95002 -6.93547e-16)
(68.0492 -8.05282 -2.15782e-15)
(104.431 -32.1372 -1.15779e-15)
(123.388 -23.1017 0)
(132.414 -19.3505 -1.75461e-15)
(137.117 -16.1889 -8.25438e-16)
(139.585 -13.5277 -8.61647e-19)
(140.761 -11.4401 1.52906e-15)
(141.213 -9.82239 -1.48339e-15)
(141.281 -8.55148 1.44718e-15)
(141.099 -7.61888 -1.40927e-15)
(89.3156 -10.4485 1.70041e-15)
(120.507 -36.1498 5.94214e-18)
(135.276 -22.7325 0)
(141.156 -18.7377 8.51985e-16)
(143.685 -15.0408 5.62255e-19)
(144.614 -12.1313 7.88447e-16)
(144.705 -9.92944 0)
(144.393 -8.2501 1.50288e-15)
(143.905 -6.94494 9.21504e-19)
(143.304 -5.96277 0)
(110.028 -9.70646 6.97638e-16)
(135.838 -37.8862 4.81779e-16)
(146.12 -20.6608 4.38981e-16)
(149.011 -17.1546 8.34633e-16)
(149.543 -13.0761 -4.04926e-16)
(149.107 -10.1199 3.97964e-16)
(148.263 -7.90558 -7.77483e-16)
(147.296 -6.22828 1.14669e-15)
(146.33 -4.93642 -1.50227e-15)
(145.36 -3.95004 -1.84768e-15)
(129.318 -5.86646 -1.22077e-15)
(150.089 -37.1049 4.43413e-16)
(155.853 -16.8094 -4.26996e-16)
(156.067 -14.4627 4.11149e-16)
(154.804 -10.1431 -1.22029e-15)
(153.176 -7.36984 8.01168e-16)
(151.513 -5.25893 0)
(149.968 -3.66952 -7.81711e-16)
(148.571 -2.46295 3.85742e-16)
(147.256 -1.52907 3.81308e-16)
(146.473 0.792713 0)
(162.915 -33.752 4.24462e-16)
(164.319 -11.2377 4.1831e-16)
(162.262 -10.5865 7.10062e-19)
(159.432 -6.17146 -4.08368e-16)
(156.782 -3.82194 4.07475e-16)
(154.402 -1.92903 4.04362e-16)
(152.342 -0.528065 4.02223e-16)
(150.552 0.500638 -1.59517e-15)
(148.911 1.3251 1.18448e-15)
(160.943 9.81133 2.46414e-16)
(173.958 -27.9141 -4.11324e-16)
(171.314 -4.13619 -4.13477e-16)
(167.449 -5.53102 -6.20396e-16)
(163.291 -1.17599 1.24353e-15)
(159.791 0.518869 -4.14384e-16)
(156.8 2.07896 -4.15997e-16)
(154.29 3.18056 4.15527e-16)
(152.158 3.93341 -8.27595e-16)
(150.218 4.5997 -6.20024e-16)
(172.339 20.6386 -1.14866e-16)
(182.881 -19.8223 9.97567e-17)
(176.631 4.20039 0)
(171.432 0.626377 2.07445e-16)
(166.206 4.71498 0)
(162.037 5.56943 -3.19789e-16)
(158.545 6.69169 3.21534e-16)
(155.668 7.38642 0)
(153.26 7.77336 -1.08008e-16)
(151.063 8.24576 3.24519e-16)
(180.438 32.6617 0)
(189.385 -9.81333 -9.871e-17)
(180.095 13.3912 -5.16082e-17)
(174.033 7.7284 5.22945e-17)
(167.992 11.3012 1.91657e-31)
(163.342 11.1991 -1.10281e-16)
(159.484 11.7827 1.10967e-16)
(156.341 11.9755 1.12838e-16)
(153.744 11.9264 1.13897e-16)
(151.341 12.1734 -3.43115e-16)
(-9.34202 5.17593 0)
(-14.7346 3.37595 -3.33396e-16)
(-19.7612 2.20082 0)
(-22.734 1.36172 0)
(-24.1972 0.623538 0)
(-24.3493 -0.108317 1.48586e-16)
(-23.2787 -0.856082 -1.4686e-16)
(-21.0919 -1.59482 -1.45007e-16)
(-18.0707 -2.20414 2.89927e-16)
(-14.4002 -2.56303 8.39135e-20)
(-7.93004 12.4025 6.98897e-16)
(-14.2347 8.89056 3.83561e-16)
(-17.515 5.85242 0)
(-19.3533 3.59486 4.26706e-16)
(-19.7074 1.52371 0)
(-18.5984 -0.604548 -2.03877e-16)
(-16.0732 -2.81016 2.02687e-16)
(-12.5247 -4.91338 0)
(-8.34808 -6.59442 -2.02134e-16)
(-3.63602 -7.52472 6.82732e-16)
(-7.96913 19.4283 -8.82656e-16)
(-11.5287 13.6042 -1.27324e-15)
(-13.3267 8.98762 1.02239e-15)
(-13.1694 5.35318 -1.4163e-15)
(-11.1594 1.87129 -9.69527e-16)
(-7.12432 -1.71771 1.01005e-15)
(-1.82116 -5.24372 7.03356e-19)
(4.0685 -8.3577 -1.92835e-15)
(9.66151 -10.5169 3.42465e-15)
(15.6084 -11.4935 -1.24354e-15)
(-8.89154 22.8717 0)
(-9.4882 16.4619 1.23508e-15)
(-8.265 10.7705 -1.12347e-15)
(-4.73003 5.79593 2.36063e-15)
(2.00147 0.571573 -1.1987e-15)
(10.2634 -4.25379 1.03925e-15)
(18.163 -8.12446 8.8177e-16)
(25.4469 -11.0279 7.72081e-16)
(32.0036 -13.0668 1.07611e-18)
(38.9012 -13.7429 -6.7317e-16)
(-9.70093 24.5958 5.77583e-19)
(-7.52824 17.3088 -1.33564e-15)
(-1.78346 10.2581 1.32705e-15)
(7.79486 3.64918 -1.24106e-15)
(19.6196 -2.51587 1.02086e-15)
(30.4565 -7.24586 -1.6719e-15)
(40.0707 -10.6562 0)
(48.5184 -12.9671 -1.289e-15)
(55.8079 -14.4648 5.90955e-16)
(63.2695 -14.6545 2.82971e-15)
(-10.3787 24.3164 1.57142e-15)
(-4.64033 15.4808 4.26525e-15)
(7.88755 6.89765 -1.38868e-15)
(24.3473 -0.844919 -2.13789e-15)
(38.9589 -6.48984 4.13838e-15)
(51.4239 -10.3276 -2.08538e-15)
(61.9773 -12.8316 0)
(70.9032 -14.3283 -5.60403e-16)
(78.2607 -15.0685 -4.07377e-19)
(85.3573 -14.668 -4.84608e-16)
(-10.8528 22.3756 3.14991e-15)
(0.678065 11.2157 -1.75429e-19)
(23.1089 0.655707 0)
(42.7081 -6.13487 1.72594e-15)
(58.7711 -10.3676 2.79425e-15)
(71.8022 -12.9299 -1.20974e-15)
(82.2671 -14.3163 0)
(90.595 -14.8989 -1.96674e-15)
(97.0894 -14.9549 3.60594e-15)
(102.956 -14.1326 0)
(-9.81969 18.6009 -3.25756e-15)
(13.5277 3.20472 -6.45143e-15)
(40.9636 -6.11853 1.92889e-15)
(61.9766 -10.9889 4.60917e-19)
(78.0632 -13.4736 -2.43432e-15)
(90.2585 -14.6128 0)
(99.4072 -14.944 -9.52553e-16)
(106.278 -14.7561 0)
(111.4 -14.2748 -1.62076e-15)
(115.791 -13.207 1.52863e-15)
(-5.71115 14.2369 1.93003e-15)
(31.4335 -4.78737 0)
(60.2906 -12.0371 0)
(80.7363 -14.6648 0)
(95.2376 -15.453 0)
(105.49 -15.3628 9.44886e-16)
(112.785 -14.8214 2.58803e-15)
(118.004 -14.0591 -1.60322e-15)
(121.719 -13.2239 -2.26687e-15)
(124.737 -12.0574 2.16335e-15)
(3.60229 11.452 -5.30374e-15)
(51.2812 -12.1545 0)
(79.2577 -16.517 -1.34564e-15)
(97.3398 -16.9761 2.19614e-15)
(109.332 -16.3976 3.73016e-19)
(117.397 -15.3919 -1.736e-15)
(122.87 -14.2474 1.61536e-15)
(126.583 -13.1105 -1.52586e-15)
(129.083 -12.0299 0)
(130.897 -10.8344 -7.02232e-16)
(-9.93886 -2.55391 -1.40543e-16)
(-4.71964 -2.33362 0)
(0.0671252 -2.08784 0)
(4.31847 -1.83375 0)
(8.03729 -1.62162 0)
(11.4165 -1.46182 0)
(14.5021 -1.33735 -4.63677e-18)
(17.3505 -1.23641 1.45509e-16)
(20.0029 -1.15194 -1.38282e-16)
(22.4887 -1.07962 0)
(24.8299 -1.01658 4.30763e-18)
(27.0434 -0.960777 4.23838e-18)
(29.1428 -0.91079 4.17364e-18)
(31.1394 -0.865595 4.11301e-18)
(33.0422 -0.824374 4.0561e-18)
(34.8591 -0.786452 0)
(36.5965 -0.75131 -1.22524e-16)
(38.2598 -0.718569 3.90055e-18)
(39.8538 -0.687943 1.27383e-16)
(41.3829 -0.659205 3.81786e-18)
(42.8508 -0.632169 0)
(44.2611 -0.606684 3.74e-18)
(45.6168 -0.582626 -1.14825e-16)
(46.921 -0.559875 1.21107e-16)
(48.1764 -0.538324 3.63734e-18)
(49.3856 -0.517883 -1.11798e-16)
(50.5508 -0.498483 1.14467e-16)
(51.6743 -0.48005 3.54903e-18)
(52.7582 -0.46251 3.5224e-18)
(53.8043 -0.445805 -1.08407e-16)
(54.8144 -0.42989 1.14612e-16)
(55.7902 -0.414722 3.45014e-18)
(56.7333 -0.400253 3.42837e-18)
(57.645 -0.386437 -1.05635e-16)
(58.5268 -0.37323 1.08418e-16)
(59.3798 -0.360593 -1.11182e-16)
(60.2052 -0.348495 1.07247e-16)
(61.0042 -0.336909 0)
(61.7777 -0.325811 0)
(62.5268 -0.315183 1.05686e-16)
(63.2524 -0.305004 -1.05219e-16)
(63.9556 -0.29526 -1.08036e-16)
(64.6371 -0.285931 1.04332e-16)
(65.298 -0.277002 -1.0391e-16)
(65.939 -0.268456 1.00278e-16)
(66.5609 -0.260276 0)
(67.1646 -0.252448 -3.2109e-18)
(67.7508 -0.244957 0)
(68.3203 -0.237788 -3.18863e-18)
(68.8737 -0.230923 0)
(69.4118 -0.224345 0)
(69.9351 -0.218039 0)
(70.4443 -0.211992 -3.14803e-18)
(70.9399 -0.206191 0)
(71.4226 -0.200623 4.69423e-17)
(71.8927 -0.195277 -4.99321e-17)
(72.3509 -0.190143 0)
(72.7977 -0.185209 -3.10387e-18)
(73.2333 -0.180467 0)
(73.6584 -0.175908 -3.08807e-18)
(74.0733 -0.171523 0)
(74.4783 -0.167304 0)
(74.8739 -0.163245 0)
(75.2604 -0.159339 -4.89493e-17)
(75.6382 -0.155578 4.88445e-17)
(76.0075 -0.151957 -3.04633e-18)
(76.3687 -0.14847 0)
(76.722 -0.145113 0)
(77.0678 -0.141881 -3.02828e-18)
(77.4063 -0.138769 -4.83615e-17)
(77.7377 -0.135772 4.52574e-17)
(78.0624 -0.132887 4.81885e-17)
(78.3806 -0.130109 -5.1113e-17)
(78.6925 -0.127435 0)
(78.9983 -0.12486 0)
(79.2984 -0.122381 0)
(79.5927 -0.119993 -2.98722e-18)
(79.8817 -0.117694 2.38611e-17)
(80.1655 -0.115479 -2.38258e-17)
(80.4442 -0.113345 2.37905e-17)
(80.7181 -0.11129 -2.07871e-17)
(80.9874 -0.109309 0)
(81.2521 -0.107399 -2.36899e-17)
(81.5125 -0.105558 4.73152e-17)
(81.7688 -0.10378 -2.06728e-17)
(82.0211 -0.102064 0)
(82.2694 -0.100404 0)
(82.5141 -0.0987967 0)
(82.7551 -0.0972357 0)
(82.9925 -0.0957171 2.93437e-18)
(83.2266 -0.0942291 0)
(83.4572 -0.0927648 -1.1709e-17)
(83.6845 -0.0913032 1.09352e-22)
(83.9085 -0.0898293 8.76124e-18)
(84.129 -0.088303 0)
(84.3459 -0.0866865 -5.82765e-18)
(84.5588 -0.0849115 2.91102e-18)
(84.767 -0.0829013 5.81567e-18)
(84.9699 -0.0805869 0)
(85.2166 -0.0759456 0)
(0.769849 -7.17609 6.46496e-18)
(4.91015 -6.38237 -1.34581e-17)
(8.72267 -5.71117 -8.40935e-16)
(12.2019 -5.09542 8.00971e-16)
(15.3862 -4.56784 0)
(18.3323 -4.14881 0)
(21.0662 -3.81331 1.73219e-17)
(23.6159 -3.53676 0)
(26.0071 -3.30305 -5.51268e-18)
(28.2604 -3.1016 1.07921e-17)
(30.3918 -2.92514 -5.28866e-18)
(32.414 -2.76826 -5.18871e-18)
(34.3374 -2.62716 -5.09575e-18)
(36.1705 -2.49914 -5.00912e-18)
(37.9208 -2.38201 4.92795e-18)
(39.5942 -2.274 0)
(41.1959 -2.17373 6.07327e-16)
(42.7306 -2.08015 -5.989e-16)
(44.2024 -1.99249 -4.65385e-18)
(45.6148 -1.91012 -4.59558e-18)
(46.9714 -1.83255 0)
(48.2751 -1.75937 4.48893e-18)
(49.5288 -1.69026 -5.72781e-16)
(50.7352 -1.6249 1.12047e-15)
(51.8968 -1.56305 -5.61192e-16)
(53.0159 -1.50445 -1.29266e-17)
(54.0946 -1.44885 0)
(55.135 -1.39604 -4.23243e-18)
(56.139 -1.34586 -4.19708e-18)
(57.1082 -1.29809 5.37082e-16)
(58.0443 -1.25255 -5.32994e-16)
(58.9488 -1.20909 -2.66583e-16)
(59.823 -1.16757 5.25362e-16)
(60.6682 -1.12787 -4.05723e-18)
(61.4856 -1.08984 -2.57236e-16)
(62.2764 -1.05339 3.99452e-18)
(63.0417 -1.01843 0)
(63.7823 -0.984902 0)
(64.4994 -0.952745 2.51352e-16)
(65.1938 -0.921913 -2.50069e-16)
(65.8664 -0.892369 -2.48822e-16)
(66.5182 -0.864066 4.99159e-16)
(67.15 -0.836953 -1.07402e-20)
(67.7625 -0.810981 -2.4543e-16)
(68.3567 -0.786104 3.81847e-18)
(68.9331 -0.762279 0)
(69.4927 -0.739464 2.46197e-16)
(70.036 -0.717619 -2.49036e-16)
(70.5637 -0.696703 -2.36825e-16)
(71.0766 -0.676668 2.39728e-16)
(71.5753 -0.657472 0)
(72.0602 -0.639074 -2.38079e-16)
(72.5321 -0.621434 2.41018e-16)
(72.9915 -0.604515 -2.36551e-16)
(73.4388 -0.588278 2.39519e-16)
(73.8747 -0.57269 0)
(74.2994 -0.557718 -2.34452e-16)
(74.7136 -0.543332 4.71259e-16)
(75.1175 -0.529506 -2.33176e-16)
(75.5117 -0.516212 3.63383e-18)
(75.8964 -0.503423 0)
(76.2721 -0.491116 0)
(76.6391 -0.47927 0)
(76.9977 -0.467866 0)
(77.3482 -0.456886 0)
(77.6909 -0.446312 3.58336e-18)
(78.0262 -0.436129 0)
(78.3543 -0.426321 1.14199e-16)
(78.6754 -0.416877 -1.10417e-16)
(78.9898 -0.407783 -1.13762e-16)
(79.2978 -0.399028 3.55056e-18)
(79.5996 -0.390598 1.13355e-16)
(79.8954 -0.382482 1.16693e-16)
(80.1854 -0.374667 -1.75447e-21)
(80.4699 -0.367141 -1.12784e-16)
(80.749 -0.359895 0)
(81.023 -0.352916 1.15941e-16)
(81.292 -0.346195 -1.52814e-21)
(81.5563 -0.33972 -1.05087e-16)
(81.8159 -0.333483 -1.18924e-16)
(82.0712 -0.327474 1.08278e-16)
(82.3221 -0.321682 -6.27832e-17)
(82.569 -0.316098 4.87656e-17)
(82.8118 -0.310714 -6.26142e-17)
(83.0509 -0.305516 -3.47343e-18)
(83.2863 -0.300499 4.85745e-17)
(83.5181 -0.295645 6.93051e-18)
(83.7465 -0.290949 4.84532e-17)
(83.9716 -0.286388 -5.53095e-17)
(84.1935 -0.281952 -5.86953e-17)
(84.4122 -0.277607 5.51804e-17)
(84.6279 -0.273334 2.06683e-17)
(84.8404 -0.26907 -2.59763e-22)
(85.05 -0.264773 -3.09345e-17)
(85.2564 -0.260326 6.86748e-18)
(85.4595 -0.255617 -6.8599e-18)
(85.6589 -0.250447 1.37072e-17)
(85.8539 -0.244493 -2.39636e-17)
(86.0455 -0.2374 6.83881e-18)
(86.276 -0.226681 -7.34491e-18)
(18.7932 -10.5955 -1.44028e-15)
(21.1045 -9.41564 3.38488e-17)
(23.5767 -8.51018 3.32945e-17)
(26.0421 -7.72624 1.3988e-15)
(28.4152 -7.03336 -1.35414e-15)
(30.6836 -6.44989 -1.33309e-15)
(32.847 -5.96666 1.34201e-15)
(34.9079 -5.56069 2.04784e-17)
(36.8709 -5.21174 1.31072e-15)
(38.7416 -4.90674 -1.26076e-15)
(40.526 -4.63672 1.95644e-17)
(42.2295 -4.39457 1.92862e-17)
(43.8576 -4.17532 1.23651e-15)
(45.4149 -3.97526 -1.2012e-15)
(46.9055 -3.79124 1.1953e-15)
(48.3334 -3.62087 8.5293e-20)
(49.702 -3.46221 -1.13973e-15)
(51.0144 -3.31382 -8.94503e-18)
(52.2739 -3.17464 0)
(53.4833 -3.04375 0)
(54.6455 -2.92043 0)
(55.7629 -2.80408 8.592e-18)
(56.8379 -2.69416 -5.4495e-16)
(57.8728 -2.5902 5.57117e-16)
(58.8695 -2.49173 -1.6741e-17)
(59.8301 -2.39839 8.30321e-18)
(60.7561 -2.30984 5.43738e-16)
(61.6494 -2.22569 -5.23329e-16)
(62.5113 -2.14558 -5.03286e-16)
(63.3433 -2.06928 -8.03948e-18)
(64.1466 -1.99656 5.12439e-16)
(64.9224 -1.92715 5.09105e-16)
(65.6719 -1.86087 -1.01983e-15)
(66.3962 -1.79749 5.0298e-16)
(67.0962 -1.73678 5.1574e-16)
(67.7731 -1.67858 -1.01039e-15)
(68.4277 -1.62277 4.94868e-16)
(69.0609 -1.56926 -5.07798e-16)
(69.6736 -1.51795 5.05432e-16)
(70.2666 -1.46877 -1.52468e-17)
(70.8409 -1.42161 0)
(71.3971 -1.37642 0)
(71.9361 -1.33314 0)
(72.4585 -1.29171 0)
(72.9652 -1.25204 0)
(73.4567 -1.21409 0)
(73.9338 -1.17776 -1.4839e-17)
(74.397 -1.143 2.21842e-17)
(74.8471 -1.10974 4.56987e-16)
(75.2845 -1.07789 -4.70276e-16)
(75.7098 -1.04738 -4.6884e-16)
(76.1235 -1.01814 4.67487e-16)
(76.5261 -0.990112 -4.66148e-16)
(76.9181 -0.963235 4.64886e-16)
(77.2999 -0.937448 0)
(77.6719 -0.912695 0)
(78.0345 -0.888925 0)
(78.3881 -0.866093 0)
(78.7331 -0.844154 -1.43472e-17)
(79.0697 -0.823064 0)
(79.3984 -0.802782 2.28532e-16)
(79.7194 -0.783274 -2.28053e-16)
(80.033 -0.764505 0)
(80.3395 -0.746442 0)
(80.6392 -0.729056 0)
(80.9323 -0.712322 0)
(81.2192 -0.696217 0)
(81.5 -0.680713 2.11379e-16)
(81.775 -0.665786 -4.15621e-21)
(82.0443 -0.651416 -4.63488e-16)
(82.3083 -0.637581 2.38387e-16)
(82.5671 -0.62426 0)
(82.8208 -0.611434 -1.39795e-17)
(83.0698 -0.599084 0)
(83.3141 -0.587192 2.23017e-16)
(83.554 -0.575743 -2.22705e-16)
(83.7896 -0.564719 -1.38997e-17)
(84.021 -0.5541 -9.71654e-17)
(84.2485 -0.54387 9.01067e-17)
(84.4721 -0.534014 2.07666e-17)
(84.6921 -0.524515 -1.2444e-16)
(84.9085 -0.51536 1.1738e-16)
(85.1214 -0.506532 2.06885e-17)
(85.3312 -0.49802 6.88783e-18)
(85.5377 -0.489804 0)
(85.7412 -0.481872 -6.87162e-18)
(85.9418 -0.474202 6.8638e-18)
(86.1395 -0.466782 1.16552e-16)
(86.3345 -0.459578 -1.23274e-16)
(86.5269 -0.452576 -5.47277e-17)
(86.7167 -0.44572 4.10036e-17)
(86.904 -0.43898 -4.77855e-17)
(87.0888 -0.432258 6.81986e-17)
(87.2711 -0.42549 -6.81264e-18)
(87.4508 -0.418489 6.80648e-18)
(87.628 -0.411075 -2.03982e-17)
(87.802 -0.402933 1.35877e-17)
(87.9725 -0.393446 1.35747e-17)
(88.1406 -0.38206 -6.78006e-18)
(88.3426 -0.368238 1.45316e-17)
(40.9796 -12.4305 -1.24009e-15)
(41.7539 -11.1665 -2.17688e-17)
(42.8354 -10.2746 1.26361e-15)
(44.2167 -9.50729 0)
(45.6916 -8.79404 -5.50417e-21)
(47.1767 -8.15954 1.23144e-15)
(48.653 -7.61181 -1.87345e-17)
(50.1097 -7.13814 -1.23963e-15)
(51.5327 -6.7227 1.18673e-15)
(52.9138 -6.35341 -1.2085e-15)
(54.2484 -6.02172 -1.83631e-17)
(55.535 -5.72061 1.14277e-15)
(56.7744 -5.4452 -2.31177e-15)
(57.9665 -5.19141 1.13361e-15)
(59.112 -4.95583 -1.75187e-17)
(60.2126 -4.73625 -1.09204e-15)
(61.2698 -4.53082 1.08101e-15)
(62.286 -4.33819 0)
(63.2631 -4.15721 -1.07778e-15)
(64.2031 -3.98681 1.06833e-15)
(65.1078 -3.82607 1.05938e-15)
(65.9789 -3.67428 -1.06725e-15)
(66.8179 -3.53079 0)
(67.6264 -3.39499 -1.61699e-17)
(68.4055 -3.26631 1.6053e-17)
(69.1566 -3.14423 1.59405e-17)
(69.8807 -3.02824 -1.58334e-17)
(70.5791 -2.91793 0)
(71.2526 -2.81289 -1.56323e-17)
(71.9022 -2.71272 0)
(72.5289 -2.61709 9.88726e-16)
(73.1334 -2.52571 -9.8333e-16)
(73.7168 -2.4384 0)
(74.2799 -2.35491 -9.58013e-16)
(74.8235 -2.27495 9.53491e-16)
(75.3483 -2.19833 1.50659e-17)
(75.8554 -2.12491 0)
(76.3453 -2.05458 1.49391e-17)
(76.8191 -1.9872 -1.28715e-22)
(77.2774 -1.92269 1.48244e-17)
(77.721 -1.86096 4.72665e-16)
(78.1506 -1.80188 -2.06741e-20)
(78.5668 -1.74531 -4.69518e-16)
(78.9702 -1.69116 -4.53388e-16)
(79.3614 -1.63935 4.66605e-16)
(79.741 -1.58976 0)
(80.1096 -1.54231 1.44966e-17)
(80.4675 -1.49692 -1.44563e-17)
(80.8152 -1.45349 1.44174e-17)
(81.1532 -1.4119 4.45765e-16)
(81.4819 -1.37206 -1.61122e-20)
(81.8016 -1.33389 -4.72171e-16)
(82.1128 -1.2973 0)
(82.4157 -1.26221 1.42406e-17)
(82.7106 -1.22853 -4.54665e-16)
(82.998 -1.1962 4.53684e-16)
(83.278 -1.16516 4.52709e-16)
(83.551 -1.13534 -4.5179e-16)
(83.8174 -1.1067 2.81802e-17)
(84.0772 -1.07918 0)
(84.3309 -1.05271 0)
(84.5786 -1.02727 0)
(84.8207 -1.0028 -1.39863e-17)
(85.0573 -0.979268 -4.32829e-16)
(85.2887 -0.956639 4.46058e-16)
(85.5151 -0.934869 -1.39166e-17)
(85.7367 -0.913922 4.44626e-16)
(85.9538 -0.893775 -8.74022e-16)
(86.1664 -0.874396 6.51073e-16)
(86.3747 -0.855753 -3.89497e-21)
(86.5791 -0.837817 -2.34816e-16)
(86.7795 -0.820557 2.06898e-16)
(86.9762 -0.803944 -1.92846e-16)
(87.1693 -0.787954 2.20098e-16)
(87.3589 -0.772559 -4.39627e-16)
(87.5452 -0.757735 3.16454e-21)
(87.7284 -0.74346 1.37066e-17)
(87.9084 -0.729711 1.91615e-16)
(88.0856 -0.716468 2.06257e-23)
(88.2599 -0.703714 -2.73079e-17)
(88.4315 -0.691426 1.85601e-23)
(88.6005 -0.679585 0)
(88.767 -0.668173 1.90498e-16)
(88.9312 -0.657175 -1.2233e-16)
(89.093 -0.646565 -1.22196e-16)
(89.2527 -0.636328 1.35627e-17)
(89.4103 -0.626434 -2.7097e-17)
(89.5659 -0.61687 -1.35343e-17)
(89.7195 -0.607591 1.08165e-16)
(89.8714 -0.59858 -1.08056e-16)
(90.0214 -0.589763 1.07951e-16)
(90.1697 -0.581106 -1.75246e-16)
(90.3162 -0.572479 -2.6936e-17)
(90.4611 -0.563801 1.21094e-16)
(90.6042 -0.554829 -2.6888e-17)
(90.7455 -0.545336 -8.05839e-17)
(90.8848 -0.534905 2.68408e-17)
(91.0216 -0.522733 -6.52471e-23)
(91.1569 -0.508154 -1.33946e-17)
(91.3201 -0.491187 -2.86231e-17)
(64.7763 -13.1548 -4.63828e-15)
(64.6725 -12.0373 2.37336e-15)
(64.7563 -11.2659 1.21032e-15)
(65.2661 -10.5756 -1.17115e-15)
(65.9655 -9.90595 -1.85443e-17)
(66.7217 -9.28398 1.19905e-15)
(67.5099 -8.72597 -2.34375e-15)
(68.3219 -8.22849 1.16179e-15)
(69.143 -7.78196 0)
(69.9604 -7.37792 0)
(70.7643 -7.01014 0)
(71.5502 -6.67253 1.74746e-17)
(72.3167 -6.36123 1.73019e-17)
(73.0602 -6.0733 1.7137e-17)
(73.7824 -5.8055 1.69784e-17)
(74.4822 -5.5552 -1.0771e-15)
(75.1603 -5.32052 1.66146e-17)
(75.8172 -5.09984 1.07561e-15)
(76.4531 -4.89178 1.64155e-17)
(77.0682 -4.69512 1.62882e-17)
(77.6629 -4.50897 1.61654e-17)
(78.2377 -4.33263 0)
(78.793 -4.1654 1.03558e-15)
(79.3293 -4.00661 -9.96738e-16)
(79.8471 -3.85568 1.57138e-17)
(80.3468 -3.71207 -4.53552e-22)
(80.829 -3.57528 -9.77208e-16)
(81.2942 -3.44482 9.86644e-16)
(81.7427 -3.32027 1.53247e-17)
(82.1753 -3.2013 1.52375e-17)
(82.5922 -3.08749 -9.54739e-16)
(82.994 -2.97852 1.5117e-17)
(83.3812 -2.8742 1.92028e-15)
(83.7541 -2.77435 -9.55726e-16)
(84.1135 -2.67884 -9.36644e-16)
(84.4602 -2.58753 4.27882e-20)
(84.795 -2.50028 9.58601e-16)
(85.1185 -2.41691 0)
(85.4313 -2.33726 -1.46385e-17)
(85.734 -2.26114 1.45874e-17)
(86.027 -2.1884 9.30447e-16)
(86.311 -2.1189 -9.12978e-16)
(86.5862 -2.05251 0)
(86.8532 -1.98908 -1.31529e-22)
(87.1122 -1.92845 0)
(87.3635 -1.8705 1.43177e-17)
(87.6074 -1.81506 0)
(87.8443 -1.76202 -8.97023e-16)
(88.0743 -1.71126 9.089e-16)
(88.2977 -1.66267 1.41649e-17)
(88.5148 -1.61612 4.66268e-16)
(88.7258 -1.57149 -4.36964e-16)
(88.931 -1.52867 1.40623e-17)
(89.1304 -1.48758 -1.40305e-17)
(89.3244 -1.44811 1.39996e-17)
(89.5132 -1.4102 0)
(89.697 -1.37377 1.39411e-17)
(89.876 -1.33878 0)
(90.0506 -1.30516 -1.38867e-17)
(90.2208 -1.27285 4.57403e-16)
(90.3869 -1.24179 -8.855e-16)
(90.5491 -1.21193 4.55796e-16)
(90.7075 -1.18323 1.37885e-17)
(90.8625 -1.15565 4.40504e-16)
(91.014 -1.12913 -4.39813e-16)
(91.1623 -1.10365 -4.11678e-16)
(91.3076 -1.07915 4.38471e-16)
(91.45 -1.0556 -4.24138e-16)
(91.5895 -1.03296 4.50864e-16)
(91.7264 -1.0112 1.36434e-17)
(91.8608 -0.990269 -4.22362e-16)
(91.9927 -0.970141 8.84422e-16)
(92.1224 -0.950779 -4.34841e-16)
(92.2498 -0.932153 0)
(92.3751 -0.914233 1.35541e-17)
(92.4984 -0.897 0)
(92.6198 -0.880416 1.35211e-17)
(92.7393 -0.864451 1.35051e-17)
(92.8571 -0.849081 1.34894e-17)
(92.9733 -0.834289 1.3474e-17)
(93.0878 -0.820046 -2.01882e-16)
(93.2009 -0.806334 2.15105e-16)
(93.3126 -0.793133 -2.0144e-16)
(93.4229 -0.780427 1.34173e-17)
(93.532 -0.768182 1.34032e-17)
(93.6399 -0.756382 2.30591e-21)
(93.7467 -0.74499 2.27343e-16)
(93.8524 -0.733993 -9.3514e-17)
(93.9572 -0.723337 1.20115e-16)
(94.061 -0.713004 0)
(94.1639 -0.702908 1.33199e-17)
(94.266 -0.693011 1.33065e-17)
(94.3673 -0.683163 1.32945e-17)
(94.4678 -0.673276 0)
(94.5675 -0.663072 1.32701e-17)
(94.6664 -0.652292 0)
(94.7644 -0.640446 1.32466e-17)
(94.8613 -0.62662 -2.64679e-17)
(94.9577 -0.609986 2.64416e-17)
(95.075 -0.590675 2.81378e-17)
(86.5868 -13.2142 0)
(86.1141 -12.375 1.70336e-17)
(85.6802 -11.765 -2.21115e-15)
(85.6803 -11.1566 4.36521e-15)
(85.9083 -10.5442 1.89419e-17)
(86.2079 -9.95965 -2.23838e-15)
(86.5448 -9.41615 2.20295e-15)
(86.9156 -8.91509 -2.19696e-15)
(87.3111 -8.45383 2.19132e-15)
(87.7171 -8.02938 7.09789e-19)
(88.124 -7.63867 5.88093e-19)
(88.5258 -7.27662 -4.32819e-15)
(88.9178 -6.94082 -4.02381e-19)
(89.2984 -6.62781 4.26843e-15)
(89.6663 -6.33487 -2.13079e-15)
(90.0207 -6.06137 -1.65561e-17)
(90.3617 -5.80477 -1.85006e-21)
(90.6885 -5.56372 -1.63646e-17)
(91.0017 -5.33695 -1.45001e-21)
(91.3011 -5.12302 -1.28688e-21)
(91.5877 -4.92091 -1.14259e-21)
(91.862 -4.72968 0)
(92.1242 -4.54843 -9.02627e-22)
(92.3749 -4.37642 -1.57929e-17)
(92.6147 -4.213 -1.03622e-15)
(92.844 -4.05757 9.83451e-16)
(93.0635 -3.90948 -9.93379e-16)
(93.2735 -3.76823 9.87899e-16)
(93.4746 -3.63336 9.51812e-16)
(93.6674 -3.50456 -1.96995e-15)
(93.8525 -3.3815 9.72384e-16)
(94.0306 -3.26377 -1.51187e-17)
(94.2024 -3.1513 -1.5047e-17)
(94.3683 -3.04372 9.43771e-16)
(94.5287 -2.94048 -9.54756e-16)
(94.6839 -2.84146 0)
(94.8341 -2.74657 9.46988e-16)
(94.9794 -2.65567 -9.43342e-16)
(95.1199 -2.56859 1.46833e-17)
(95.2559 -2.48519 -1.46292e-17)
(95.3875 -2.40535 1.4576e-17)
(95.5147 -2.3289 -1.45246e-17)
(95.6377 -2.25571 1.44741e-17)
(95.7566 -2.18565 -1.44252e-17)
(95.8715 -2.11857 1.43773e-17)
(95.9827 -2.05435 -9.31485e-16)
(96.0902 -1.99283 9.28579e-16)
(96.1941 -1.93398 -1.42415e-17)
(96.2946 -1.87758 1.41993e-17)
(96.3917 -1.82345 9.06115e-16)
(96.4855 -1.77155 -9.17731e-16)
(96.5761 -1.7218 1.40805e-17)
(96.6637 -1.67416 -1.40439e-17)
(96.7486 -1.62856 1.40084e-17)
(96.8309 -1.58489 -1.39743e-17)
(96.9108 -1.54308 -8.78299e-16)
(96.9885 -1.50304 -1.38845e-17)
(97.0642 -1.46468 1.39028e-17)
(97.138 -1.42793 4.43183e-16)
(97.2099 -1.3927 1.1116e-20)
(97.2802 -1.35893 4.41361e-16)
(97.3489 -1.32654 -6.81226e-23)
(97.4162 -1.29548 0)
(97.4821 -1.26568 -2.7427e-17)
(97.5467 -1.23707 0)
(97.6102 -1.20959 4.37257e-16)
(97.6725 -1.18321 -4.36511e-16)
(97.7337 -1.15786 -2.72356e-17)
(97.794 -1.13351 0)
(97.8533 -1.11012 -4.20772e-16)
(97.9117 -1.08762 -1.35447e-17)
(97.9693 -1.066 4.19466e-16)
(98.026 -1.04519 -1.35106e-17)
(98.082 -1.02518 -4.18203e-16)
(98.1373 -1.00592 4.17601e-16)
(98.1919 -0.987385 4.43901e-16)
(98.246 -0.969552 -4.43287e-16)
(98.2996 -0.952397 -4.1584e-16)
(98.3528 -0.935894 4.28679e-16)
(98.4055 -0.920022 0)
(98.4579 -0.904749 2.27131e-16)
(98.51 -0.89006 -2.00152e-16)
(98.5619 -0.87594 -1.99896e-16)
(98.6136 -0.862368 4.39217e-16)
(98.6652 -0.849306 -2.12693e-16)
(98.7167 -0.836737 1.32767e-17)
(98.7681 -0.824622 2.25434e-16)
(98.8195 -0.812951 -1.98673e-16)
(98.8709 -0.801664 -2.1167e-16)
(98.9223 -0.790745 1.98205e-16)
(98.9738 -0.7801 0)
(99.0255 -0.769696 0)
(99.0773 -0.75937 0)
(99.1294 -0.749038 -1.31534e-17)
(99.1816 -0.738408 1.31403e-17)
(99.2342 -0.727219 1.31247e-17)
(99.287 -0.714939 0)
(99.3403 -0.700631 -1.30971e-17)
(99.3943 -0.683231 3.98359e-23)
(99.4615 -0.662802 2.76955e-17)
(103.774 -12.9135 -1.5635e-17)
(102.979 -12.3992 -1.58642e-17)
(102.14 -11.9658 0)
(101.72 -11.4442 1.04066e-20)
(101.574 -10.8931 2.04976e-15)
(101.549 -10.3571 3.38577e-17)
(101.596 -9.84502 -2.07693e-15)
(101.704 -9.35815 0)
(101.863 -8.89838 -2.09917e-15)
(102.06 -8.46643 2.0824e-15)
(102.281 -8.06197 1.62642e-17)
(102.516 -7.68328 -1.62579e-17)
(102.757 -7.32833 2.06237e-15)
(103 -6.99593 1.65777e-17)
(103.239 -6.6839 -1.58981e-17)
(103.472 -6.39044 1.64031e-17)
(103.696 -6.11436 -1.59431e-17)
(103.908 -5.85391 -4.12178e-15)
(104.107 -5.6079 2.05638e-15)
(104.293 -5.3752 2.03586e-15)
(104.465 -5.15473 5.23661e-20)
(104.622 -4.94597 -2.04114e-15)
(104.765 -4.74813 -1.59025e-17)
(104.892 -4.56041 1.58548e-17)
(105.005 -4.38217 1.58076e-17)
(105.103 -4.21281 -2.03271e-15)
(105.188 -4.05181 3.00012e-15)
(105.259 -3.89875 -2.66603e-20)
(105.317 -3.75325 -9.67408e-16)
(105.364 -3.61488 0)
(105.401 -3.48315 9.60666e-16)
(105.428 -3.35757 -1.97608e-15)
(105.446 -3.23801 1.98383e-15)
(105.456 -3.1245 -1.97609e-15)
(105.46 -3.01668 9.61317e-16)
(105.457 -2.91417 1.51984e-17)
(105.449 -2.81661 -1.51391e-17)
(105.437 -2.7237 0)
(105.42 -2.63515 -9.76313e-16)
(105.4 -2.55072 9.5759e-16)
(105.378 -2.47017 -2.57345e-22)
(105.352 -2.39328 0)
(105.325 -2.31982 -9.46565e-16)
(105.296 -2.24962 9.57771e-16)
(105.266 -2.18246 -1.46799e-17)
(105.234 -2.11815 9.50657e-16)
(105.202 -2.05653 -1.46087e-17)
(105.17 -1.99741 -9.29347e-16)
(105.137 -1.94076 -1.33714e-22)
(105.104 -1.88645 9.22948e-16)
(105.071 -1.8343 -9.05587e-16)
(105.039 -1.78414 9.0268e-16)
(105.007 -1.73585 -9.1419e-16)
(104.975 -1.68936 9.1139e-16)
(104.945 -1.64462 -9.087e-16)
(104.914 -1.60156 -9.20193e-16)
(104.884 -1.5601 9.03456e-16)
(104.855 -1.52027 -1.40766e-17)
(104.827 -1.48201 1.40381e-17)
(104.798 -1.44521 -1.40009e-17)
(104.771 -1.40984 0)
(104.744 -1.37587 -7.49804e-23)
(104.718 -1.34326 8.89193e-16)
(104.692 -1.31197 -1.33054e-15)
(104.667 -1.28195 8.84904e-16)
(104.643 -1.25316 -1.38031e-17)
(104.619 -1.22555 -8.67048e-16)
(104.596 -1.19907 4.53154e-16)
(104.574 -1.17365 4.38456e-16)
(104.552 -1.14927 -4.51203e-16)
(104.531 -1.12589 0)
(104.511 -1.10349 -4.35734e-16)
(104.491 -1.08204 4.3488e-16)
(104.472 -1.0615 -4.83907e-23)
(104.454 -1.04184 0)
(104.437 -1.02303 -1.35125e-17)
(104.421 -1.00501 0)
(104.405 -0.987752 -1.34635e-17)
(104.391 -0.971236 1.34396e-17)
(104.377 -0.955429 0)
(104.365 -0.940274 -1.33931e-17)
(104.353 -0.925746 -2.78428e-23)
(104.343 -0.911812 -2.26909e-16)
(104.334 -0.89845 1.86555e-16)
(104.325 -0.885621 -1.33036e-17)
(104.318 -0.87331 -1.32818e-17)
(104.311 -0.861467 -2.65217e-17)
(104.306 -0.850081 -1.32395e-17)
(104.302 -0.839091 -2.24725e-16)
(104.299 -0.82848 2.10765e-21)
(104.297 -0.818156 2.10859e-16)
(104.296 -0.808093 -1.05262e-16)
(104.296 -0.798128 9.19746e-17)
(104.297 -0.788193 1.31186e-17)
(104.3 -0.77801 -2.62018e-17)
(104.304 -0.767361 -1.30804e-17)
(104.309 -0.755694 -1.30639e-17)
(104.317 -0.742166 3.91298e-17)
(104.327 -0.725454 -3.9077e-17)
(104.342 -0.705349 -2.73805e-17)
(116.102 -12.2755 1.93334e-15)
(115.039 -12.0547 -1.9703e-15)
(113.871 -11.8037 1.53947e-17)
(113.059 -11.3966 1.55185e-17)
(112.542 -10.9345 -2.01497e-15)
(112.194 -10.4755 1.99275e-15)
(111.955 -10.0286 2.01873e-15)
(111.806 -9.59372 -1.46865e-17)
(111.734 -9.17309 1.68326e-17)
(111.725 -8.76939 -1.50905e-17)
(111.766 -8.38403 -1.52523e-17)
(111.844 -8.017 -2.05791e-15)
(111.952 -7.66778 0)
(112.081 -7.33556 -3.1966e-17)
(112.228 -7.0196 -2.04671e-15)
(112.386 -6.71908 -3.22526e-17)
(112.553 -6.43311 -2.21743e-19)
(112.724 -6.16093 2.04537e-15)
(112.897 -5.90187 -3.19417e-17)
(113.071 -5.65521 0)
(113.242 -5.42011 -3.18903e-17)
(113.409 -5.19593 0)
(113.571 -4.98205 -2.05231e-15)
(113.726 -4.77795 -1.58986e-17)
(113.873 -4.58321 2.01471e-15)
(114.011 -4.39751 1.58408e-17)
(114.14 -4.22029 -2.04034e-15)
(114.259 -4.05105 4.04249e-15)
(114.366 -3.8896 -3.1575e-17)
(114.463 -3.73572 -2.01391e-15)
(114.547 -3.58914 2.0257e-15)
(114.619 -3.44953 -2.02177e-15)
(114.678 -3.31655 0)
(114.724 -3.18991 7.66163e-22)
(114.756 -3.06928 0)
(114.776 -2.95437 -3.10712e-17)
(114.783 -2.84493 -9.76432e-16)
(114.778 -2.74073 9.74115e-16)
(114.76 -2.64157 0)
(114.73 -2.54724 9.99935e-16)
(114.69 -2.45752 -1.97931e-15)
(114.638 -2.37223 9.94641e-16)
(114.576 -2.29117 -3.05185e-17)
(114.505 -2.21418 -1.52158e-17)
(114.425 -2.14104 -1.51709e-17)
(114.337 -2.07159 -1.51257e-17)
(114.242 -2.00565 0)
(114.14 -1.94308 0)
(114.033 -1.88365 9.29038e-16)
(113.921 -1.82715 -1.91177e-15)
(113.805 -1.77352 9.22916e-16)
(113.686 -1.72268 0)
(113.565 -1.67453 9.46082e-16)
(113.442 -1.62885 -9.57549e-16)
(113.318 -1.58547 0)
(113.193 -1.54424 -1.46291e-17)
(113.068 -1.505 0)
(112.944 -1.46761 -9.2981e-16)
(112.821 -1.43196 1.83885e-15)
(112.698 -1.39794 -9.37997e-16)
(112.578 -1.36543 0)
(112.459 -1.33432 8.88793e-16)
(112.342 -1.30452 -9.14528e-16)
(112.227 -1.27594 8.34049e-23)
(112.114 -1.24851 0)
(112.003 -1.22216 1.41553e-17)
(111.895 -1.19682 -9.31414e-16)
(111.789 -1.17246 9.00505e-16)
(111.686 -1.14904 -1.40293e-17)
(111.585 -1.12649 0)
(111.486 -1.10477 -1.39503e-17)
(111.39 -1.08383 4.5909e-16)
(111.297 -1.06363 -4.57863e-16)
(111.206 -1.04418 -4.56633e-16)
(111.117 -1.02543 8.83285e-16)
(111.03 -1.0074 -8.80983e-16)
(110.946 -0.990059 8.78747e-16)
(110.864 -0.973409 -4.38259e-16)
(110.784 -0.957422 -4.12572e-23)
(110.706 -0.942104 0)
(110.63 -0.927402 -4.35035e-16)
(110.556 -0.91333 8.54382e-16)
(110.485 -0.899897 -8.65907e-16)
(110.415 -0.887055 4.4543e-16)
(110.347 -0.874771 -2.02007e-16)
(110.282 -0.863038 2.14979e-16)
(110.218 -0.851821 1.34065e-17)
(110.157 -0.841112 2.14016e-16)