/*--------------------------------*- C++ -*----------------------------------*\
  =========                 |
  \\      /  F ield         | OpenFOAM: The Open Source CFD Toolbox
   \\    /   O peration     | Website:  https://openfoam.org
    \\  /    A nd           | Version:  8
     \\/     M anipulation  |
\*---------------------------------------------------------------------------*/
FoamFile
{
    version     2.0;
    format      ascii;
    class       volScalarField;
    location    "2.999969291";
    object      alphat;
}
// * * * * * * * * * * * * * * * * * * * * * * * * * * * * * * * * * * * * * //

dimensions      [1 -1 -1 0 0 0 0];

internalField   nonuniform List<scalar> 
6800
(
0.00624254
0.016494
0.0221105
0.025296
0.0293738
0.0326434
0.0287124
0.0245862
0.0145788
0.0106535
0.00522213
0.0167509
0.0233847
0.0263401
0.0324165
0.0307542
0.0227109
0.01355
0.00958112
0.00870087
0.00655003
0.0190036
0.0241596
0.0291753
0.0332692
0.0226249
0.0129672
0.00959126
0.00834545
0.00743104
0.00711962
0.0208612
0.0255425
0.0310049
0.0262837
0.0156234
0.0118524
0.00925513
0.00731067
0.00636323
0.00778247
0.0220708
0.0263556
0.031373
0.0192904
0.0125515
0.0084305
0.00702133
0.00621955
0.00570877
0.00791161
0.0233031
0.0280385
0.0273256
0.0155014
0.00954857
0.00834466
0.00754463
0.0065454
0.00590072
0.00805619
0.0249986
0.0304842
0.0213155
0.0108706
0.00876805
0.00728067
0.00612533
0.00546611
0.00512756
0.00787623
0.0272304
0.0299922
0.0150617
0.0110091
0.00857427
0.00730856
0.00649485
0.00578192
0.00531671
0.0071474
0.0299159
0.0266557
0.014614
0.00877495
0.00736429
0.0065088
0.00566654
0.00509468
0.0048155
0.00721229
0.0322531
0.023522
0.0114145
0.0094513
0.00790758
0.00668756
0.00576315
0.0052864
0.00496356
0.0344262
0.147304
0.203739
0.219509
0.223996
0.224634
0.226861
0.230307
0.234117
0.235783
0.0330424
0.141975
0.197013
0.213104
0.215862
0.214545
0.214601
0.215994
0.217737
0.219179
0.0305479
0.130655
0.183176
0.200468
0.201373
0.198661
0.196835
0.195201
0.19305
0.193303
0.0275856
0.117671
0.166776
0.183027
0.182181
0.178697
0.17312
0.16912
0.163175
0.153753
0.0244779
0.104784
0.14972
0.159495
0.155727
0.148852
0.140121
0.130038
0.119282
0.0922083
0.0217794
0.0935656
0.126897
0.127653
0.119113
0.110368
0.0952268
0.0713774
0.0576402
0.0415385
0.0195042
0.0792823
0.0985631
0.0887827
0.077939
0.0562784
0.0416117
0.0349336
0.0340798
0.0290368
0.0183713
0.0626243
0.0577587
0.0476688
0.0338852
0.0316512
0.0312193
0.0292688
0.0293553
0.0259328
0.0159275
0.0335439
0.0268268
0.027136
0.0277509
0.0292036
0.0299616
0.0286358
0.0277657
0.0236829
0.0116742
0.0182996
0.0218182
0.0248838
0.0275844
0.0300692
0.0305008
0.0271998
0.026119
0.0167136
0.236947
0.237619
0.236256
0.234444
0.232719
0.23122
0.229939
0.22889
0.22807
0.227434
0.226942
0.226535
0.226189
0.225882
0.225589
0.225309
0.225032
0.22477
0.224514
0.22426
0.224007
0.223757
0.223515
0.223287
0.22308
0.222897
0.222743
0.222618
0.222519
0.222442
0.222383
0.222338
0.222297
0.222257
0.222208
0.222148
0.222074
0.221985
0.221879
0.221758
0.221626
0.221485
0.221335
0.221177
0.221009
0.220828
0.220631
0.220414
0.220176
0.219915
0.219636
0.21934
0.219033
0.218718
0.218402
0.218088
0.217777
0.217472
0.217175
0.216885
0.216604
0.216329
0.216062
0.215801
0.215546
0.215297
0.215054
0.214817
0.214587
0.214365
0.214152
0.213949
0.213756
0.213575
0.213406
0.21325
0.213107
0.212978
0.212863
0.212761
0.212673
0.2126
0.212539
0.212493
0.212458
0.212438
0.212426
0.212431
0.212436
0.212464
0.212478
0.21253
0.212542
0.212621
0.212618
0.212726
0.212691
0.212866
0.212572
0.213151
0.220582
0.221247
0.220489
0.219207
0.217953
0.216902
0.216083
0.215503
0.215108
0.214868
0.214746
0.214659
0.214623
0.214611
0.21459
0.214588
0.21459
0.214589
0.21458
0.214559
0.214529
0.214492
0.214456
0.214429
0.214418
0.21443
0.214468
0.214531
0.214614
0.214716
0.214836
0.214965
0.215092
0.21521
0.215311
0.215393
0.215453
0.215492
0.215511
0.215514
0.215511
0.215499
0.215477
0.215444
0.215397
0.215331
0.21524
0.215122
0.214972
0.214791
0.214584
0.214354
0.21411
0.213856
0.2136
0.213344
0.213092
0.212846
0.212607
0.212376
0.212151
0.211933
0.21172
0.211512
0.21131
0.211113
0.210922
0.210738
0.21056
0.210391
0.210231
0.21008
0.209941
0.209813
0.209697
0.209594
0.209503
0.209425
0.20936
0.209309
0.209271
0.209246
0.209234
0.209236
0.209248
0.209275
0.209309
0.20936
0.209409
0.209482
0.209538
0.209633
0.209683
0.209804
0.209836
0.209985
0.209982
0.210199
0.209926
0.210561
0.19687
0.196225
0.195089
0.193738
0.192599
0.191834
0.19142
0.191297
0.191368
0.191594
0.19193
0.192412
0.192968
0.193629
0.194348
0.195059
0.195735
0.196368
0.196955
0.1975
0.19801
0.198491
0.198957
0.199417
0.199882
0.200355
0.200836
0.201324
0.201807
0.202296
0.202793
0.20327
0.203716
0.204123
0.204492
0.204826
0.205125
0.205393
0.205636
0.205853
0.206045
0.206218
0.206376
0.206516
0.206634
0.206722
0.20677
0.206776
0.206735
0.206655
0.206543
0.206405
0.206252
0.206093
0.205928
0.20576
0.205593
0.20543
0.205273
0.205124
0.20498
0.20484
0.204706
0.204579
0.204459
0.204347
0.204241
0.204142
0.204052
0.203972
0.203902
0.203841
0.203791
0.203752
0.203723
0.203706
0.203699
0.203703
0.203717
0.203743
0.203779
0.203828
0.203888
0.203962
0.204044
0.204142
0.204245
0.204364
0.204478
0.204615
0.20473
0.204887
0.204991
0.205171
0.205251
0.205458
0.205494
0.205777
0.205527
0.206255
0.155389
0.156415
0.157932
0.158838
0.159854
0.161071
0.162445
0.163876
0.165302
0.166746
0.168154
0.169591
0.171024
0.172393
0.173683
0.174894
0.176027
0.177089
0.178077
0.179001
0.179866
0.180688
0.181484
0.182273
0.183067
0.18387
0.184681
0.185491
0.186301
0.18706
0.187755
0.188391
0.188972
0.189506
0.189994
0.19045
0.190874
0.191271
0.191648
0.192007
0.19236
0.192699
0.193038
0.193365
0.193675
0.19395
0.194174
0.194342
0.194449
0.194507
0.19452
0.194503
0.194468
0.194417
0.194371
0.194326
0.194289
0.194263
0.194249
0.194245
0.194259
0.19429
0.194334
0.194388
0.194448
0.194513
0.194582
0.194658
0.194744
0.194837
0.194935
0.19504
0.19515
0.195265
0.195386
0.195514
0.195647
0.195785
0.195929
0.19608
0.196238
0.196409
0.196588
0.196779
0.196976
0.197184
0.19739
0.197612
0.197821
0.198053
0.198255
0.198501
0.198684
0.198948
0.199095
0.199382
0.199479
0.199844
0.199624
0.200483
0.0919558
0.0938551
0.0960174
0.0989908
0.102198
0.10577
0.109407
0.11277
0.115902
0.118966
0.121847
0.124748
0.127553
0.130239
0.13277
0.135146
0.137377
0.139486
0.141456
0.143307
0.145032
0.146668
0.14826
0.149835
0.151407
0.152981
0.15454
0.156092
0.157595
0.159075
0.160504
0.161849
0.163089
0.164279
0.16539
0.166486
0.167527
0.168517
0.16947
0.170384
0.171296
0.172166
0.173056
0.173922
0.174769
0.175551
0.176235
0.176814
0.177288
0.177705
0.178041
0.178334
0.178611
0.178864
0.179116
0.179308
0.179486
0.179673
0.179864
0.18007
0.18029
0.180526
0.180774
0.181031
0.181294
0.18156
0.181831
0.1821
0.182363
0.182624
0.182884
0.183146
0.183411
0.183679
0.183951
0.184229
0.184509
0.18479
0.185072
0.185361
0.185658
0.185968
0.186286
0.186619
0.186954
0.187302
0.187642
0.187998
0.188334
0.188693
0.189013
0.189381
0.189672
0.190054
0.190306
0.190709
0.1909
0.19139
0.191241
0.192271
0.0424378
0.0444836
0.0466808
0.0494185
0.0518528
0.0542423
0.0566402
0.0594528
0.0624382
0.0656146
0.0688935
0.072345
0.0757642
0.0792162
0.0825626
0.0857565
0.0888307
0.0917889
0.0944891
0.09703
0.0993194
0.101545
0.103793
0.106077
0.108385
0.110723
0.113049
0.115388
0.117645
0.119889
0.122051
0.124046
0.125793
0.127703
0.129328
0.131307
0.133076
0.134766
0.136409
0.137981
0.139595
0.141095
0.1427
0.144254
0.145802
0.147248
0.14856
0.149709
0.150714
0.151753
0.152629
0.153406
0.154197
0.15489
0.15555
0.155952
0.156441
0.156921
0.157361
0.157857
0.158412
0.159002
0.159605
0.160215
0.160828
0.161444
0.162059
0.162673
0.163284
0.163894
0.164501
0.165102
0.165702
0.166294
0.166882
0.167468
0.168044
0.16861
0.169168
0.169729
0.170294
0.170873
0.171454
0.172047
0.172631
0.173226
0.173799
0.174386
0.174939
0.175513
0.176035
0.176604
0.177073
0.177638
0.178053
0.178631
0.178968
0.179637
0.179615
0.18085
0.029353
0.0297489
0.0303072
0.0308921
0.0317982
0.0327177
0.0333695
0.0342984
0.0351214
0.0362631
0.0376056
0.0390551
0.0404845
0.041955
0.0433571
0.0446264
0.0459924
0.0473377
0.0487667
0.0504661
0.051992
0.0537656
0.0559308
0.058241
0.0605441
0.0629537
0.0654184
0.067987
0.0705196
0.0730983
0.0756111
0.0781133
0.080487
0.0828736
0.0851288
0.0874737
0.0896861
0.0919609
0.0941333
0.0961822
0.0983385
0.100332
0.102803
0.105082
0.107385
0.109607
0.111668
0.113591
0.115084
0.117208
0.119013
0.120366
0.122336
0.123769
0.124767
0.12459
0.125754
0.126384
0.126704
0.12752
0.128533
0.129558
0.130559
0.131563
0.132591
0.133639
0.134693
0.135746
0.136787
0.137819
0.13884
0.139849
0.140854
0.14184
0.142816
0.143784
0.144731
0.14566
0.146577
0.147499
0.14842
0.149353
0.150275
0.151206
0.152109
0.153022
0.153889
0.154775
0.1556
0.156455
0.157231
0.158049
0.158747
0.159552
0.160187
0.16101
0.161542
0.162465
0.162644
0.16414
0.0258426
0.025693
0.0256018
0.0255911
0.025678
0.0257739
0.0259213
0.0260471
0.0261633
0.0261973
0.0262009
0.0260457
0.0258704
0.0254548
0.0251565
0.0248718
0.0247569
0.0246228
0.0245136
0.0244944
0.0244337
0.0246565
0.0251294
0.0255557
0.0259186
0.0265073
0.0273683
0.0284075
0.0294577
0.0306548
0.0318064
0.0331843
0.034409
0.03597
0.0372689
0.0389886
0.0404411
0.0423154
0.0439894
0.0464666
0.0486358
0.0512593
0.0544989
0.0567529
0.0605422
0.0628458
0.065777
0.0688424
0.0703062
0.0733654
0.0762468
0.0779986
0.0803509
0.0818237
0.0853509
0.0873357
0.0852934
0.085919
0.087199
0.0886236
0.0901156
0.0916609
0.0932178
0.0947861
0.0963489
0.0979069
0.0994656
0.100992
0.102548
0.104103
0.105601
0.107106
0.108603
0.110074
0.11152
0.112956
0.114358
0.115738
0.117086
0.118428
0.119748
0.121074
0.122369
0.123673
0.124925
0.1262
0.12739
0.128635
0.12975
0.13098
0.13193
0.132937
0.13387
0.135025
0.136
0.137164
0.137926
0.139194
0.139631
0.141433
0.0231729
0.0226373
0.0221647
0.021782
0.0214411
0.0210582
0.0206351
0.0201835
0.0197254
0.0192194
0.0187304
0.0181711
0.0176501
0.0170759
0.0164218
0.0157524
0.0150088
0.0143623
0.0138213
0.0133825
0.0129992
0.0127113
0.0124852
0.0123335
0.0122256
0.0121536
0.0121756
0.012171
0.0123369
0.01234
0.0124524
0.012665
0.0128786
0.0132392
0.0134599
0.0138619
0.0141625
0.0146559
0.0150492
0.0157988
0.0164236
0.0172286
0.0184184
0.0192909
0.0208481
0.0220453
0.0234549
0.0250447
0.0261783
0.027705
0.0292302
0.03056
0.0319422
0.0333021
0.0346637
0.0360139
0.0373197
0.0387758
0.0404209
0.042238
0.0441778
0.0462115
0.0482721
0.0503736
0.0524777
0.0545999
0.0567115
0.0588271
0.0609204
0.0630106
0.0650736
0.0671271
0.069149
0.0711561
0.0731173
0.0750689
0.0769662
0.0788534
0.0806546
0.082434
0.0841356
0.0858392
0.0874798
0.0891478
0.0907338
0.0923678
0.093891
0.0954905
0.0969474
0.0985095
0.0998959
0.101426
0.102682
0.104246
0.105417
0.107027
0.108051
0.109684
0.110462
0.1126
0.0161149
0.0154413
0.0147069
0.0139665
0.0132249
0.0126163
0.0121065
0.0116698
0.0112877
0.0109382
0.0106139
0.0102993
0.00999601
0.00969695
0.00940395
0.00911638
0.0088408
0.00858192
0.00834932
0.00814335
0.00796841
0.00782054
0.00770189
0.007604
0.00752791
0.00746735
0.00741821
0.0073783
0.00735302
0.00731582
0.00728658
0.00725211
0.00723437
0.00721619
0.00719334
0.00719738
0.00718165
0.00716022
0.00725427
0.00728786
0.00731064
0.00737297
0.00747157
0.00766988
0.00793601
0.008212
0.0085017
0.00881952
0.00908429
0.00939223
0.00967369
0.00995219
0.0102089
0.0104934
0.010791
0.0111408
0.0115285
0.0119932
0.0125097
0.0131102
0.0137593
0.0145065
0.0152942
0.016194
0.0171244
0.0181817
0.0192621
0.0204795
0.0217133
0.0230858
0.0244687
0.025988
0.0275101
0.0291619
0.0308027
0.0325655
0.0343008
0.0361485
0.0379716
0.0399375
0.0418471
0.043898
0.0458316
0.0479034
0.0498163
0.0518864
0.0537506
0.0558019
0.0575955
0.0596203
0.0613251
0.0633282
0.064918
0.0669116
0.0683744
0.0703869
0.0716809
0.0737638
0.0746036
0.0776065
0.00865337
0.00860244
0.00849249
0.00835413
0.00819674
0.00803336
0.00787284
0.00772089
0.00757865
0.00744469
0.00731627
0.00719039
0.00706578
0.00694163
0.00681952
0.00670029
0.00658704
0.0064805
0.00638372
0.00629552
0.00621849
0.0061495
0.00609084
0.00603823
0.00599366
0.00595299
0.00591789
0.00588465
0.00585562
0.00582619
0.00580081
0.00577304
0.00574944
0.00572422
0.00570077
0.0056797
0.00565618
0.00563729
0.00561783
0.00560676
0.00559174
0.00558323
0.00557436
0.00557789
0.00558503
0.00559927
0.00561007
0.00563228
0.00564355
0.00568633
0.00567945
0.00570606
0.00570506
0.00569918
0.00582908
0.00589165
0.00574469
0.00570277
0.00575621
0.00586345
0.00592176
0.00602543
0.00608436
0.00622639
0.0063073
0.00648396
0.00660302
0.00683156
0.00699246
0.00728541
0.00750254
0.00787562
0.00816271
0.00863061
0.00899489
0.0095681
0.0100166
0.0107088
0.0112527
0.0120826
0.0127319
0.0137125
0.0144699
0.0156061
0.0164657
0.0177571
0.0187095
0.0201508
0.0211822
0.0227638
0.0238566
0.0255728
0.0266964
0.028548
0.0296801
0.0316562
0.032734
0.0349616
0.0355656
0.0392841
0.0069338
0.00686548
0.0067686
0.00666606
0.00656374
0.00646556
0.00637419
0.0062908
0.00621441
0.0061433
0.00607498
0.0060078
0.00594085
0.00587417
0.00580877
0.00574564
0.00568638
0.00563157
0.00558229
0.0055382
0.00549968
0.00546568
0.00543617
0.00540977
0.00538642
0.00536465
0.0053447
0.00532526
0.00530663
0.00528802
0.0052696
0.0052511
0.00523254
0.00521423
0.00519574
0.00517799
0.00516023
0.0051439
0.00512798
0.00511399
0.00509978
0.00508825
0.005077
0.00507079
0.0050619
0.005058
0.00505001
0.00504337
0.00503088
0.00502182
0.00501504
0.00500218
0.00500131
0.00499861
0.00498911
0.00497457
0.00496571
0.00497206
0.00496946
0.00497502
0.00496435
0.0049723
0.00496157
0.00496833
0.00496202
0.00496103
0.004968
0.00496132
0.00498269
0.00500043
0.00500944
0.0050261
0.00502443
0.00506071
0.00507928
0.00511949
0.00514797
0.00519167
0.0052353
0.00532927
0.00538812
0.00551968
0.00559655
0.00576403
0.00585946
0.00607516
0.00619905
0.0064718
0.00663772
0.0069704
0.00718288
0.00758429
0.00783463
0.00834615
0.00865258
0.0092615
0.00955116
0.0104302
0.0103791
0.0122891
0.00595169
0.00592944
0.00589949
0.00586208
0.0058199
0.00577492
0.00572932
0.00568379
0.00563935
0.00559597
0.00555439
0.00551452
0.00547701
0.00544164
0.00540871
0.00537778
0.00534876
0.00532111
0.00529457
0.0052687
0.00524325
0.00521803
0.00519288
0.00516791
0.00514306
0.00511864
0.00509465
0.00507146
0.00504903
0.00502768
0.00500728
0.00498808
0.0049698
0.00495269
0.00493628
0.00492093
0.004906
0.00489204
0.0048782
0.00486529
0.00485231
0.00484031
0.0048281
0.0048169
0.00480549
0.00479518
0.00478473
0.0047754
0.00476609
0.00475764
0.00474936
0.0047416
0.00473423
0.00472693
0.00472036
0.00471352
0.00470728
0.00470096
0.00469426
0.00468806
0.00468047
0.00467467
0.00466623
0.00466072
0.0046518
0.00464703
0.00463834
0.00463482
0.00462575
0.00462426
0.00461561
0.00461522
0.00460667
0.004607
0.00459921
0.00460008
0.00459404
0.00459494
0.0045916
0.00459417
0.00459415
0.00459741
0.00460179
0.00460436
0.00461251
0.00463019
0.00463374
0.00464707
0.0046508
0.00466999
0.00468351
0.00470832
0.00473137
0.00476623
0.00479789
0.00485672
0.00487991
0.00498332
0.00492099
0.00519457
0.00536512
0.00535729
0.0053475
0.00533335
0.00531465
0.00529064
0.00526258
0.00523058
0.00519649
0.00516038
0.00512415
0.00508754
0.00505236
0.00501804
0.00498615
0.00495573
0.00492797
0.00490149
0.00487716
0.00485342
0.00483109
0.00480867
0.00478719
0.00476538
0.00474451
0.00472348
0.00470368
0.00468409
0.00466607
0.00464856
0.00463283
0.00461771
0.00460433
0.00459148
0.00458018
0.00456917
0.00455943
0.00454973
0.00454103
0.00453213
0.00452411
0.0045157
0.00450817
0.00450007
0.00449304
0.00448525
0.00447883
0.00447144
0.00446573
0.00445879
0.0044538
0.00444732
0.00444293
0.00443695
0.00443291
0.00442746
0.00442354
0.00441861
0.00441459
0.0044101
0.00440589
0.00440171
0.00439723
0.00439323
0.00438841
0.00438459
0.00437947
0.00437597
0.00437063
0.00436762
0.00436222
0.00435974
0.00435436
0.0043524
0.00434726
0.00434539
0.00434077
0.00433867
0.00433524
0.0043329
0.00433093
0.00432775
0.00432674
0.00432296
0.00432184
0.00431927
0.00431878
0.00431757
0.00431625
0.00431759
0.00431205
0.00431524
0.00430826
0.00431182
0.00430925
0.00430772
0.00430706
0.00432335
0.00431234
0.00432153
0.00494526
0.00494151
0.00493334
0.00492054
0.00490468
0.004886
0.00486616
0.00484504
0.00482405
0.00480258
0.00478175
0.0047606
0.00474018
0.00471936
0.00469929
0.00467881
0.00465925
0.0046394
0.00462074
0.00460196
0.00458459
0.00456718
0.00455131
0.00453535
0.00452091
0.00450624
0.00449301
0.00447937
0.0044671
0.00445428
0.00444279
0.00443067
0.00441991
0.00440846
0.00439844
0.00438771
0.00437848
0.00436852
0.00436012
0.00435094
0.00434337
0.00433495
0.00432817
0.00432045
0.00431439
0.00430728
0.00430185
0.00429525
0.00429036
0.00428417
0.00427974
0.00427388
0.00426983
0.00426424
0.00426048
0.00425513
0.00425159
0.00424646
0.00424308
0.00423814
0.00423489
0.00423012
0.00422699
0.00422238
0.00421935
0.00421489
0.00421198
0.00420766
0.00420486
0.00420067
0.00419801
0.00419394
0.00419145
0.00418748
0.00418521
0.00418132
0.0041793
0.00417549
0.00417371
0.00417001
0.00416849
0.00416485
0.00416366
0.00415995
0.00415918
0.00415537
0.00415485
0.00415129
0.00415051
0.00414767
0.00414631
0.00414394
0.00414252
0.00414
0.00413931
0.00413482
0.00413611
0.00413111
0.00413969
0.00411764
0.00463617
0.00463691
0.00463441
0.00462833
0.00461984
0.00460865
0.00459604
0.00458164
0.00456674
0.00455078
0.004535
0.00451861
0.00450276
0.00448648
0.00447097
0.00445512
0.00444017
0.00442492
0.0044107
0.00439619
0.00438286
0.00436926
0.00435697
0.00434445
0.00433332
0.00432192
0.00431195
0.00430159
0.00429262
0.00428311
0.00427494
0.00426606
0.00425849
0.00425008
0.00424302
0.00423501
0.0042284
0.00422076
0.00421462
0.00420738
0.0042017
0.00419485
0.00418963
0.00418315
0.00417833
0.00417218
0.00416773
0.00416187
0.00415773
0.00415213
0.00414825
0.00414287
0.00413922
0.00413405
0.00413061
0.00412562
0.00412237
0.00411755
0.00411448
0.00410981
0.00410692
0.00410236
0.00409965
0.00409519
0.00409264
0.00408826
0.00408589
0.00408156
0.00407938
0.00407509
0.0040731
0.00406887
0.00406706
0.00406293
0.00406125
0.0040573
0.0040557
0.004052
0.00405043
0.00404705
0.00404543
0.00404248
0.00404065
0.00403829
0.00403611
0.00403433
0.00403192
0.00403035
0.0040282
0.00402627
0.0040247
0.00402237
0.00402106
0.00401881
0.00401717
0.00401608
0.00401327
0.00401187
0.00399853
0.00401652
0.00442069
0.00442275
0.00442212
0.0044186
0.00441339
0.00440614
0.00439804
0.00438849
0.00437864
0.00436773
0.00435688
0.00434521
0.00433387
0.00432188
0.00431045
0.0042985
0.0042873
0.00427567
0.00426495
0.00425382
0.0042437
0.00423314
0.00422364
0.00421364
0.00420473
0.00419526
0.00418692
0.00417795
0.00417016
0.00416169
0.00415446
0.00414649
0.0041398
0.00413232
0.00412616
0.00411914
0.0041135
0.0041069
0.00410172
0.00409551
0.00409076
0.00408489
0.00408053
0.00407496
0.00407095
0.00406565
0.00406195
0.00405689
0.00405347
0.0040486
0.00404543
0.00404075
0.0040378
0.00403327
0.00403052
0.00402612
0.00402356
0.00401928
0.00401688
0.00401271
0.00401046
0.00400638
0.00400428
0.00400028
0.00399832
0.00399439
0.00399256
0.00398869
0.00398699
0.00398318
0.00398161
0.00397784
0.00397638
0.00397268
0.00397131
0.00396769
0.00396639
0.00396287
0.00396162
0.0039582
0.00395698
0.0039537
0.00395248
0.00394935
0.00394813
0.00394513
0.00394392
0.00394103
0.00393986
0.00393707
0.00393588
0.00393319
0.00393195
0.00392973
0.00392808
0.00392524
0.00392352
0.0039211
0.00391939
0.003917
0.00426637
0.00426894
0.00426975
0.00426816
0.00426527
0.0042606
0.00425522
0.00424847
0.00424142
0.0042333
0.0042252
0.00421623
0.00420754
0.00419814
0.00418922
0.0041797
0.00417085
0.00416148
0.00415293
0.00414389
0.00413576
0.00412713
0.00411947
0.00411128
0.00410411
0.00409634
0.00408962
0.00408225
0.00407598
0.00406899
0.00406314
0.00405651
0.00405108
0.0040448
0.00403977
0.00403382
0.00402916
0.00402352
0.00401921
0.00401383
0.00400983
0.00400468
0.00400095
0.003996
0.00399252
0.00398772
0.00398447
0.00397982
0.00397678
0.00397227
0.00396942
0.00396505
0.0039624
0.00395814
0.00395568
0.00395155
0.00394927
0.00394524
0.00394312
0.0039392
0.00393723
0.00393339
0.00393156
0.0039278
0.0039261
0.00392241
0.00392082
0.00391718
0.00391571
0.00391213
0.00391075
0.00390722
0.00390594
0.00390245
0.00390126
0.00389782
0.00389671
0.00389333
0.00389227
0.00388896
0.00388795
0.00388472
0.00388374
0.00388059
0.00387963
0.00387657
0.00387561
0.00387265
0.00387167
0.00386886
0.00386781
0.00386509
0.00386398
0.0038617
0.00386024
0.00385719
0.00385574
0.00385316
0.00385169
0.0038491
0.00415376
0.0041564
0.00415789
0.00415727
0.00415559
0.0041523
0.00414846
0.00414336
0.00413805
0.00413172
0.00412547
0.00411837
0.00411159
0.00410408
0.00409707
0.00408943
0.00408241
0.00407481
0.00406794
0.0040605
0.00405388
0.00404668
0.00404037
0.00403345
0.00402747
0.00402086
0.00401524
0.00400894
0.00400367
0.00399767
0.00399275
0.00398703
0.00398244
0.00397699
0.00397271
0.0039675
0.00396352
0.00395853
0.00395482
0.00395003
0.00394657
0.00394197
0.00393875
0.00393431
0.00393131
0.00392701
0.00392422
0.00392004
0.00391744
0.00391337
0.00391094
0.00390698
0.00390471
0.00390083
0.00389871
0.00389491
0.00389292
0.0038892
0.00388733
0.00388367
0.00388192
0.00387832
0.00387667
0.00387313
0.00387157
0.00386808
0.00386661
0.00386317
0.00386179
0.00385839
0.00385709
0.00385372
0.00385252
0.00384917
0.00384805
0.00384473
0.00384369
0.00384041
0.00383943
0.0038362
0.00383526
0.00383211
0.00383118
0.00382813
0.00382719
0.00382426
0.00382329
0.00382047
0.00381949
0.00381675
0.00381579
0.00381313
0.00381219
0.00380938
0.00380868
0.00380631
0.00380511
0.00380262
0.00380159
0.0037982
0.00406882
0.00407171
0.00407358
0.00407356
0.00407269
0.00407037
0.00406763
0.0040637
0.00405965
0.00405461
0.00404968
0.00404391
0.00403845
0.00403225
0.00402653
0.00402013
0.00401434
0.00400792
0.00400222
0.00399589
0.00399035
0.00398419
0.00397889
0.00397293
0.00396789
0.00396216
0.0039574
0.00395191
0.00394743
0.00394218
0.00393798
0.00393296
0.00392904
0.00392424
0.00392057
0.00391596
0.00391254
0.0039081
0.0039049
0.00390062
0.00389762
0.00389348
0.00389067
0.00388664
0.003884
0.00388008
0.00387761
0.00387378
0.00387147
0.00386772
0.00386555
0.00386189
0.00385985
0.00385626
0.00385435
0.00385082
0.00384902
0.00384556
0.00384386
0.00384046
0.00383884
0.00383549
0.00383395
0.00383065
0.00382919
0.00382593
0.00382454
0.00382131
0.00381999
0.00381679
0.00381555
0.00381237
0.0038112
0.00380804
0.00380695
0.00380381
0.00380277
0.00379967
0.00379868
0.00379563
0.00379467
0.00379168
0.00379075
0.00378782
0.00378691
0.00378404
0.00378313
0.00378038
0.00377942
0.00377679
0.00377579
0.00377328
0.0037723
0.00376958
0.00376889
0.00376658
0.0037655
0.00376293
0.00376189
0.00375857
0.00400424
0.00400721
0.0040093
0.00400967
0.00400936
0.00400769
0.0040057
0.00400258
0.00399939
0.00399524
0.00399124
0.00398641
0.00398192
0.00397669
0.00397195
0.00396652
0.00396171
0.00395623
0.00395145
0.00394602
0.00394136
0.00393604
0.00393156
0.00392638
0.00392211
0.0039171
0.00391304
0.0039082
0.00390437
0.0038997
0.00389608
0.00389158
0.00388818
0.00388383
0.00388063
0.00387642
0.00387341
0.00386934
0.00386652
0.00386256
0.00385991
0.00385607
0.00385357
0.00384983
0.00384748
0.00384383
0.00384161
0.00383804
0.00383594
0.00383245
0.00383047
0.00382704
0.00382516
0.0038218
0.00382
0.00381671
0.003815
0.00381177
0.00381012
0.00380695
0.00380537
0.00380226
0.00380074
0.00379767
0.00379621
0.00379317
0.00379179
0.00378878
0.00378746
0.00378447
0.00378321
0.00378026
0.00377904
0.00377613
0.00377494
0.0037721
0.00377091
0.00376816
0.00376694
0.00376432
0.00376305
0.00376051
0.00375929
0.00375673
0.00375562
0.00375305
0.00375194
0.00374957
0.00374818
0.00374626
0.00374448
0.00374294
0.00374098
0.00373938
0.00373791
0.00373504
0.00373492
0.00373216
0.0037309
0.00372789
0.00395612
0.00395889
0.003961
0.00396154
0.00396155
0.0039603
0.00395882
0.00395627
0.0039537
0.00395021
0.0039469
0.00394277
0.00393899
0.00393447
0.00393043
0.0039257
0.00392156
0.00391674
0.00391262
0.0039078
0.00390376
0.00389902
0.00389511
0.00389047
0.00388672
0.0038822
0.00387863
0.00387425
0.00387086
0.00386661
0.00386341
0.00385929
0.00385627
0.00385226
0.00384942
0.00384553
0.00384285
0.00383905
0.00383654
0.00383283
0.00383047
0.00382684
0.00382461
0.00382106
0.00381896
0.00381548
0.0038135
0.00381008
0.0038082
0.00380484
0.00380305
0.00379976
0.00379805
0.00379482
0.00379318
0.00379001
0.00378843
0.00378531
0.00378379
0.00378073
0.00377926
0.00377624
0.00377483
0.00377185
0.00377049
0.00376753
0.00376625
0.00376328
0.00376209
0.0037591
0.00375801
0.00375501
0.00375398
0.00375101
0.00374999
0.00374712
0.00374603
0.00374334
0.00374212
0.00373964
0.00373825
0.00373605
0.00373441
0.00373255
0.00373064
0.00372908
0.00372702
0.00372554
0.0037236
0.003722
0.0037202
0.00371866
0.00371665
0.00371543
0.00371317
0.00371318
0.00370829
0.00370906
0.00369783
0.00371412
0.00391926
0.00392189
0.00392396
0.00392461
0.00392482
0.00392385
0.00392271
0.00392054
0.0039184
0.00391536
0.00391253
0.00390889
0.00390561
0.00390159
0.00389805
0.00389382
0.00389017
0.00388583
0.00388217
0.00387782
0.00387421
0.0038699
0.0038664
0.00386217
0.00385879
0.00385465
0.00385143
0.00384739
0.00384432
0.00384039
0.00383747
0.00383364
0.00383087
0.00382715
0.00382453
0.00382089
0.00381841
0.00381485
0.00381251
0.00380902
0.00380682
0.00380339
0.00380132
0.00379794
0.003796
0.00379266
0.00379083
0.00378752
0.00378582
0.00378253
0.00378093
0.00377767
0.00377618
0.00377293
0.00377154
0.0037683
0.00376701
0.00376378
0.00376257
0.00375936
0.00375823
0.00375503
0.00375397
0.00375078
0.00374979
0.0037466
0.00374569
0.00374249
0.00374167
0.00373845
0.00373771
0.00373447
0.00373382
0.00373056
0.00372999
0.00372671
0.00372622
0.00372294
0.00372249
0.00371927
0.00371878
0.0037157
0.00371509
0.00371223
0.00371143
0.00370882
0.00370788
0.00370535
0.00370455
0.00370179
0.00370139
0.00369824
0.0036981
0.00369505
0.00369485
0.0036914
0.00369173
0.00368931
0.00367768
0.0036929
0.00389112
0.00389359
0.00389556
0.00389622
0.0038965
0.00389569
0.00389474
0.00389282
0.00389094
0.0038882
0.00388566
0.00388235
0.00387939
0.00387571
0.0038725
0.0038686
0.00386528
0.00386127
0.00385792
0.00385389
0.00385059
0.00384658
0.00384336
0.00383941
0.00383631
0.00383243
0.00382946
0.00382567
0.00382283
0.00381914
0.00381644
0.00381283
0.00381026
0.00380674
0.0038043
0.00380086
0.00379855
0.00379517
0.00379298
0.00378967
0.0037876
0.00378434
0.00378238
0.00377916
0.00377731
0.00377413
0.00377239
0.00376922
0.00376759
0.00376443
0.00376292
0.00375975
0.00375835
0.00375518
0.00375389
0.00375072
0.0037495
0.00374635
0.0037452
0.00374207
0.00374097
0.00373788
0.00373682
0.00373375
0.00373274
0.00372968
0.00372874
0.00372567
0.00372481
0.00372169
0.00372096
0.00371777
0.00371717
0.0037139
0.00371343
0.00371011
0.00370973
0.0037064
0.00370607
0.00370275
0.00370248
0.00369914
0.00369897
0.00369553
0.00369557
0.00369196
0.00369222
0.00368851
0.00368879
0.00368526
0.00368534
0.00368201
0.00368195
0.00367892
0.00367896
0.00367517
0.00367482
0.00367224
0.00367111
0.00366819
0.00386822
0.00387053
0.0038724
0.00387303
0.00387337
0.00387264
0.00387183
0.00387006
0.00386838
0.00386584
0.00386353
0.00386045
0.00385774
0.00385431
0.00385136
0.00384772
0.00384466
0.00384091
0.00383782
0.00383405
0.00383099
0.00382723
0.00382425
0.00382054
0.00381766
0.00381401
0.00381125
0.00380767
0.00380503
0.00380153
0.00379901
0.00379558
0.00379319
0.00378981
0.00378754
0.00378423
0.00378207
0.00377881
0.00377677
0.00377356
0.00377161
0.00376845
0.0037666
0.00376347
0.00376171
0.00375861
0.00375694
0.00375387
0.00375228
0.00374923
0.00374773
0.00374468
0.00374327
0.00374023
0.00373889
0.00373586
0.00373459
0.00373159
0.00373037
0.00372739
0.00372621
0.00372326
0.00372212
0.00371919
0.0037181
0.00371518
0.00371415
0.00371122
0.00371026
0.0037073
0.00370645
0.00370344
0.00370269
0.00369964
0.00369897
0.0036959
0.00369529
0.00369225
0.00369165
0.00368867
0.00368807
0.00368511
0.0036846
0.00368153
0.00368125
0.003678
0.00367787
0.00367469
0.00367435
0.00367159
0.00367082
0.00366843
0.00366754
0.00366514
0.00366465
0.00366068
0.00366182
0.00365703
0.00366554
0.00364504
0.00384947
0.00385162
0.0038534
0.003854
0.00385438
0.00385374
0.00385305
0.00385143
0.00384992
0.00384757
0.00384548
0.00384262
0.00384015
0.00383694
0.00383424
0.00383083
0.003828
0.00382448
0.00382162
0.00381805
0.00381521
0.00381164
0.00380885
0.00380531
0.0038026
0.0037991
0.00379649
0.00379304
0.00379053
0.00378713
0.00378472
0.00378137
0.00377907
0.00377576
0.00377357
0.00377031
0.00376822
0.00376499
0.00376301
0.00375982
0.00375793
0.00375477
0.00375297
0.00374985
0.00374813
0.00374503
0.00374339
0.00374033
0.00373875
0.00373572
0.0037342
0.00373121
0.00372975
0.00372679
0.00372538
0.00372245
0.00372109
0.0037182
0.00371688
0.00371401
0.00371275
0.0037099
0.0037087
0.00370584
0.00370471
0.00370185
0.0037008
0.00369791
0.00369695
0.00369403
0.00369316
0.00369021
0.00368941
0.00368647
0.0036857
0.00368281
0.00368201
0.00367924
0.00367835
0.00367577
0.0036747
0.00367241
0.00367104
0.00366917
0.00366741
0.00366596
0.00366394
0.00366259
0.00366078
0.00365907
0.00365777
0.00365565
0.00365458
0.00365258
0.00365115
0.00365021
0.00364778
0.00364644
0.00363495
0.00365084
0.00383591
0.00383784
0.00383949
0.00384001
0.00384038
0.00383974
0.00383911
0.00383757
0.00383616
0.00383391
0.00383194
0.00382919
0.00382683
0.00382373
0.00382112
0.0038178
0.00381504
0.00381157
0.00380875
0.00380521
0.00380239
0.00379882
0.00379602
0.00379245
0.0037897
0.00378616
0.00378349
0.00377998
0.00377739
0.00377393
0.00377145
0.00376804
0.00376567
0.00376232
0.00376006
0.00375676
0.00375462
0.00375137
0.00374934
0.00374614
0.00374421
0.00374106
0.00373922
0.0037361
0.00373434
0.00373126
0.00372959
0.00372654
0.00372495
0.00372194
0.00372043
0.00371745
0.00371602
0.00371307
0.00371172
0.00370879
0.00370752
0.00370461
0.00370341
0.00370051
0.00369938
0.0036965
0.00369543
0.00369257