/*--------------------------------*- C++ -*----------------------------------*\
  =========                 |
  \\      /  F ield         | OpenFOAM: The Open Source CFD Toolbox
   \\    /   O peration     | Website:  https://openfoam.org
    \\  /    A nd           | Version:  8
     \\/     M anipulation  |
\*---------------------------------------------------------------------------*/
FoamFile
{
    version     2.0;
    format      ascii;
    class       volScalarField;
    location    "2.999969291";
    object      epsilon;
}
// * * * * * * * * * * * * * * * * * * * * * * * * * * * * * * * * * * * * * //

dimensions      [0 2 -3 0 0 0 0];

internalField   nonuniform List<scalar> 
6800
(
471.726
1060.44
1005.74
850.446
652.832
446.043
272.474
135.973
68.7456
37.1164
397.506
930.246
869.71
727.205
484.396
278.182
134.949
65.7262
32.6609
18.3444
497.633
840.133
777.415
577.451
332.481
162.008
77.0558
35.9719
17.9669
10.3035
548.477
733.541
661.377
443.997
215.638
94.2741
38.2378
18.4173
10.308
6.86397
596.606
673.384
593.224
330.345
135.03
51.317
23.3077
12.4769
7.68653
5.56074
627.898
634.274
514.806
219.123
80.5437
32.985
15.3155
8.64221
5.81054
4.54265
662.447
619.448
430.083
158.353
56.6098
21.6805
11.1614
7.26465
5.17733
4.20662
677.802
603.245
352.146
110.38
34.5507
15.5086
9.20841
5.97649
4.42662
3.77106
703.915
601.152
290.8
81.8507
28.0707
13.2872
7.71882
5.36447
4.2075
3.64233
691.492
598.829
235.626
58.9527
19.4392
10.5844
6.87066
4.9231
3.85785
3.39564
2582.53
1265.6
991.123
914.739
910.956
965.935
1042.17
1118.29
1167.84
1190.62
2479.35
1214.71
977.071
928.899
972.879
1087.58
1238.92
1400.21
1542.92
1623.8
2293.11
1144.85
957.319
961.099
1092.99
1310.99
1569.3
1808
2001.97
2092.2
2071.72
1072.23
947.648
1047.58
1311.89
1661.35
1966.37
2130.63
2202.94
2177.86
1839.1
1032.93
1015.2
1290.08
1758
2138.87
2248.86
2222.5
2071.5
1798.08
1636.38
1080.3
1301.93
1884.82
2341.69
2356.98
2226.58
1867.75
1580.39
1030.72
1465.44
1330.75
2013.87
2547.81
2432.22
2090.45
1549.83
1026.11
791.112
512.685
1381.4
1910.29
2622.83
2385.63
1728.68
1157.53
840.646
596.36
481.566
314.411
1197.64
2234
1990.2
1386.24
1026.66
769.951
583.235
427.441
341.334
194.206
874.405
1515.09
1282.35
1017.57
792.453
608.565
438.104
301.756
174.496
81.6663
1189.8
1110.2
1029.96
958.89
898.346
847.041
802.094
762.959
729.045
699.189
672.581
648.618
626.756
606.565
587.731
570.005
553.219
537.211
521.872
507.132
492.945
479.289
466.149
453.526
441.415
429.815
418.711
408.086
397.912
388.154
378.775
369.736
361.003
352.541
344.327
336.337
328.558
320.978
313.59
306.39
299.38
292.556
285.919
279.466
273.193
267.094
261.16
255.385
249.761
244.283
238.948
233.757
228.709
223.808
219.053
214.445
209.981
205.661
201.478
197.431
193.512
189.718
186.043
182.482
179.03
175.682
172.435
169.285
166.228
163.263
160.386
157.595
154.888
152.263
149.717
147.249
144.856
142.536
140.285
138.102
135.983
133.927
131.931
129.99
128.105
126.27
124.486
122.743
121.051
119.389
117.781
116.184
114.661
113.105
111.679
110.126
108.845
107.191
106.244
103.917
1640.75
1522.05
1398.71
1290.18
1197.68
1119.89
1053.57
997.074
947.927
904.709
866.234
831.779
800.41
771.49
744.572
719.272
695.327
672.548
650.804
630.012
610.11
591.065
572.846
555.44
538.825
522.979
507.866
493.443
479.667
466.474
453.808
441.62
429.872
418.526
407.554
396.931
386.642
376.672
367.013
357.655
348.595
339.823
331.334
323.114
315.156
307.446
299.973
292.725
285.692
278.868
272.25
265.838
259.628
253.623
247.818
242.213
236.801
231.576
226.531
221.66
216.955
212.409
208.015
203.767
199.657
195.682
191.833
188.108
184.501
181.009
177.627
174.352
171.181
168.109
165.135
162.255
159.464
156.761
154.142
151.603
149.141
146.753
144.436
142.185
140
137.874
135.808
133.792
131.835
129.914
128.058
126.215
124.461
122.669
121.03
119.246
117.778
115.884
114.804
112.153
2101.62
1989.95
1835.36
1697.72
1579.43
1478.72
1392.27
1317.69
1252.16
1194
1141.8
1094.31
1050.73
1010.38
972.666
937.134
903.457
871.417
840.868
811.711
783.877
757.327
732.023
707.942
685.048
663.29
642.603
622.907
604.128
586.132
568.827
552.186
536.168
520.724
505.822
491.43
477.531
464.106
451.148
438.645
426.595
414.98
403.796
393.017
382.627
372.596
362.899
353.51
344.41
335.588
327.041
318.77
310.772
303.051
295.608
288.44
281.532
274.878
268.465
262.286
256.33
250.589
245.051
239.71
234.554
229.576
224.767
220.122
215.632
211.292
207.096
203.039
199.116
195.322
191.653
188.103
184.669
181.344
178.125
175.006
171.985
169.056
166.216
163.459
160.785
158.183
155.658
153.193
150.804
148.459
146.196
143.947
141.812
139.628
137.638
135.466
133.691
131.392
130.09
126.888
2182.43
2113.97
1973.16
1842.23
1727.77
1627.97
1540.71
1464.25
1396.38
1335.53
1280.34
1229.92
1183.34
1139.84
1098.84
1059.96
1022.94
987.595
953.819
921.53
890.692
861.28
833.261
806.611
781.283
757.209
734.295
712.456
691.543
671.6
652.533
634.186
616.471
599.329
582.725
566.639
551.061
535.985
521.409
507.331
493.752
480.653
468.026
455.83
444.04
432.611
421.514
410.718
400.206
389.979
380.049
370.425
361.105
352.106
343.418
335.039
326.957
319.166
311.653
304.41
297.425
290.69
284.193
277.924
271.872
266.029
260.386
254.93
249.651
244.547
239.61
234.838
230.223
225.759
221.441
217.262
213.217
209.299
205.504
201.825
198.259
194.8
191.444
188.184
185.02
181.939
178.948
176.024
173.191
170.403
167.718
165.042
162.507
159.906
157.548
154.96
152.859
150.125
148.59
144.776
1718.25
1622.7
1530.41
1453.65
1389.52
1335.07
1287.24
1244.14
1204.42
1167.84
1133.42
1101.25
1070.52
1040.83
1011.9
983.678
956.156
929.364
903.342
878.067
853.709
830.245
807.686
786.075
765.414
745.659
726.73
708.532
690.985
673.942
657.346
641.168
625.363
609.94
594.884
580.199
565.89
551.969
538.452
525.359
512.698
500.478
488.684
477.26
466.189
455.396
444.841
434.487
424.315
414.327
404.561
395.031
385.748
376.74
368.001
359.535
351.352
343.448
335.821
328.469
321.379
314.54
307.934
301.551
295.375
289.401
283.611
278.012
272.598
267.358
262.282
257.364
252.595
247.97
243.482
239.127
234.897
230.787
226.792
222.909
219.135
215.465
211.897
208.42
205.038
201.734
198.519
195.365
192.304
189.278
186.364
183.44
180.681
177.82
175.243
172.379
170.083
167.05
165.371
161.125
929.687
838.893
772.461
727.732
697.072
675.509
660.765
651.05
644.77
640.813
638.115
636.448
634.683
632.658
629.874
626.337
622.049
617.122
611.648
605.375
599.08
592.215
584.967
577.662
570.473
563.419
556.446
549.547
542.587
535.604
528.477
521.177
513.707
506.113
498.468
490.762
483.027
475.303
467.653
460.127
452.716
445.483
438.306
431.182
424.162
417.126
410
402.78
395.471
388.049
380.668
373.327
366.031
358.899
351.965
345.186
338.636
332.324
326.225
320.319
314.591
309.032
303.626
298.364
293.236
288.237
283.36
278.602
273.958
269.422
264.996
260.678
256.467
252.36
248.354
244.445
240.628
236.898
233.255
229.698
226.226
222.834
219.522
216.279
213.111
209.998
206.958
203.956
201.037
198.127
195.326
192.486
189.817
187.011
184.508
181.677
179.439
176.431
174.791
170.544
474.029
432.016
397.561
370.105
349.105
332.022
317.953
306.885
297.857
290.393
284.318
279.209
274.559
270.393
266.592
263.007
260.062
257.439
255.603
253.699
253.508
253.734
254.429
256.227
259.17
262.769
266.679
270.861
275.033
279.188
283.08
286.762
290.008
292.983
295.545
297.821
299.752
301.364
302.802
303.93
304.955
305.364
305.394
305.246
305.219
304.702
303.672
302.153
300.517
298.499
296.113
293.669
291.137
288.177
285.2
281.679
278.29
274.868
271.559
268.46
265.536
262.718
259.956
257.223
254.499
251.788
249.067
246.353
243.648
240.949
238.264
235.594
232.941
230.31
227.705
225.123
222.559
220.015
217.496
215.008
212.552
210.126
207.73
205.356
203.009
200.672
198.368
196.058
193.796
191.503
189.289
187
184.854
182.542
180.498
178.122
176.268
173.72
172.355
168.683
291.097
264.521
241.302
221.432
204.326
189.363
176.341
164.841
154.706
145.438
137.084
129.176
122.223
115.677
109.671
104.098
99.2906
94.9547
91.2432
87.9381
85.2391
82.9467
81.3425
80.3165
80.0807
80.2169
80.7262
81.7668
83.3017
85.2889
87.4044
89.9145
92.3292
95.1879
97.8524
100.919
103.965
107.183
110.606
114.41
118.114
122.703
127.408
132.706
137.855
143.294
147.795
152.594
156.406
160.304
163.75
165.419
169.808
171.583
173.046
171.79
173.762
172.567
172.384
173.005
173.948
174.925
175.807
176.56
177.159
177.633
177.945
178.185
178.232
178.166
178.083
177.889
177.607
177.267
176.862
176.398
175.864
175.271
174.621
173.932
173.199
172.433
171.622
170.774
169.879
168.943
167.964
166.938
165.886
164.769
163.664
162.453
161.306
159.999
158.844
157.431
156.342
154.779
153.954
151.597
177.94
160.157
144.155
130.133
117.772
106.784
96.9436
88.1101
80.1109
72.8836
66.2503
60.2736
54.7238
49.7763
45.4952
41.7383
38.4506
35.5558
33.0346
30.8411
28.9433
27.3229
25.9469
24.8131
23.8611
23.1155
22.5124
22.0767
21.7656
21.5863
21.5238
21.5108
21.6084
21.8261
22.1293
22.5925
23.0847
23.7104
24.3822
25.3759
26.3238
27.6252
29.0753
30.5898
32.4644
34.3028
36.2417
38.3387
40.1547
42.2882
44.2881
46.0887
48.1037
50.0143
51.9555
53.8625
55.9757
58.2081
60.5646
63.0685
65.6333
68.2872
70.9896
73.7401
76.4827
79.2299
81.9325
84.6056
87.2054
89.7462
92.1898
94.5568
96.8076
98.9691
101.003
102.944
104.747
106.453
108.02
109.495
110.834
112.086
113.181
114.194
115.054
115.848
116.495
117.09
117.548
117.958
118.254
118.495
118.662
118.699
118.728
118.61
118.586
118.426
118.365
117.946
73.5267
65.0244
57.3735
50.8153
45.2498
40.5463
36.5689
33.1876
30.2838
27.7523
25.5104
23.4906
21.6485
19.9533
18.394
16.961
15.6482
14.4528
13.3707
12.3988
11.5305
10.7634
10.0893
9.50336
8.99507
8.55919
8.18405
7.86829
7.59139
7.36554
7.15687
6.98491
6.81523
6.67798
6.54255
6.43306
6.31583
6.21869
6.12664
6.12381
6.14016
6.17043
6.23738
6.37732
6.68347
7.07966
7.50442
7.97423
8.4286
8.87253
9.25556
9.59847
9.8824
10.1436
10.3937
10.6862
11.0285
11.4585
11.9536
12.5501
13.1988
13.9509
14.7374
15.6376
16.5611
17.6123
18.6801
19.8871
21.1064
22.4716
23.8422
25.361
26.8735
28.532
30.1656
31.9412
33.6657
35.5259
37.3057
39.2211
41.0259
42.968
44.7846
46.7462
48.5365
50.4736
52.1924
54.0685
55.6787
57.4675
58.9398
60.6276
61.9432
63.526
64.6635
66.1506
67.1052
68.519
69.3349
70.8034
21.0786
20.1964
19.1747
18.0885
16.9886
15.9118
14.8832
13.9151
13.0133
12.1758
11.3987
10.6754
10.0004
9.36896
8.77818
8.22633
7.71278
7.23725
6.79958
6.39894
6.03444
5.70406
5.40588
5.137
4.89484
4.67646
4.47891
4.30015
4.13682
3.9883
3.85087
3.7251
3.6074
3.49854
3.39648
3.30091
3.2112
3.12629
3.04726
2.97352
2.90671
2.84471
2.78944
2.74137
2.70324
2.67538
2.65391
2.63938
2.63194
2.62147
2.62923
2.62734
2.64937
2.66139
2.66211
2.66312
2.71372
2.74031
2.73616
2.74488
2.7664
2.82432
2.87019
2.95837
3.02328
3.15175
3.23808
3.41142
3.53069
3.75301
3.91203
4.1929
4.39902
4.74879
5.00974
5.43953
5.76298
6.28202
6.66929
7.28256
7.73753
8.45323
8.97936
9.80366
10.4013
11.3361
12.001
13.0438
13.7685
14.9127
15.6859
16.9232
17.7324
19.0535
19.879
21.2611
22.0868
23.5
24.4454
26.0478
11.6307
10.9596
10.2944
9.65036
9.042
8.47736
7.96156
7.49408
7.07306
6.69247
6.34637
6.0276
5.73058
5.45067
5.18495
4.93193
4.69105
4.46258
4.24694
4.04468
3.85616
3.68147
3.52045
3.3726
3.23729
3.11361
3.00065
2.89725
2.80255
2.71529
2.63483
2.55991
2.49006
2.42428
2.36221
2.30302
2.24642
2.192
2.13959
2.08921
2.04056
1.99392
1.94903
1.90733
1.8685
1.83373
1.80212
1.77406
1.74809
1.72256
1.69851
1.67667
1.65232
1.62947
1.60949
1.59249
1.57302
1.55383
1.53536
1.52147
1.50788
1.49702
1.48533
1.47666
1.46599
1.46004
1.4499
1.44577
1.43901
1.4351
1.43726
1.43742
1.44728
1.4507
1.45741
1.47277
1.48695
1.51761
1.53719
1.57994
1.60774
1.67076
1.71018
1.79796
1.85153
1.966
2.03432
2.17834
2.26094
2.43703
2.53811
2.74741
2.86874
3.12157
3.26141
3.54562
3.74089
4.0437
4.36607
4.84775
7.05971
6.76555
6.46821
6.17395
5.88866
5.61487
5.35333
5.10336
4.86454
4.63632
4.41895
4.21271
4.01836
3.83622
3.6667
3.50946
3.36419
3.22993
3.10591
2.99094
2.88419
2.7846
2.6915
2.60409
2.5219
2.44434
2.37114
2.30185
2.23631
2.17418
2.11537
2.05959
2.0068
1.9567
1.90931
1.86432
1.82173
1.78124
1.74285
1.70623
1.6714
1.63803
1.60613
1.57544
1.54593
1.51742
1.48991
1.4633
1.43757
1.41273
1.38867
1.36545
1.34293
1.32122
1.30006
1.27973
1.25985
1.24082
1.22224
1.20457
1.18722
1.17077
1.15452
1.1392
1.1239
1.10963
1.09515
1.08177
1.06813
1.05558
1.04274
1.03115
1.01928
1.00859
0.997683
0.987939
0.97806
0.969523
0.960726
0.953376
0.945813
0.940122
0.93389
0.930225
0.9255
0.923978
0.923874
0.924327
0.926202
0.929395
0.932728
0.939105
0.943791
0.955377
0.962266
0.977433
0.989556
1.0061
1.03573
1.07475
4.75122
4.60786
4.45418
4.2936
4.13173
3.97277
3.82001
3.67474
3.53768
3.40814
3.28549
3.16844
3.0564
2.94856
2.84506
2.74572
2.65119
2.56147
2.4772
2.39812
2.32452
2.25574
2.19176
2.1317
2.0754
2.02197
1.97134
1.92278
1.87637
1.83157
1.78861
1.74707
1.70731
1.66892
1.63231
1.59706
1.56357
1.53138
1.50087
1.47151
1.4437
1.41684
1.39136
1.36661
1.34306
1.32005
1.2981
1.27657
1.25598
1.23574
1.21637
1.19731
1.17903
1.16105
1.14378
1.1268
1.11046
1.09438
1.07891
1.06369
1.04903
1.03459
1.0207
1.00701
0.993851
0.980835
0.968345
0.955919
0.944041
0.932116
0.920783
0.909313
0.898468
0.887437
0.877021
0.866468
0.856453
0.846427
0.836693
0.827304
0.817835
0.809163
0.80019
0.792276
0.783713
0.776377
0.768156
0.761632
0.753902
0.74782
0.741121
0.735261
0.729181
0.723451
0.717282
0.710858
0.705495
0.696945
0.690476
0.683081
3.5425
3.46145
3.37488
3.28408
3.19134
3.09804
3.00544
2.91398
2.82447
2.73712
2.6526
2.57098
2.4928
2.41791
2.34667
2.27869
2.21419
2.15265
2.09422
2.03835
1.98525
1.93438
1.88604
1.83971
1.79574
1.7536
1.71368
1.6754
1.63915
1.60432
1.57132
1.53949
1.50928
1.48
1.45216
1.42505
1.39924
1.37399
1.34994
1.32632
1.30382
1.28164
1.26054
1.23968
1.21985
1.20017
1.1815
1.16291
1.14532
1.12772
1.11111
1.09443
1.07872
1.06289
1.04801
1.03295
1.01884
1.00449
0.991093
0.97739
0.964648
0.951534
0.939405
0.926825
0.915272
0.903178
0.892166
0.880517
0.870012
0.858774
0.848749
0.837893
0.828321
0.817823
0.808684
0.798521
0.789797
0.779952
0.771625
0.762082
0.754142
0.74488
0.737326
0.728324
0.721149
0.712385
0.70558
0.697021
0.690602
0.682186
0.676182
0.667882
0.662257
0.654052
0.648748
0.640662
0.635763
0.627716
0.622484
0.613673
2.87765
2.82454
2.76718
2.70616
2.6431
2.579
2.51495
2.45136
2.38889
2.32764
2.26805
2.21
2.15385
2.09936
2.04688
1.99614
1.94748
1.90057
1.85572
1.81254
1.7713
1.73154
1.69356
1.65686
1.62177
1.58779
1.55531
1.5238
1.49371
1.46449
1.43664
1.40955
1.38374
1.35859
1.33465
1.31123
1.28893
1.26703
1.24618
1.22563
1.20607
1.1867
1.1683
1.15001
1.13266
1.11535
1.09897
1.08256
1.06708
1.0515
1.03684
1.02202
1.00812
0.993981
0.980776
0.96726
0.954688
0.941735
0.929743
0.917301
0.905847
0.893871
0.882921
0.871373
0.860903
0.84975
0.839738
0.828951
0.819381
0.808935
0.79979
0.789666
0.780929
0.771108
0.76276
0.753229
0.745254
0.735991
0.728383
0.719363
0.71212
0.703314
0.696443
0.687824
0.681332
0.672882
0.66676
0.658486
0.652687
0.644633
0.639102
0.63129
0.626023
0.6184
0.61344
0.605966
0.6012
0.593886
0.590597
0.579356
2.49074
2.45127
2.40887
2.36368
2.31678
2.26872
2.22029
2.1717
2.12355
2.0759
2.02924
1.9835
1.93907
1.89577
1.85392
1.81325
1.77407
1.73604
1.69947
1.66398
1.6299
1.59682
1.56509
1.53427
1.50474
1.47603
1.44852
1.42173
1.39608
1.37104
1.34706
1.32359
1.30113
1.27907
1.25798
1.2372
1.21735
1.19774
1.17903
1.16049
1.14282
1.12524
1.10852
1.09183
1.07599
1.0601
1.04508
1.02994
1.01566
1.0012
0.98762
0.9738
0.960868
0.947635
0.935312
0.922623
0.91087
0.898684
0.887466
0.875745
0.865031
0.853741
0.843503
0.832613
0.822826
0.812305
0.802949
0.792771
0.783825
0.773966
0.765415
0.755852
0.747679
0.738394
0.730586
0.72156
0.714103
0.705319
0.698202
0.689641
0.682856
0.674499
0.668039
0.659868
0.65373
0.645723
0.639903
0.632043
0.626533
0.61881
0.613601
0.606005
0.601081
0.593579
0.588983
0.581634
0.577318
0.570208
0.56548
0.557432
2.25481
2.22208
2.1872
2.15014
2.11173
2.07232
2.03256
1.99257
1.95284
1.91339
1.87465
1.83648
1.79927
1.76279
1.72738
1.69278
1.65928
1.62659
1.59502
1.56423
1.53454
1.50558
1.47769
1.45047
1.42429
1.39872
1.37414
1.3501
1.32702
1.3044
1.28271
1.26139
1.24097
1.22085
1.20159
1.18256
1.16436
1.14633
1.12912
1.112
1.09569
1.07942
1.06394
1.04844
1.03373
1.01894
1.00494
0.990803
0.977472
0.963934
0.951219
0.938237
0.926098
0.91363
0.90203
0.890041
0.878948
0.867404
0.856792
0.845662
0.835507
0.824764
0.815044
0.804664
0.79536
0.785318
0.776412
0.766686
0.758164
0.748733
0.740578
0.731422
0.723622
0.714724
0.707265
0.698606
0.691478
0.683043
0.676235
0.668006
0.661512
0.653472
0.647284
0.639417
0.633531
0.625819
0.620233
0.612658
0.607368
0.599916
0.594915
0.587579
0.582851
0.575598
0.571184
0.564083
0.559935
0.553059
0.548518
0.540731
2.1026
2.07346
2.0427
2.01026
1.97681
1.94258
1.90807
1.87331
1.83874
1.80429
1.77036
1.7368
1.70397
1.67167
1.64022
1.60936
1.57943
1.55012
1.52176
1.49401
1.4672
1.44097
1.41567
1.3909
1.36704
1.34364
1.32112
1.29901
1.27774
1.25682
1.23672
1.21691
1.19789
1.1791
1.16108
1.14324
1.12615
1.10918
1.09296
1.0768
1.06138
1.04597
1.0313
1.01658
1.0026
0.988519
0.975195
0.961709
0.948994
0.936062
0.923919
0.911503
0.899899
0.887963
0.876865
0.865379
0.85476
0.843692
0.833526
0.822848
0.813112
0.802799
0.793473
0.7835
0.774566
0.764909
0.756351
0.746989
0.738792
0.729706
0.721856
0.713028
0.705512
0.696924
0.689732
0.681369
0.67449
0.666335
0.659762
0.651799
0.645525
0.637738
0.631758
0.624132
0.618438
0.61096
0.605548
0.598205
0.593068
0.585848
0.580981
0.573869
0.569276
0.562259
0.557899
0.550983
0.547012
0.540056
0.537011
0.526963
1.99937
1.97224
1.94389
1.9142
1.88372
1.8526
1.82127
1.78972
1.75832
1.72701
1.69614
1.66556
1.6356
1.60607
1.57727
1.54895
1.52143
1.49441
1.46822
1.44253
1.41767
1.39328
1.36973
1.34661
1.3243
1.30238
1.28126
1.26048
1.24048
1.22076
1.2018
1.18307
1.16508
1.14727
1.13019
1.11324
1.097
1.08083
1.06538
1.04996
1.03524
1.0205
1.00646
0.992356
0.978964
0.965447
0.952656
0.939689
0.927464
0.91501
0.903317
0.891344
0.880153
0.868628
0.857913
0.846809
0.836543
0.825834
0.815996
0.805654
0.796224
0.786227
0.777187
0.767511
0.758844
0.749469
0.741161
0.732066
0.724103
0.71527
0.707639
0.699052
0.691741
0.683384
0.676383
0.66824
0.661541
0.653597
0.647192
0.639432
0.633315
0.625723
0.61989
0.612452
0.606897
0.599601
0.594317
0.587152
0.582133
0.575088
0.57033
0.563389
0.558898
0.552048
0.547781
0.541029
0.537145
0.53035
0.527375
0.517538
1.92558
1.89968
1.87282
1.84487
1.81633
1.78725
1.75803
1.72863
1.69939
1.67021
1.64143
1.61289
1.58491
1.55727
1.5303
1.50373
1.47789
1.45249
1.42783
1.40361
1.38015
1.3571
1.33481
1.3129
1.29174
1.27091
1.25082
1.23102
1.21194
1.19311
1.17498
1.15705
1.13982
1.12273
1.10633
1.09004
1.07442
1.05886
1.04397
1.02909
1.01489
1.00065
0.987093
0.973449
0.960494
0.947405
0.935018
0.922449
0.910596
0.898513
0.887165
0.875538
0.864668
0.853468
0.843049
0.832251
0.822261
0.811839
0.802257
0.792187
0.782996
0.773255
0.764437
0.755004
0.746545
0.737399
0.729286
0.720409
0.712629
0.704003
0.696544
0.688154
0.681005
0.672836
0.665987
0.658025
0.651468
0.643697
0.637425
0.629832
0.623839
0.616408
0.610692
0.603408
0.597964
0.590815
0.585636
0.578613
0.57369
0.566785
0.562114
0.555311
0.550899
0.544185
0.539992
0.533369
0.529551
0.522891
0.519975
0.510313
1.87069
1.8456
1.81973
1.79296
1.76573
1.73806
1.71031
1.6824
1.65467
1.627
1.59971
1.57262
1.54607
1.51982
1.49418
1.46891
1.44432
1.4201
1.39659
1.37346
1.35105
1.32899
1.30766
1.28665
1.26635
1.24635
1.22704
1.20799
1.18963
1.17148
1.154
1.13669
1.12005
1.10353
1.08767
1.07189
1.05676
1.04167
1.02724
1.01279
0.999001
0.985159
0.971979
0.9587
0.946092
0.933342
0.921274
0.909019
0.89746
0.885669
0.874592
0.863238
0.852616
0.841673
0.831484
0.820927
0.811149
0.800954
0.791569
0.781714
0.772703
0.763166
0.754516
0.745277
0.736974
0.728012
0.720044
0.711341
0.703697
0.695236
0.687905
0.679672
0.672643
0.664624
0.657885
0.65007
0.643612
0.635986
0.629804
0.622351
0.616443
0.609146
0.60351
0.596353
0.590986
0.583957
0.578854
0.571943
0.567094
0.560299
0.555693
0.549001
0.544646
0.538041
0.533903
0.527382
0.523618
0.517059
0.514172
0.504631
1.82932
1.80471
1.77949
1.75352
1.7272
1.70051
1.6738
1.64696
1.62031
1.59373
1.56752
1.5415
1.51599
1.49076
1.46612
1.4418
1.41813
1.39481
1.37215
1.34985
1.32822
1.30692
1.28631
1.26599
1.24635
1.22698
1.20828
1.18981
1.17199
1.15437
1.13739
1.12056
1.10438
1.0883
1.07286
1.05748
1.04274
1.02802
1.01393
0.999826
0.986359
0.97283
0.959946
0.946957
0.934621
0.92214
0.910322
0.898317
0.886989
0.875431
0.864568
0.853431
0.843007
0.832267
0.822262
0.811895
0.802287
0.792272
0.783045
0.773359
0.764496
0.755119
0.746607
0.73752
0.729344
0.72053
0.712678
0.704119
0.69658
0.688261
0.681023
0.672931
0.665982
0.658105
0.651435
0.643762
0.637361
0.629879
0.623743
0.616432
0.610566
0.603403
0.597811
0.590773
0.585463
0.57853
0.573494
0.566672
0.561873
0.555197
0.550586
0.544072
0.539649
0.533249
0.529055
0.522753
0.51871
0.512536
0.509765
0.500357
1.79721
1.77292
1.74813
1.72271
1.69703
1.67105
1.64509
1.61903
1.59319
1.56742
1.54202
1.51681
1.49209
1.46764
1.44376
1.42019
1.39723
1.37461
1.35262
1.33096
1.30996
1.28926
1.26922
1.24945
1.23034
1.21148
1.19326
1.17525
1.15788
1.14068
1.12411
1.10768
1.09186
1.07614
1.06104
1.04599
1.03156
1.01714
1.00334
0.989506
0.976302
0.963026
0.950383
0.937627
0.925514
0.913246
0.901634
0.889826
0.878687
0.867312
0.856622
0.845656
0.835392
0.824812
0.814954
0.804735
0.795265
0.785387
0.776289
0.76673
0.75799
0.748729
0.740335
0.731353
0.723291
0.714573
0.706829
0.698361
0.690922
0.682693
0.675543
0.667544
0.66067
0.652888
0.646284
0.638703
0.632364
0.624969
0.618891
0.611668
0.605846
0.598783
0.593209
0.586302
0.580962
0.574207
0.569092
0.562475
0.557597
0.551082
0.54646
0.540027
0.53565
0.529294
0.525136
0.518906
0.515055
0.508905
0.504777
0.497867
1.77225
1.74812
1.72358
1.69853
1.67331
1.64785
1.62245
1.59698
1.57175
1.5466
1.52183
1.49726
1.47316
1.44933
1.42605
1.40307
1.38068
1.35861
1.33716
1.31602
1.29551
1.27529
1.2557
1.23638
1.21769
1.19922
1.18138
1.16374
1.14672
1.12985
1.11359
1.09746
1.08193
1.06648
1.05164
1.03684
1.02265
1.00845
0.994866
0.981244
0.968235
0.955149
0.942684
0.930102
0.918151
0.906043
0.89458
0.882918
0.871916
0.860676
0.850113
0.839271
0.829124
0.818659
0.808909
0.7988
0.789429
0.779654
0.770648
0.761187
0.752531
0.743366
0.735047
0.726158
0.718167
0.709537
0.70186
0.693476
0.6861
0.677951
0.670863
0.662938
0.656125
0.648413
0.641867
0.634354
0.62807
0.620742
0.614715
0.607556
0.601784
0.594782
0.589258
0.582404
0.577119
0.570409
0.565351
0.558776
0.553948
0.547482
0.542897
0.536525
0.532173
0.525881
0.521746
0.515579
0.511754
0.505681
0.501557
0.494698
1.75363
1.72951
1.7051
1.68027
1.65534
1.63022
1.6052
1.58015
1.55536
1.53067
1.50636
1.48224
1.4586
1.43522
1.41239
1.38983
1.36787
1.3462
1.32514
1.30436
1.28421
1.26432
1.24506
1.22604
1.20763
1.18944
1.17186
1.15446
1.13767
1.12102
1.10498
1.08904
1.0737
1.05843
1.04375
1.02911
1.01507
1.00103
0.98758
0.974094
0.961213
0.948253
0.935907
0.923442
0.911602
0.899602
0.888243
0.876683
0.86578
0.854634
0.844165
0.833412
0.823356
0.812975
0.803313
0.793283
0.783996
0.774299
0.765372
0.755988
0.747406
0.738317
0.730068
0.721256
0.713328
0.704776
0.697159
0.688849
0.681535
0.673451
0.666429
0.65856
0.65182
0.644155
0.637683
0.630213
0.624002
0.616715
0.610759
0.603638
0.597941
0.590962
0.585531
0.578671
0.573512
0.566754
0.56186
0.555209
0.550543
0.544033
0.539548
0.533196
0.52889
0.522649
0.518562
0.512418
0.508473
0.502448
0.499742
0.490549
1.73981
1.71564
1.69125
1.66652
1.64175
1.61684
1.59206
1.56728
1.54276
1.51836
1.49434
1.47052
1.44716
1.42406
1.40148
1.37918
1.35744
1.33599
1.31513
1.29455
1.27457
1.25485
1.23574
1.21686
1.19858
1.18051
1.16305
1.14576
1.12907
1.11252
1.09658
1.08074
1.0655
1.05033
1.03576
1.02122
1.00728
0.993344
0.980005
0.966625
0.953853
0.940995
0.92875
0.916382
0.90464
0.892737
0.881476
0.870011
0.859208
0.848159
0.837792
0.827134
0.817182
0.806894
0.797338
0.787399
0.77822
0.76861
0.759792
0.750492
0.74202
0.733011
0.724872
0.716136
0.708318
0.699837
0.692329
0.684086
0.67688
0.66886
0.661943
0.654133
0.647498
0.639885
0.633521
0.626093
0.619994
0.612738
0.606899
0.5998
0.594217
0.587262
0.581933
0.575109
0.570027
0.563326
0.558485
0.551899
0.547292
0.540812
0.536436
0.530047
0.525909
0.519601
0.515662
0.509441
0.505844
0.499586
0.496846
0.487743
1.72883
1.70458
1.68016
1.65546
1.63076
1.60594
1.58126
1.55657
1.53214
1.5078
1.48382
1.46002
1.43666
1.41354
1.39093
1.3686
1.34683
1.32536
1.30446
1.28388
1.26387
1.24411
1.22495
1.20604
1.18775
1.16969
1.15226
1.13504
1.11845
1.10202
1.08622
1.07055
1.05549
1.04051
1.02615
1.01183
0.998113
0.9844
0.971292
0.958144
0.945602
0.932984
0.920982
0.908861
0.897362
0.8857
0.874673
0.86344
0.852856
0.842024
0.831858
0.821404
0.811636
0.801536
0.792147
0.782381
0.773353
0.763902
0.75522
0.746066
0.737717
0.728842
0.720813
0.7122
0.704481
0.696113
0.688694
0.680557
0.673429
0.665509
0.658661
0.650945
0.64437
0.636847
0.630536
0.623195
0.617139
0.609968
0.604166
0.597147
0.591599
0.584717
0.579424
0.572661
0.567624
0.560968
0.55618
0.549629
0.545072
0.538632
0.53429
0.527955
0.523838
0.517585
0.513669
0.507488
0.503926
0.497707
0.494969
0.48592
1.72038
1.69574
1.67085
1.64583
1.62068
1.59527
1.56994
1.54452
1.51938
1.49433
1.46972
1.44535
1.42156
1.39809
1.37527
1.35282
1.33107
1.30968
1.28902
1.26869
1.2491
1.22988
1.21135
1.19312
1.17555
1.15822
1.14152
1.125
1.10908
1.09329
1.07809
1.06298
1.04845
1.03396
1.02005
1.00614
0.992811
0.979446
0.966658
0.9538
0.941526
0.929146
0.91736
0.90543
0.894106
0.882602
0.871717
0.860616
0.850151
0.839432
0.829366
0.819008
0.809325
0.79931
0.789993
0.780302
0.771337
0.761953
0.753327
0.744232
0.735933
0.727111
0.719127
0.710562
0.702883
0.694561
0.687176
0.679083
0.671983
0.664108
0.65728
0.649612
0.643049
0.635577
0.629269
0.621982
0.615923
0.608808
0.602996
0.596037
0.590472
0.583652
0.578339
0.571636
0.56658
0.559978
0.555174
0.548676
0.544095
0.537724
0.53333
0.527098
0.522888
0.516757
0.512761
0.50672
0.502862
0.496934
0.494275
0.485281
1.69561
1.66969
1.64409
1.6184
1.59313
1.5681
1.54353
1.51922
1.49542
1.47191
1.44894
1.42627
1.40418
1.38239
1.36118
1.34028
1.31995
1.29991
1.28045
1.26124
1.24262
1.22421
1.20639
1.18875
1.17169
1.15479
1.13845
1.12224
1.10658
1.09102
1.07602
1.06108
1.0467
1.03234
1.01854
1.00473
0.991487
0.978202
0.965485
0.952692
0.940477
0.92815
0.916412
0.904528
0.893245
0.881779
0.87093
0.859862
0.849427
0.838737
0.828697
0.818366
0.808705
0.798713
0.789416
0.779746
0.770798
0.761432
0.752822
0.743742
0.735458
0.726648
0.71868
0.710124
0.702461
0.694145
0.686776
0.678689
0.6716
0.663734
0.656914
0.649257
0.642696
0.635238
0.628929
0.621658
0.615596
0.608497
0.60268
0.595739
0.590163
0.583371
0.578029
0.571379
0.566261
0.55975
0.554848
0.548462
0.543785
0.537495
0.533058
0.52685
0.522642
0.516507
0.512506
0.506493
0.502793
0.496874
0.492905
0.486206
2.938
3.13765
3.22856
3.55463
3.7435
4.26557
4.90703
6.18428
8.90627
21.525
2.63562
2.73371
2.83692
3.00326
3.20067
3.52796
3.85077
4.57595
5.53667
12.1646
2.45637
2.4959
2.55438
2.67033
2.75067
3.01992
3.19211
3.67491
4.08664
7.28213
2.33276
2.36638
2.38402
2.45883
2.50235
2.65797
2.76183
3.07615
3.29559
4.85234
2.23741
2.25807
2.26712
2.3123
2.33737
2.42796
2.48731
2.67701
2.80491
3.59868
2.16502
2.17487
2.17828
2.20517
2.21911
2.27382
2.30747
2.41868
2.49276
2.9085
2.10858
2.10965
2.10961
2.12286
2.13003
2.1623
2.18151
2.24686
2.28925
2.51306
2.06478
2.05957
2.05654
2.06014
2.06242
2.07914
2.08931
2.12678
2.15068
2.27473
2.02995
2.02102
2.0139
2.01096
2.00942
2.01614
2.02
2.0397
2.05208
2.12278
2.00195
1.99081
1.97994
1.97373
1.96723
1.96663
1.96655
1.97431
1.9795
2.02001
1.9793
1.967
1.9529
1.94436
1.93401
1.92929
1.92358
1.92378
1.92427
1.94567
1.96204
1.94715
1.93232
1.92023
1.90861
1.89937
1.89102
1.88539
1.88069
1.89037
1.94789
1.93174
1.9152
1.90192
1.88733
1.8771
1.86404
1.85738
1.84507
1.84882
1.93618
1.91999
1.9011
1.88773
1.87017
1.85947
1.84301
1.83486
1.81725
1.81668
1.92681
1.91108
1.88994
1.87675
1.85672
1.84564
1.82657
1.81724
1.79831
1.79179
1.91972
1.90424
1.88162
1.86817
1.84679
1.83473
1.81447
1.80328
1.78426
1.77336
1.91479
1.89827
1.87587
1.86083
1.83992
1.82568
1.80602
1.7921
1.77356
1.75977
1.91133
1.89304
1.87156
1.85456
1.83449
1.81821
1.79914
1.78319
1.76481
1.74904
1.90947
1.89008
1.86879
1.85062
1.83061
1.81315
1.79396
1.77684
1.7581
1.74115
1.90032
1.87854
1.85644
1.83599
1.81501
1.7955
1.77521
1.75631
1.7364
1.71786
3.00927
3.31809
3.85129
4.69174
6.15867
9.30724
18.3581
61.1747
401.946
628.048
3.01693
3.31495
3.88214
4.74459
6.40706
9.96186
20.3134
66.1948
442.677
635.67
3.01635
3.30812
3.90653
4.80469
6.42617
9.93036
20.2977
71.4058
480.858
640.76
3.02736
3.30513
3.8829
4.91194
6.79516
10.8102
23.2651
78.7811
517.694
658.412
3.02165
3.32935
3.95344
4.95407
6.81338
10.7844
23.2227
85.271
554.715
648.574
3.06291
3.33355
3.93329
5.11397
7.31743
11.8676
27.2977
97.1555
579.317
644.006
3.07586
3.42284
4.09547
5.21957
7.40793
12.0261
28.0277
105.759
613.548
636.538
3.15164
3.45798
4.11525
5.48845
8.23574
13.6147
33.6132
124.875
620.664
672.299
3.18737
3.58761
4.38968
5.76548
8.5429
14.0832
36.8811
152.919
614.412
653.37
3.33456
3.7193
4.50956
6.24364
9.96098
17.5238
47.2951
191.908
606.14
686.164
3.18529
3.2927
3.53468
4.90092
6.45604
5.96558
21.7506
42.924
272.724
631.05
3.16235
3.33057
3.66488
4.65033
6.03962
7.22567
16.5304
41.2281
231.205
583.788
3.14675
3.3907
3.84406
4.57622
5.7326
8.97195
14.9169
44.8949
227.661
556.174
3.12758
3.39802
3.87774
4.53448
5.71066
8.79974
14.9556
45.0194
225.961
554.211
3.10999
3.39039
3.87989
4.51995
5.74778
8.68218
15.4503
47.0297
237.756
551.978
3.08682
3.37611
3.87569
4.53807
5.80826
8.72644
15.914
47.3936
247.433
550.454
3.06698
3.35476
3.8703
4.55184
5.87438
8.87393
16.614
49.5303
273.876
563.11
3.03946
3.33415
3.85585
4.57229
5.94794
8.95719
16.6474
49.8315
299.886
573.825
3.01241
3.3082
3.82742
4.59039
6.04435
9.07609
17.1262
53.4396
330.494
612.059
3.00176