/*--------------------------------*- C++ -*----------------------------------*\
  =========                 |
  \\      /  F ield         | OpenFOAM: The Open Source CFD Toolbox
   \\    /   O peration     | Website:  https://openfoam.org
    \\  /    A nd           | Version:  8
     \\/     M anipulation  |
\*---------------------------------------------------------------------------*/
FoamFile
{
    version     2.0;
    format      ascii;
    class       volScalarField;
    location    "2.999969291";
    object      k;
}
// * * * * * * * * * * * * * * * * * * * * * * * * * * * * * * * * * * * * * //

dimensions      [0 2 -2 0 0 0 0];

internalField   nonuniform List<scalar> 
6800
(
7.44591
18.1453
20.4585
20.1208
18.9937
16.5479
12.1283
7.9274
4.34021
2.72609
6.25221
17.1276
19.5661
18.9851
17.1858
12.6837
7.59081
4.09158
2.42519
1.73193
7.83747
17.3393
18.8035
17.8043
14.4242
8.30221
4.33426
2.54667
1.67874
1.19954
8.58246
16.978
17.8337
16.095
10.3255
5.26297
2.91912
1.79008
1.19015
0.906016
9.36302
16.7347
17.1595
13.9666
7.00043
3.48065
1.92225
1.28338
0.947981
0.77243
9.68971
16.6924
16.4903
10.6172
4.84719
2.43415
1.55037
1.10726
0.845572
0.709812
10.0479
17.0892
15.7194
7.97273
3.40341
1.89125
1.23636
0.914777
0.729433
0.636755
10.0537
17.6049
14.1113
5.59611
2.67604
1.58192
1.12521
0.854415
0.693711
0.61392
9.76309
18.4236
12.0912
4.7473
2.15368
1.3571
0.972237
0.756131
0.63487
0.574212
9.72253
19.0955
10.2251
3.56095
1.86012
1.25516
0.929796
0.730511
0.619251
0.562881
40.9033
59.2355
61.652
61.4786
61.9744
63.9064
66.7063
69.6189
71.7267
72.6756
39.2653
56.9741
60.1954
61.0431
62.8738
66.2724
70.7399
75.4438
79.5094
81.8305
36.3106
53.0626
57.4551
60.2248
64.3688
70.0183
76.2507
81.4996
85.2801
87.231
32.7996
48.7363
54.547
60.0803
67.0774
74.7575
80.0482
82.3504
82.2442
79.3711
29.1126
45.1409
53.4937
62.2397
71.7903
77.4154
77.0125
73.7485
68.1844
55.8472
25.9044
43.6242
55.7707
67.3011
72.4595
69.9722
63.1679
50.0848
41.3971
28.378
23.1992
44.5689
61.1283
65.2511
59.7298
47.0521
34.8347
25.9688
22.5197
16.7322
21.8606
47.4573
53.3991
46.2611
33.2002
26.2555
22.2204
18.1198
16.3054
12.3816
18.953
37.56
31.6984
26.6056
23.1535
20.568
18.1304
15.1721
13.349
9.29806
13.8645
22.8459
22.9467
21.8287
20.2805
18.5535
15.8524
12.4224
9.25584
5.06478
72.8241
70.4396
67.6463
65.0158
62.6942
60.6778
58.8793
57.2912
55.9006
54.6655
53.5554
52.5438
51.6097
50.7358
49.9082
49.1183
48.359
47.6255
46.9132
46.2191
45.5418
44.8809
44.237
43.6113
43.0046
42.4181
41.8518
41.3054
40.7779
40.2675
39.7725
39.2908
38.8202
38.3588
37.905
37.4574
37.0154
36.5784
36.1463
35.7191
35.2975
34.8817
34.4721
34.0687
33.6713
33.2797
32.8933
32.5116
32.1342
31.7611
31.3925
31.0288
30.6705
30.3184
29.973
29.6348
29.3039
28.9806
28.6648
28.3565
28.0555
27.7615
27.4743
27.1937
26.9193
26.651
26.3886
26.132
25.8812
25.636
25.3964
25.1625
24.9342
24.7115
24.4943
24.2827
24.0764
23.8755
23.6798
23.4892
23.3035
23.1226
22.9463
22.7744
22.6067
22.4431
22.2833
22.127
21.9741
21.8241
21.6773
21.5324
21.3914
21.2496
21.115
20.9729
20.8488
20.6983
20.5923
20.3932
82.5132
79.5849
76.156
72.924
70.0557
67.5753
65.4166
63.5501
61.9047
60.441
59.123
57.9216
56.8123
55.7735
54.7879
53.8476
52.9429
52.0674
51.2169
50.3889
49.5825
48.7977
48.0352
47.2963
46.5819
45.8927
45.2283
44.5877
43.9691
43.3702
42.7889
42.2228
41.6695
41.127
40.5936
40.0685
39.5511
39.0413
38.5389
38.0447
37.5593
37.0826
36.6146
36.1549
35.7029
35.2581
34.8197
34.387
33.9595
33.5375
33.1212
32.7114
32.3088
31.9141
31.5279
31.1507
30.7826
30.4235
30.0735
29.7322
29.3995
29.0749
28.7581
28.449
28.1471
27.8525
27.5647
27.2838
27.0096
26.742
26.4808
26.2262
25.9779
25.7359
25.5001
25.2704
25.0467
24.8289
24.6168
24.4101
24.2089
24.0128
23.8217
23.6355
23.4538
23.2764
23.1032
22.9338
22.7681
22.6054
22.4464
22.2892
22.1364
21.9827
21.837
21.683
21.5489
21.3859
21.2722
21.0569
88.2234
85.6994
82.0588
78.6431
75.6263
73.0261
70.7791
68.832
67.1084
65.5674
64.1721
62.9
61.722
60.627
59.5937
58.6007
57.6365
56.6957
55.7754
54.8749
53.9946
53.1361
52.3015
51.493
50.712
49.9587
49.2321
48.5301
47.8499
47.1886
46.5435
45.9113
45.2897
44.6771
44.0727
43.4764
42.8883
42.3087
41.7384
41.1775
40.6269
40.0867
39.5579
39.0396
38.5311
38.0308
37.537
37.0488
36.5653
36.087
35.6148
35.15
34.6935
34.2466
33.81
33.384
32.9685
32.5636
32.1692
31.7853
31.4114
31.047
30.6921
30.3463
30.0093
29.6809
29.3608
29.0488
28.7447
28.4483
28.1595
27.8781
27.604
27.3371
27.0772
26.8241
26.5776
26.3374
26.1035
25.8756
25.6535
25.4371
25.2262
25.0206
24.82
24.6242
24.4329
24.2458
24.0626
23.8827
23.7066
23.5325
23.3631
23.1927
23.0312
22.8603
22.7119
22.5312
22.4056
22.1672
79.8716
78.8622
76.5535
74.1771
72.0612
70.2109
68.5906
67.158
65.865
64.6921
63.606
62.6046
61.6647
60.7607
59.8791
59.0137
58.1602
57.3176
56.4849
55.6636
54.8557
54.0646
53.2944
52.5485
51.8288
51.1354
50.4662
49.8185
49.1886
48.5724
47.9665
47.367
46.7725
46.1825
45.5967
45.0167
44.4429
43.8762
43.3179
42.769
42.2315
41.7041
41.1889
40.683
40.1856
39.6933
39.2034
38.7148
38.2268
37.7409
37.2586
36.7823
36.3134
35.8535
35.4042
34.9656
34.5381
34.1218
33.7167
33.3223
32.9389
32.5665
32.2041
31.8513
31.5075
31.1723
30.8453
30.5264
30.2153
29.9119
29.6159
29.3273
29.0458
28.7713
28.5037
28.2426
27.9879
27.7393
27.4967
27.2599
27.0289
26.8036
26.5838
26.3693
26.1596
25.9546
25.7537
25.5567
25.3635
25.1733
24.9869
24.802
24.6221
24.4404
24.2684
24.0855
23.9275
23.7341
23.5995
23.3446
54.5177
53.5209
52.568
52.0167
51.6707
51.5229
51.4516
51.352
51.2202
51.0969
50.9423
50.8067
50.6513
50.4658
50.2394
49.9738
49.6738
49.3465
48.9922
48.6161
48.2239
47.8234
47.424
47.0326
46.6527
46.2849
45.9255
45.5736
45.2216
44.8693
44.5117
44.1441
43.7631
43.3773
42.983
42.5895
42.1923
41.7929
41.3944
40.998
40.6092
40.2241
39.8499
39.4797
39.114
38.7449
38.3679
37.9809
37.584
37.1828
36.7767
36.371
35.969
35.5718
35.1816
34.7932
34.4122
34.0406
33.6785
33.3269
32.9854
32.6539
32.3314
32.0172
31.7106
31.4112
31.1187
30.8327
30.553
30.2795
30.0121
29.7505
29.4949
29.2449
29.0005
28.7616
28.5277
28.2985
28.0739
27.8542
27.6394
27.4298
27.225
27.0248
26.8286
26.6362
26.4471
26.261
26.0776
25.8962
25.7179
25.54
25.3666
25.1902
25.0236
24.8445
24.6908
24.501
24.368
24.1177
27.2416
26.4919
26.0395
26.0031
26.0672
26.244
26.5223
26.9711
27.5051
28.1084
28.7404
29.4121
30.0565
30.6836
31.2553
31.7638
32.2166
32.618
32.9467
33.2145
33.4284
33.6062
33.7672
33.9224
34.0751
34.2269
34.3695
34.5071
34.6213
34.7242
34.8018
34.8418
34.8339
34.8368
34.7919
34.785
34.7413
34.6805
34.6093
34.5269
34.4475
34.3542
34.2696
34.1745
34.0766
33.9599
33.8183
33.6485
33.4537
33.2524
33.0296
32.7927
32.5544
32.3081
32.0626
31.7934
31.5397
31.2923
31.0473
30.8134
30.5903
30.3752
30.1655
29.9601
29.7582
29.5599
29.3645
29.172
28.9822
28.7948
28.6101
28.4279
28.2485
28.0714
27.8968
27.7249
27.5548
27.3864
27.2199
27.0563
26.8957
26.7385
26.5841
26.4326
26.2828
26.135
25.9879
25.8423
25.6972
25.5524
25.4088
25.264
25.1215
24.9748
24.8361
24.6847
24.5552
24.394
24.2788
24.0643
16.1767
15.5459
15.051
14.6603
14.4447
14.2882
14.1201
14.0632
14.0194
14.0653
14.1721
14.3119
14.4491
14.5968
14.7336
14.8466
14.9872
15.1277
15.2992
15.5052
15.7317
16.0047
16.346
16.7388
17.1642
17.6234
18.0981
18.594
19.0824
19.5743
20.0462
20.5072
20.934
21.3507
21.7337
22.1156
22.4661
22.8103
23.1331
23.4271
23.7282
23.9836
24.2784
24.5401
24.8064
25.0406
25.2322
25.3849
25.482
25.6295
25.7227
25.7616
25.8594
25.878
25.8476
25.6694
25.6335
25.5392
25.4171
25.353
25.3145
25.2801
25.2438
25.2072
25.1712
25.1355
25.0977
25.0579
25.0154
24.9701
24.9223
24.8722
24.8205
24.7662
24.7102
24.653
24.5927
24.5301
24.4659
24.4019
24.3378
24.2743
24.2099
24.1456
24.0788
24.0115
23.9407
23.8693
23.7943
23.718
23.639
23.5566
23.4726
23.3844
23.2993
23.2048
23.1218
23.0196
22.9416
22.7999
11.8933
11.3038
10.7761
10.3198
9.92934
9.5761
9.26685
8.98083
8.71935
8.45926
8.21298
7.94863
7.70545
7.4356
7.19726
6.97208
6.7933
6.62517
6.47987
6.35884
6.25264
6.19598
6.19427
6.20703
6.24171
6.31754
6.43964
6.60289
6.78664
7.00525
7.22358
7.48361
7.7221
8.01663
8.27354
8.59387
8.88363
9.22675
9.55655
9.98945
10.3841
10.8657
11.4166
11.8901
12.5167
13.0018
13.5089
14.0427
14.3675
14.8586
15.3095
15.5632
16.0044
16.2346
16.6515
16.7827
16.6803
16.6837
16.7987
16.9659
17.1547
17.3497
17.5406
17.7254
17.9012
18.0695
18.2289
18.3806
18.5241
18.6606
18.7901
18.9131
19.0298
19.1399
19.2432
19.3413
19.4315
19.5155
19.5923
19.6654
19.733
19.798
19.8567
19.9129
19.9609
20.0071
20.0429
20.079
20.1022
20.129
20.1341
20.1358
20.1349
20.1395
20.139
20.1348
20.1207
20.1117
20.0895
20.0633
8.80399
8.25495
7.74886
7.29792
6.88766
6.49927
6.12971
5.77919
5.44747
5.12865
4.82692
4.53462
4.25829
3.99452
3.74494
3.51303
3.29122
3.09593
2.92736
2.78319
2.65728
2.55304
2.46567
2.39648
2.33973
2.29609
2.26798
2.24548
2.24474
2.23576
2.24266
2.26104
2.28519
2.32861
2.36419
2.42422
2.47692
2.55362
2.62407
2.74287
2.84836
2.98858
3.17014
3.32779
3.56394
3.76721
3.99411
4.24501
4.44164
4.68917
4.92912
5.14145
5.37015
5.59114
5.81398
6.03394
6.26171
6.50873
6.77858
7.07109
7.37725
7.69622
8.02011
8.35007
8.67976
9.01117
9.33912
9.66569
9.98617
10.303
10.6119
10.9156
11.2099
11.4977
11.7742
12.0445
12.3021
12.553
12.7887
13.017
13.2308
13.4394
13.6334
13.8242
13.999
14.1732
14.3295
14.4879
14.6265
14.7696
14.8918
15.0207
15.124
15.2412
15.3284
15.4374
15.5095
15.6157
15.6669
15.7898
4.7189
4.34378
3.98174
3.65146
3.35276
3.09967
2.88347
2.69681
2.53349
2.38735
2.25463
2.13115
2.01548
1.90574
1.80186
1.70355
1.61134
1.5257
1.44743
1.37651
1.31309
1.25681
1.20754
1.16447
1.12721
1.09512
1.06732
1.0437
1.02341
1.00551
0.989183
0.974911
0.961816
0.950884
0.939701
0.932066
0.922526
0.914037
0.913186
0.915087
0.91774
0.923914
0.935106
0.958007
0.997603
1.04445
1.09413
1.14875
1.19863
1.25046
1.29617
1.33883
1.3759
1.41327
1.45073
1.49466
1.5446
1.60586
1.67513
1.75714
1.84606
1.94879
2.05663
2.17995
2.30696
2.4514
2.59856
2.76465
2.93269
3.12024
3.30887
3.517
3.72489
3.95167
4.176
4.41842
4.65544
4.90946
5.15627
5.42213
5.67654
5.95002
6.20686
6.4831
6.73671
7.01113
7.25647
7.52538
7.75838
8.01939
8.23679
8.48925
8.68793
8.93232
9.10993
9.34872
9.50211
9.74021
9.85367
10.1559
1.85133
1.80673
1.74905
1.68479
1.61722
1.54937
1.48333
1.42031
1.36075
1.3045
1.25121
1.20036
1.15165
1.10484
1.05996
1.01707
0.976437
0.93816
0.90252
0.869446
0.839129
0.811288
0.786015
0.762896
0.741937
0.722729
0.705207
0.689045
0.674161
0.660281
0.647388
0.635201
0.623806
0.612972
0.602726
0.593086
0.583759
0.575027
0.566732
0.55928
0.552222
0.545885
0.540127
0.535624
0.532226
0.530152
0.528531
0.528125
0.527908
0.52885
0.529313
0.530362
0.532536
0.533468
0.539588
0.54258
0.540837
0.541495
0.543615
0.54953
0.554417
0.565075
0.572425
0.587898
0.598162
0.619235
0.633396
0.661285
0.680624
0.716277
0.742113
0.787165
0.820848
0.876962
0.919551
0.988246
1.04077
1.12356
1.18671
1.28499
1.35966
1.47487
1.56148
1.69443
1.79274
1.94359
2.05271
2.22094
2.33948
2.52402
2.65004
2.84987
2.98063
3.19503
3.32759
3.55406
3.68358
3.92677
4.03944
4.38232
1.23093
1.18892
1.14405
1.0992
1.05573
1.01451
0.976149
0.940804
0.908394
0.878516
0.850701
0.824441
0.799359
0.775187
0.751819
0.729236
0.707515
0.686726
0.666981
0.648322
0.63082
0.614451
0.599234
0.585085
0.571987
0.559816
0.548542
0.538025
0.528231
0.519028
0.510388
0.502194
0.494419
0.486989
0.479861
0.473002
0.466351
0.459938
0.453703
0.447718
0.44186
0.436287
0.430871
0.425976
0.42125
0.417151
0.413214
0.409715
0.406202
0.402862
0.39977
0.396683
0.393759
0.390921
0.388148
0.385531
0.382825
0.380727
0.378359
0.376856
0.374766
0.373714
0.37185
0.371016
0.36944
0.368652
0.367629
0.366859
0.366787
0.366941
0.367548
0.36818
0.369379
0.371149
0.372689
0.376128
0.378984
0.384494
0.388589
0.397476
0.403167
0.41598
0.42378
0.440974
0.451185
0.473405
0.486446
0.514326
0.530662
0.564577
0.584883
0.625294
0.649414
0.699193
0.727686
0.784975
0.818816
0.889625
0.922141
1.05732
0.888458
0.86808
0.846595
0.824444
0.802229
0.780289
0.758854
0.737946
0.717625
0.697867
0.678755
0.660326
0.642701
0.625921
0.610068
0.595124
0.581093
0.567898
0.555489
0.543772
0.532682
0.522139
0.512095
0.502493
0.493307
0.484505
0.476074
0.467995
0.460262
0.452861
0.445786
0.439025
0.432566
0.426397
0.420503
0.414871
0.409483
0.40433
0.399384
0.394642
0.390072
0.385681
0.381426
0.377326
0.373333
0.369478
0.365714
0.362081
0.358534
0.355108
0.351766
0.348528
0.345373
0.342307
0.339318
0.336411
0.333567
0.330817
0.328097
0.325502
0.322888
0.320445
0.317927
0.315624
0.313198
0.311043
0.308719
0.306711
0.304472
0.302631
0.300504
0.298816
0.296816
0.295266
0.293418
0.292009
0.290355
0.289114
0.287695
0.286672
0.285533
0.284774
0.283964
0.283485
0.283015
0.283323
0.283416
0.283893
0.284296
0.285372
0.286297
0.288034
0.289458
0.292301
0.294326
0.29845
0.301011
0.306717
0.309248
0.323658
0.691985
0.680935
0.668836
0.655767
0.642129
0.628205
0.61435
0.600698
0.587446
0.574566
0.562133
0.55004
0.538343
0.526951
0.515962
0.505317
0.495141
0.485375
0.476132
0.467323
0.459031
0.451135
0.443694
0.436571
0.42982
0.423308
0.417096
0.411066
0.405293
0.399671
0.394287
0.389044
0.384033
0.379161
0.374517
0.370005
0.365715
0.361545
0.357584
0.353722
0.350054
0.34646
0.343044
0.339674
0.336472
0.333289
0.330269
0.327249
0.324392
0.321519
0.31881
0.316073
0.313496
0.310888
0.308427
0.305941
0.30358
0.301208
0.298935
0.296668
0.294476
0.292305
0.290188
0.288105
0.286059
0.284057
0.282078
0.28015
0.278235
0.276377
0.274522
0.272729
0.270931
0.269202
0.26746
0.265789
0.264108
0.262494
0.260877
0.25934
0.257793
0.256328
0.254874
0.253499
0.252093
0.250836
0.249491
0.248394
0.247093
0.246133
0.244871
0.243991
0.242784
0.241928
0.240822
0.239699
0.238775
0.237773
0.236365
0.235347
0.573634
0.566795
0.559171
0.550857
0.542125
0.533103
0.523988
0.514816
0.505732
0.496727
0.487924
0.479284
0.470916
0.46276
0.454912
0.44729
0.439985
0.432896
0.426116
0.419534
0.413247
0.40714
0.401318
0.39566
0.390278
0.385044
0.380075
0.375233
0.370642
0.366155
0.361902
0.357727
0.353769
0.349867
0.346166
0.342501
0.339028
0.335573
0.332303
0.329036
0.325949
0.322853
0.319934
0.316992
0.314226
0.311425
0.308799
0.306125
0.303627
0.301069
0.298689
0.296237
0.293964
0.291608
0.289432
0.287165
0.285079
0.282894
0.280889
0.278778
0.276849
0.274806
0.272949
0.270967
0.269177
0.267252
0.265526
0.263652
0.261987
0.26016
0.258555
0.256772
0.255226
0.253483
0.251995
0.25029
0.248859
0.247191
0.245816
0.244183
0.242863
0.241262
0.240001
0.238425
0.237226
0.235673
0.23453
0.233003
0.231906
0.23041
0.229356
0.227879
0.226879
0.225401
0.224466
0.222942
0.222123
0.220579
0.219886
0.217742
0.500571
0.495951
0.490735
0.484955
0.478813
0.472381
0.465825
0.459162
0.452523
0.445891
0.439372
0.432918
0.426624
0.420423
0.41441
0.408509
0.402816
0.397245
0.391895
0.386666
0.381658
0.376763
0.372081
0.367495
0.363115
0.358816
0.354715
0.35068
0.346838
0.343048
0.339444
0.335879
0.332495
0.329133
0.325948
0.32277
0.319764
0.31675
0.313905
0.311038
0.308338
0.305603
0.303036
0.300422
0.297976
0.295472
0.293139
0.290737
0.288508
0.286201
0.284067
0.281846
0.2798
0.277658
0.275693
0.273622
0.271731
0.269724
0.267902
0.265952
0.264194
0.262296
0.260599
0.258748
0.257109
0.255302
0.25372
0.251952
0.250427
0.248695
0.247225
0.245527
0.244111
0.242448
0.241083
0.239455
0.238137
0.236545
0.235274
0.233715
0.232489
0.230963
0.22978
0.228287
0.227146
0.225684
0.224588
0.223146
0.222102
0.220675
0.219683
0.218273
0.217326
0.215938
0.215027
0.213684
0.212768
0.211433
0.210496
0.208952
0.454735
0.451207
0.447237
0.442829
0.43814
0.433201
0.428145
0.422962
0.417766
0.412528
0.407349
0.402184
0.397127
0.392117
0.387246
0.382438
0.377785
0.373203
0.368784
0.364433
0.360249
0.356128
0.352174
0.348274
0.344539
0.34085
0.337322
0.333829
0.330495
0.327183
0.324027
0.320883
0.317891
0.3149
0.31206
0.309209
0.306508
0.303785
0.301213
0.298608
0.296154
0.293657
0.291312
0.288913
0.286669
0.28436
0.282209
0.279983
0.277918
0.275768
0.273785
0.271705
0.269797
0.267782
0.265945
0.263991
0.262221
0.260323
0.258616
0.25677
0.255123
0.253324
0.251734
0.249979
0.248445
0.246731
0.24525
0.243572
0.242143
0.2405
0.239121
0.23751
0.236179
0.234599
0.233316
0.231764
0.230526
0.229002
0.227808
0.226309
0.225159
0.223684
0.222576
0.221123
0.220058
0.218624
0.217603
0.216183
0.215207
0.213801
0.212867
0.211473
0.210579
0.209202
0.208347
0.206968
0.206154
0.204817
0.203922
0.202404
0.425026
0.422044
0.418743
0.415089
0.411212
0.407122
0.402931
0.39862
0.39429
0.389904
0.385559
0.381202
0.376923
0.37266
0.3685
0.364371
0.360361
0.356389
0.352547
0.348744
0.345077
0.341446
0.337953
0.334491
0.331167
0.327868
0.324708
0.321564
0.318557
0.315559
0.312698
0.309836
0.307111
0.304375
0.301776
0.299156
0.296674
0.294162
0.291788
0.289375
0.287102
0.284778
0.282598
0.280358
0.278263
0.276099
0.274085
0.271992
0.270053
0.268024
0.266156
0.264188
0.262386
0.260474
0.258735
0.256875
0.255196
0.253386
0.251764
0.249999
0.248431
0.246709
0.245194
0.243511
0.242047
0.240401
0.238986
0.237375
0.236007
0.234428
0.233107
0.231557
0.230281
0.228759
0.227527
0.226031
0.224843
0.22337
0.222225
0.220774
0.21967
0.21824
0.217177
0.215766
0.214744
0.213349
0.212369
0.210987
0.210048
0.208679
0.20778
0.206422
0.205561
0.204218
0.203395
0.202047
0.201265
0.199958
0.199098
0.197613
0.40496
0.402262
0.399325
0.3961
0.3927
0.38912
0.385461
0.38169
0.3779
0.37405
0.370228
0.366381
0.362596
0.358809
0.355109
0.351421
0.347834
0.344268
0.340813
0.337379
0.334063
0.330768
0.327593
0.324435
0.321399
0.318374
0.315473
0.312575
0.309801
0.307024
0.304371
0.301706
0.299166
0.296607
0.294174
0.291713
0.28938
0.28701
0.28477
0.282486
0.280334
0.278128
0.276058
0.273926
0.271933
0.269869
0.267949
0.265949
0.264097
0.262156
0.260369
0.258483
0.256758
0.254923
0.253256
0.25147
0.249858
0.248117
0.246559
0.244859
0.243351
0.241691
0.240232
0.238609
0.237197
0.235608
0.234242
0.232684
0.231363
0.229835
0.228557
0.227056
0.225821
0.224345
0.223152
0.221699
0.220548
0.219117
0.218006
0.216595
0.215524
0.214132
0.2131
0.211725
0.210732
0.209374
0.208418
0.207074
0.206157
0.204825
0.203946
0.202624
0.201786
0.200465
0.199668
0.198365
0.197618
0.196293
0.195713
0.193787
0.39082
0.388289
0.385565
0.382598
0.37949
0.376226
0.372897
0.369466
0.366021
0.362515
0.359036
0.355525
0.352071
0.348605
0.345215
0.341826
0.338529
0.335238
0.332048
0.328867
0.325792
0.322727
0.319772
0.316823
0.313987
0.311152
0.308432
0.305708
0.303099
0.30048
0.297978
0.295459
0.293057
0.290631
0.288324
0.285985
0.283767
0.281509
0.279375
0.277193
0.275137
0.273026
0.271045
0.268999
0.267087
0.265103
0.263258
0.261331
0.259548
0.257675
0.255952
0.254129
0.252463
0.250688
0.249075
0.247345
0.245784
0.244096
0.242584
0.240936
0.239471
0.237859
0.236441
0.234863
0.233489
0.231944
0.230613
0.229097
0.227808
0.22632
0.225073
0.22361
0.222404
0.220964
0.219798
0.218381
0.217254
0.215858
0.21477
0.213393
0.212343
0.210983
0.209972
0.208628
0.207654
0.206324
0.205389
0.204073
0.203173
0.20187
0.201006
0.199713
0.19889
0.197596
0.196813
0.195536
0.194805
0.193503
0.192933
0.191041
0.380471
0.378036
0.375442
0.372638
0.369722
0.366666
0.36356
0.360359
0.357149
0.35388
0.350637
0.347359
0.344134
0.340892
0.337722
0.334546
0.331454
0.328362
0.325365
0.322369
0.319473
0.316578
0.313788
0.310995
0.308309
0.305617
0.303034
0.300439
0.297955
0.295454
0.293064
0.290651
0.288352
0.286022
0.283808
0.281557
0.279425
0.277247
0.275191
0.273084
0.2711
0.269057
0.267142
0.26516
0.26331
0.261385
0.259596
0.257726
0.255995
0.254175
0.2525
0.250727
0.249105
0.247378
0.245806
0.244121
0.242598
0.240953
0.239476
0.237869
0.236436
0.234865
0.233475
0.231937
0.23059
0.229081
0.227776
0.226296
0.225032
0.223577
0.222353
0.220924
0.219738
0.218332
0.217184
0.2158
0.214689
0.213327
0.212251
0.210909
0.209868
0.208544
0.207541
0.20623
0.205267
0.203967
0.203041
0.201756
0.200859
0.199595
0.198724
0.197477
0.19664
0.195396
0.194604
0.193332
0.192636
0.19135
0.190784
0.188927
0.372734
0.37035
0.367835
0.365137
0.362347
0.359433
0.356479
0.353439
0.350395
0.347293
0.344219
0.34111
0.338051
0.334973
0.331962
0.328942
0.326001
0.323056
0.3202
0.31734
0.314575
0.311806
0.309136
0.306459
0.303884
0.301299
0.298818
0.296321
0.293931
0.291519
0.289216
0.286885
0.284665
0.282412
0.280271
0.278089
0.276024
0.273911
0.271917
0.269868
0.267942
0.265953
0.264091
0.262159
0.260358
0.25848
0.256737
0.254909
0.253221
0.251442
0.249806
0.248072
0.246485
0.244794
0.243256
0.241606
0.240113
0.238501
0.237052
0.235477
0.23407
0.232528
0.231164
0.229653
0.22833
0.226848
0.225565
0.224109
0.222867
0.221435
0.220233
0.218823
0.217659
0.216272
0.215144
0.213781
0.212685
0.211345
0.210282
0.208965
0.207932
0.206637
0.205634
0.20436
0.203386
0.202131
0.20119
0.199946
0.199045
0.197806
0.196944
0.195714
0.194884
0.193667
0.192862
0.191681
0.19087
0.18969
0.188873
0.187525
0.366855
0.364497
0.36203
0.359402
0.356697
0.353882
0.351035
0.348108
0.345181
0.3422
0.339248
0.33626
0.333322
0.330364
0.32747
0.324565
0.321736
0.318899
0.316147
0.31339
0.310723
0.308049
0.30547
0.302881
0.300391
0.297887
0.295483
0.293061
0.290742
0.2884
0.286162
0.283896
0.281736
0.279541
0.277455
0.275329
0.273314
0.271251
0.269304
0.267302
0.265419
0.263474
0.261652
0.25976
0.257997
0.256155
0.254448
0.252654
0.250999
0.249251
0.247647
0.245941
0.244386
0.24272
0.241212
0.239584
0.238122
0.236529
0.23511
0.233552
0.232175
0.230649
0.229313
0.227816
0.22652
0.225052
0.223795
0.222352
0.221134
0.219716
0.218536
0.217139
0.215997
0.214622
0.213515
0.212161
0.21109
0.209755
0.208718
0.207401
0.206399
0.205099
0.20413
0.202847
0.201912
0.200642
0.199742
0.198482
0.197619
0.196368
0.19554
0.194298
0.193503
0.192273
0.19151
0.190277
0.189548
0.188355
0.187549
0.186194
0.362301
0.359955
0.357514
0.354929
0.352282
0.349534
0.346762
0.343915
0.341073
0.33818
0.335316
0.332418
0.32957
0.326701
0.323895
0.321076
0.318332
0.315578
0.312907
0.310228
0.307637
0.305037
0.302528
0.300009
0.297584
0.295145
0.292803
0.290441
0.288179
0.285892
0.283707
0.281492
0.279381
0.277234
0.275193
0.273111
0.271138
0.269116
0.267207
0.265243
0.263395
0.261486
0.259697
0.257838
0.256105
0.254294
0.252614
0.250849
0.249221
0.247498
0.245919
0.244237
0.242706
0.241062
0.239576
0.237969
0.236526
0.234954
0.233553
0.232014
0.230654
0.229146
0.227826
0.226347
0.225065
0.223613
0.22237
0.220943
0.219738
0.218334
0.217167
0.215784
0.214654
0.213292
0.212197
0.210854
0.209795
0.208471
0.207446
0.206139
0.205148
0.203857
0.202901
0.201623
0.200704
0.199436
0.198553
0.197296
0.196446
0.195202
0.194384
0.193149
0.192363
0.19114
0.190388
0.189158
0.188446
0.187252
0.186462
0.185108
0.358704
0.356356
0.353928
0.351371
0.348764
0.346064
0.343346
0.34056
0.337782
0.334955
0.33216
0.329333
0.326555
0.323756
0.321021
0.318271
0.315594
0.312908
0.310302
0.307686
0.305156
0.302615
0.300165
0.297701
0.29533
0.292942
0.290649
0.288334
0.286118
0.283875
0.281732
0.279556
0.277484
0.275373
0.273368
0.271319
0.269379
0.267387
0.265508
0.263572
0.261752
0.259868
0.258103
0.256268
0.254557
0.252769
0.251109
0.249365
0.247754
0.246052
0.244489
0.242826
0.241308
0.239683
0.238209
0.23662
0.235188
0.233634
0.232242
0.23072
0.229368
0.227877
0.226564
0.225101
0.223827
0.22239
0.221153
0.219742
0.218542
0.217154
0.215991
0.214624
0.213497
0.212151
0.211059
0.209733
0.208674
0.207368
0.206342
0.205054
0.204061
0.202789
0.201831
0.200571
0.199651
0.198399
0.197514
0.196277
0.195419
0.194202
0.193367
0.192166
0.191362
0.190165
0.189403
0.188179
0.187509
0.186271
0.185726
0.183935
0.355937
0.353577
0.351151
0.348608
0.346026
0.343359
0.340681
0.337938
0.335208
0.332432
0.32969
0.326916
0.324193
0.321448
0.318766
0.316069
0.313444
0.310807
0.308249
0.30568
0.303195
0.300697
0.298287
0.295862
0.293528
0.291174
0.288915
0.286631
0.284444
0.282228
0.280112
0.277961
0.275912
0.273823
0.271839
0.269809
0.267888
0.265914
0.264053
0.262132
0.260328
0.258458
0.256709
0.254887
0.25319
0.251414
0.249767
0.248035
0.246436
0.244745
0.243192
0.241542
0.240033
0.23842
0.236955
0.235378
0.233954
0.232412
0.231028
0.229518
0.228173
0.226694
0.225388
0.223938
0.22267
0.221245
0.220015
0.218615
0.217423
0.216044
0.21489
0.213532
0.212414
0.211077
0.209992
0.208677
0.207623
0.20633
0.205306
0.204034
0.20304
0.201788
0.200822
0.199591
0.198652
0.197439
0.19653
0.195328
0.194457
0.193259
0.192426
0.191235
0.190433
0.189255
0.188477
0.187332
0.186548
0.185405
0.184614
0.183308
0.353895
0.351516
0.34908
0.346539
0.343968
0.341318
0.338662
0.335946
0.333246
0.330501
0.32779
0.325049
0.322356
0.319641
0.316988
0.314317
0.311717
0.309103
0.306565
0.304015
0.301547
0.299064
0.296668
0.294254
0.29193
0.289585
0.287333
0.285057
0.282876
0.280667
0.278556
0.276412
0.27437
0.272288
0.270312
0.26829
0.266377
0.264413
0.26256
0.260651
0.258856
0.256998
0.255257
0.253446
0.251758
0.249993
0.248355
0.246634
0.245046
0.243367
0.241826
0.240187
0.238691
0.23709
0.235639
0.234073
0.232665
0.231133
0.229767
0.228267
0.22694
0.225471
0.224183
0.222742
0.221492
0.220077
0.218865
0.217475
0.2163
0.214933
0.213793
0.212448
0.211344
0.210018
0.208949
0.207643
0.206607
0.205319
0.204316
0.203046
0.202075
0.200821
0.199883
0.198643
0.197738
0.19651
0.19564
0.19442
0.193585
0.192374
0.191572
0.190369
0.189599
0.188408
0.187668
0.186474
0.185768
0.184611
0.18383
0.182516
0.352286
0.349886
0.347437
0.344891
0.34232
0.339673
0.337021
0.334308
0.331607
0.32886
0.326143
0.323392
0.320686
0.317955
0.315283
0.312594
0.309973
0.30734
0.304783
0.302218
0.299731
0.297225
0.294806
0.292371
0.29003
0.287672
0.285413
0.283133
0.280955
0.278753
0.276654
0.274526
0.272503
0.270445
0.268493
0.2665
0.264615
0.262683
0.260862
0.258986
0.257224
0.255401
0.253697
0.251924
0.250274
0.248547
0.246948
0.245264
0.243712
0.242068
0.240562
0.238955
0.237494
0.235922
0.234502
0.232963
0.231584
0.230077
0.228737
0.22726
0.225958
0.224509
0.223244
0.221821
0.220593
0.219195
0.218002
0.216628
0.21547
0.214117
0.212994
0.211662
0.210573
0.20926
0.208204
0.206909
0.205887
0.204609
0.203619
0.202358
0.201399
0.200153
0.199227
0.197994
0.1971
0.195879
0.195019
0.193807
0.19298
0.191777
0.190983
0.189788
0.189025
0.187841
0.187109
0.18592
0.185222
0.184072
0.183296
0.181991
0.35105
0.348588
0.346063
0.34346
0.340814
0.338068
0.335305
0.332468
0.329644
0.326772
0.323942
0.321084
0.318291
0.315485
0.312761
0.310031
0.307395
0.304756
0.302216
0.299673
0.297236
0.294803
0.292474
0.290139
0.287905
0.285658
0.283509
0.281339
0.279268
0.277168
0.275166
0.27313
0.271193
0.269215
0.267339
0.265415
0.263594
0.261721
0.259954
0.258128
0.256412
0.254631
0.252964
0.251224
0.249605
0.247905
0.246331
0.24467
0.24314
0.241514
0.240027
0.238436
0.23699
0.235432
0.234026
0.232499
0.231133
0.229636
0.228307
0.226839
0.225547
0.224106
0.222851
0.221435
0.220215
0.218824
0.217639
0.21627
0.21512
0.213772
0.212656
0.211328
0.210246
0.208937
0.207888
0.206596
0.20558
0.204305
0.203321
0.202062
0.20111
0.199866
0.198945
0.197714
0.196825
0.195607
0.19475
0.193541
0.192718
0.191517
0.190727
0.189534
0.188774
0.187592
0.186862
0.185676
0.184979
0.183832
0.183058
0.181757
0.347444
0.344776
0.342127
0.339402
0.336712
0.333994
0.331319
0.328622
0.325977
0.323314
0.320712
0.318097
0.315548
0.312989
0.310502
0.308004
0.305584
0.30315
0.300797
0.298429
0.296144
0.293841
0.291622
0.289382
0.287229
0.285051
0.282962
0.280843
0.278815
0.276753
0.274783
0.272775
0.270863
0.268907
0.267049
0.265142
0.263337
0.261476
0.259722
0.257907
0.256201
0.254429
0.25277
0.251039
0.249426
0.247733
0.246166
0.24451
0.242985
0.241365
0.239882
0.238295
0.236854
0.235299
0.233898
0.232374
0.231011
0.229517
0.228192
0.226726
0.225437
0.223998
0.222745
0.221332
0.220114
0.218724
0.217542
0.216174
0.215026
0.21368
0.212566
0.211239
0.210159
0.20885
0.207803
0.206511
0.205498
0.204222
0.203241
0.201981
0.201031
0.199786
0.198869
0.197636
0.196751
0.195529
0.194678
0.193465
0.192647
0.191443
0.190657
0.189462
0.188705
0.187522
0.186796
0.185609
0.184917
0.183768
0.183003
0.181691
0.50773
0.51645
0.548388
0.564159
0.611118
0.663381
0.715538
0.861419
1.06605
1.86618
0.467901
0.473613
0.494439
0.511037
0.532044
0.583597
0.613476
0.697294
0.783217
1.26024
0.441705
0.448168
0.455394
0.472845
0.48312
0.517792
0.538756
0.597744
0.641115
0.902597
0.424976
0.430848
0.433887
0.445133
0.451521
0.472701
0.486205
0.526515
0.552841
0.697741
0.4132
0.417317
0.419136
0.426439
0.430356
0.443461
0.45166
0.477008
0.49357
0.576401
0.403608
0.406181
0.407407
0.41233
0.414893
0.423435
0.428495
0.444137
0.454295
0.502443
0.396081
0.397477
0.398157
0.401299
0.402945
0.408589
0.411809
0.421712
0.427919
0.456186
0.390226
0.390784
0.39102
0.392843
0.393787
0.397371
0.399374
0.405682
0.409495
0.426261
0.385377
0.385311
0.385272
0.386136
0.386596
0.388715
0.389894
0.39382
0.396127
0.406266
0.381572
0.381015
0.380636
0.380763
0.380849
0.38188
0.382472
0.384745
0.386069
0.392311
0.378544
0.377646
0.376934
0.376505
0.376298
0.376491
0.37664
0.377698
0.378334
0.382138
0.376065
0.374985
0.373964
0.373241
0.372599
0.372242
0.372061
0.372215
0.372361
0.374491
0.374115
0.37274
0.37163
0.370539
0.369723
0.368917
0.368368
0.367921
0.367669
0.368618
0.372484
0.371004
0.369648
0.368466
0.367275
0.36639
0.365309
0.364747
0.363695
0.36408
0.371162
0.369696
0.368054
0.366866
0.365333
0.364387
0.362926
0.36219
0.36057
0.360509
0.370114
0.368712
0.36681
0.365647
0.363836
0.362847
0.361098
0.360227
0.358459
0.357776
0.369294
0.367902
0.365859
0.364645
0.362716
0.361598
0.359752
0.358662
0.356886
0.355773
0.368727
0.367175
0.365172
0.363751
0.361879
0.360512
0.358721
0.35735
0.355603
0.354201
0.368404
0.366716
0.364729
0.363152
0.361285
0.359753
0.357947
0.356408
0.354617
0.353047
0.367035
0.365018
0.362916
0.361018
0.359013
0.357186
0.355223
0.353424
0.351464
0.349663
0.497876
0.537616
0.592152
0.684187
0.840447
1.10761
1.72359
3.72665
15.7605
9.61005
0.497716
0.53861
0.597761
0.684195
0.853413
1.15219
1.83907
3.87395
16.8891
9.70106
0.499767
0.538117
0.603875
0.699928
0.86801
1.16759
1.83984
4.1106
17.61
9.75628