/*--------------------------------*- C++ -*----------------------------------*\
  =========                 |
  \\      /  F ield         | OpenFOAM: The Open Source CFD Toolbox
   \\    /   O peration     | Website:  https://openfoam.org
    \\  /    A nd           | Version:  8
     \\/     M anipulation  |
\*---------------------------------------------------------------------------*/
FoamFile
{
    version     2.0;
    format      ascii;
    class       volScalarField;
    location    "2.999969291";
    object      nut;
}
// * * * * * * * * * * * * * * * * * * * * * * * * * * * * * * * * * * * * * //

dimensions      [0 2 -1 0 0 0 0];

internalField   nonuniform List<scalar> 
6800
(
0.0105776
0.0279435
0.0374545
0.0428434
0.0497349
0.0552527
0.0485865
0.041596
0.0246615
0.0180201
0.00885046
0.0283815
0.0396166
0.0446077
0.054876
0.0520481
0.0384282
0.0229238
0.0162071
0.0147163
0.0111093
0.0322076
0.0409323
0.0494055
0.0563193
0.0382907
0.0219415
0.0162265
0.0141168
0.0125686
0.0120867
0.0353666
0.0432789
0.0525102
0.0444978
0.026443
0.0200564
0.0156589
0.0123672
0.0107631
0.0132247
0.0374295
0.0446719
0.053144
0.0326635
0.0212472
0.014268
0.0118808
0.0105223
0.00965669
0.0134578
0.0395369
0.0475399
0.0462996
0.0262537
0.0161667
0.0141248
0.0127677
0.0110746
0.00998206
0.0137165
0.0424309
0.0517088
0.0361269
0.0184153
0.0148481
0.0123257
0.0103671
0.00924927
0.00867468
0.0134213
0.0462397
0.0508929
0.0255342
0.018654
0.0145224
0.0123745
0.0109934
0.00978424
0.00899503
0.012187
0.0508168
0.0452466
0.0247807
0.0148714
0.0124747
0.0110214
0.009592
0.0086216
0.00814719
0.0123031
0.0548029
0.0399352
0.0193584
0.0160194
0.013396
0.0113245
0.00975569
0.00894605
0.00839758
0.058306
0.249523
0.345152
0.371872
0.379464
0.380525
0.38427
0.390071
0.39648
0.399251
0.0559659
0.240505
0.333767
0.361033
0.365699
0.363452
0.363521
0.365845
0.368752
0.371141
0.0517469
0.221346
0.310343
0.339645
0.341174
0.336564
0.333446
0.33064
0.32695
0.327326
0.0467356
0.199369
0.282577
0.310112
0.308673
0.302754
0.293278
0.286461
0.276344
0.260338
0.0414761
0.177548
0.253687
0.270246
0.263849
0.25218
0.237358
0.220245
0.201988
0.156112
0.0369066
0.158545
0.215014
0.21628
0.201792
0.186955
0.161286
0.120875
0.0975931
0.0703176
0.0330536
0.134341
0.166992
0.150401
0.132015
0.0953149
0.0704666
0.0591495
0.0576937
0.0491469
0.0311348
0.106108
0.0978456
0.0807369
0.0573863
0.0535981
0.0528608
0.0495497
0.0496877
0.0438834
0.0269944
0.0568343
0.0454381
0.045957
0.046995
0.0494496
0.0507237
0.0484686
0.046985
0.0400651
0.0197851
0.0310042
0.0369555
0.0421439
0.0467119
0.050908
0.0516243
0.0460258
0.0441865
0.0282697
0.401161
0.402229
0.399862
0.396745
0.39378
0.3912
0.388994
0.387184
0.385764
0.384658
0.383799
0.383086
0.382479
0.38194
0.381424
0.380935
0.380452
0.379995
0.37955
0.379109
0.378672
0.378241
0.377824
0.377431
0.377073
0.376759
0.376492
0.376275
0.376101
0.375965
0.375861
0.375779
0.375706
0.375633
0.375547
0.375442
0.375314
0.375161
0.374979
0.374773
0.374548
0.374308
0.374054
0.373787
0.373502
0.373196
0.372863
0.372497
0.372095
0.371657
0.371186
0.370688
0.37017
0.369641
0.369108
0.368578
0.368055
0.367541
0.36704
0.36655
0.366075
0.365612
0.36516
0.364719
0.364288
0.363866
0.363455
0.363054
0.362665
0.362289
0.361928
0.361583
0.361256
0.360949
0.360662
0.360397
0.360155
0.359935
0.359739
0.359566
0.359417
0.359291
0.359187
0.359107
0.359046
0.359011
0.358989
0.358995
0.359001
0.359047
0.359069
0.359154
0.359172
0.359304
0.359297
0.359477
0.359416
0.35971
0.359209
0.360186
0.373462
0.374521
0.373183
0.370965
0.368799
0.36698
0.365557
0.364542
0.363844
0.36341
0.363178
0.363008
0.362924
0.362884
0.362831
0.362812
0.362801
0.362787
0.362759
0.362713
0.362653
0.362582
0.362513
0.362459
0.362434
0.362448
0.362505
0.362607
0.362742
0.362909
0.363106
0.363319
0.36353
0.363725
0.363892
0.364027
0.364126
0.364189
0.364218
0.364222
0.364215
0.364193
0.364155
0.3641
0.364019
0.363908
0.363755
0.363555
0.363303
0.362999
0.36265
0.362264
0.361853
0.361425
0.360993
0.360562
0.360138
0.359723
0.359321
0.35893
0.358552
0.358182
0.357823
0.357471
0.357129
0.356796
0.356473
0.35616
0.35586
0.355573
0.355301
0.355046
0.354809
0.354592
0.354394
0.354218
0.354064
0.353931
0.353821
0.353733
0.353666
0.353623
0.353601
0.353603
0.353622
0.353666
0.353721
0.353805
0.353887
0.354008
0.3541
0.354258
0.354342
0.354544
0.354595
0.354845
0.354837
0.355203
0.354739
0.35581
0.333316
0.332167
0.330196
0.327867
0.325902
0.324573
0.323839
0.323602
0.323694
0.324052
0.324597
0.32539
0.326311
0.32741
0.328609
0.329797
0.330926
0.331984
0.332966
0.333878
0.334731
0.335536
0.336315
0.337086
0.337865
0.338658
0.339466
0.340284
0.341095
0.341917
0.342753
0.343554
0.344303
0.344988
0.345608
0.346169
0.346673
0.347124
0.347532
0.347896
0.34822
0.348511
0.348776
0.349013
0.349212
0.349361
0.349443
0.349453
0.349385
0.349251
0.349062
0.348831
0.348574
0.348306
0.348029
0.347747
0.347466
0.34719
0.346925
0.346674
0.346431
0.346195
0.345969
0.345754
0.345551
0.34536
0.345181
0.345013
0.344861
0.344724
0.344604
0.344501
0.344415
0.344347
0.344298
0.344267
0.344254
0.34426
0.344283
0.344325
0.344385
0.344467
0.344566
0.34469
0.344827
0.344991
0.345162
0.345362
0.345552
0.345783
0.345976
0.346238
0.346412
0.346715
0.346847
0.347196
0.347254
0.34773
0.347306
0.348534
0.26308
0.264778
0.267306
0.268806
0.270495
0.272525
0.274822
0.277219
0.279607
0.282027
0.284388
0.286799
0.289205
0.291505
0.29367
0.295705
0.297608
0.299392
0.301052
0.302604
0.304059
0.305439
0.306779
0.308105
0.30944
0.310792
0.312156
0.31352
0.314886
0.316163
0.317334
0.318404
0.319383
0.320282
0.321104
0.321872
0.322587
0.323256
0.323892
0.324496
0.325091
0.325663
0.326236
0.326787
0.327311
0.327777
0.328155
0.328439
0.32862
0.32872
0.328743
0.328715
0.328658
0.328573
0.328496
0.328421
0.328359
0.328316
0.328293
0.328286
0.32831
0.328363
0.328438
0.328528
0.328628
0.328739
0.328854
0.328983
0.329127
0.329283
0.329449
0.329624
0.329808
0.330003
0.330207
0.330421
0.330645
0.330877
0.331118
0.331372
0.33164
0.331926
0.332227
0.332549
0.33288
0.333231
0.333577
0.333949
0.334301
0.334692
0.335032
0.335446
0.335753
0.336197
0.336445
0.336927
0.337089
0.337704
0.337331
0.33878
0.155679
0.158873
0.16251
0.16752
0.172929
0.178954
0.185089
0.190761
0.196042
0.201209
0.206067
0.210959
0.21569
0.22022
0.224489
0.228494
0.232257
0.235814
0.239135
0.242256
0.245165
0.247924
0.250609
0.253266
0.255917
0.258572
0.261203
0.263821
0.266358
0.268855
0.271267
0.273537
0.27563
0.277639
0.279514
0.281366
0.283123
0.284795
0.286404
0.287947
0.289487
0.290958
0.292461
0.293924
0.295356
0.296676
0.297834
0.298811
0.299613
0.30032
0.300888
0.301385
0.301853
0.302283
0.302709
0.303034
0.303337
0.303652
0.303976
0.304325
0.304697
0.305095
0.305515
0.305948
0.306392
0.306841
0.307299
0.307753
0.308197
0.308637
0.309076
0.309517
0.309965
0.310417
0.310876
0.311345
0.311817
0.312291
0.312767
0.313254
0.313754
0.314276
0.314813
0.315374
0.315939
0.316526
0.3171
0.3177
0.318265
0.318872
0.319411
0.32003
0.32052
0.321164
0.321589
0.322268
0.322591
0.323417
0.323164
0.324902
0.071841
0.0752944
0.0790006
0.0836221
0.087731
0.0917642
0.0958112
0.10056
0.1056
0.110964
0.116501
0.12233
0.128104
0.133933
0.139584
0.144977
0.150168
0.155163
0.159722
0.164011
0.167876
0.171633
0.175429
0.179285
0.183182
0.187131
0.191058
0.195009
0.19882
0.202611
0.206262
0.209632
0.212584
0.21581
0.218555
0.221899
0.224887
0.227742
0.230517
0.233174
0.235902
0.238435
0.241147
0.243774
0.24639
0.248834
0.251052
0.252993
0.254692
0.256449
0.257931
0.259244
0.260582
0.261754
0.26287
0.263551
0.264378
0.265189
0.265934
0.266772
0.26771
0.268707
0.269727
0.270758
0.271793
0.272834
0.273873
0.274911
0.275944
0.276974
0.277999
0.279015
0.280028
0.281027
0.28202
0.28301
0.283983
0.284939
0.285881
0.286829
0.287783
0.28876
0.289741
0.290742
0.291728
0.292733
0.2937
0.294691
0.295624
0.296593
0.297474
0.298433
0.299225
0.300179
0.300879
0.301854
0.302423
0.303553
0.303514
0.305599
0.0496841
0.0503471
0.0512825
0.0522639
0.05379
0.055339
0.0564355
0.0580009
0.0593873
0.061313
0.0635783
0.0660245
0.0684368
0.0709187
0.0732852
0.0754275
0.0777334
0.0800042
0.0824165
0.0852859
0.0878622
0.0908572
0.0945141
0.0984163
0.102306
0.106377
0.11054
0.11488
0.119158
0.123515
0.12776
0.131988
0.135999
0.140031
0.143842
0.147804
0.151542
0.155386
0.159057
0.162519
0.166163
0.169532
0.173709
0.17756
0.181451
0.185207
0.18869
0.19194
0.194464
0.198053
0.201103
0.203391
0.20672
0.209143
0.210831
0.210533
0.212501
0.213566
0.214107
0.215487
0.2172
0.218932
0.220623
0.222321
0.224059
0.22583
0.227612
0.229391
0.23115
0.232894
0.234618
0.236324
0.238023
0.239689
0.241337
0.242974
0.244573
0.246144
0.247693
0.24925
0.250807
0.252381
0.25394
0.255512
0.257037
0.25858
0.260044
0.26154
0.262933
0.264377
0.265689
0.26707
0.268248
0.269608
0.27068
0.27207
0.272969
0.274528
0.27483
0.277357
0.0437327
0.0434739
0.0433114
0.043286
0.0434269
0.0435838
0.0438282
0.0440363
0.0442287
0.0442823
0.0442851
0.0440196
0.0437205
0.0430158
0.0425096
0.0420265
0.0418308
0.0416026
0.0414166
0.0413829
0.0412792
0.0416547
0.0424527
0.0431722
0.0437847
0.0447788
0.0462329
0.0479882
0.0497621
0.0517843
0.0537297
0.0560576
0.0581265
0.0607637
0.0629584
0.0658638
0.0683179
0.0714848
0.0743132
0.0784987
0.0821641
0.0865967
0.0920706
0.0958794
0.102282
0.106175
0.111128
0.116308
0.118782
0.123951
0.12882
0.131781
0.135756
0.138246
0.144206
0.147561
0.144111
0.145168
0.147332
0.14974
0.152261
0.154873
0.157504
0.160155
0.162796
0.16543
0.168064
0.170643
0.173273
0.175901
0.178433
0.180976
0.183506
0.185992
0.188435
0.190862
0.193232
0.195564
0.197842
0.200109
0.20234
0.20458
0.206769
0.208973
0.211088
0.213241
0.215252
0.217355
0.219239
0.221317
0.222922
0.224623
0.226199
0.228151
0.229798
0.231765
0.233052
0.235194
0.235933
0.238978
0.0392037
0.0382935
0.0374877
0.0368343
0.0362529
0.0356012
0.0348822
0.0341154
0.033338
0.0324802
0.0316515
0.0307042
0.029822
0.0288503
0.0277438
0.0266117
0.0253544
0.0242614
0.0233467
0.0226047
0.0219568
0.0214699
0.0210876
0.020831
0.0206484
0.0205266
0.0205636
0.0205555
0.0208356
0.0208407
0.0210306
0.0213895
0.0217503
0.0223594
0.0227321
0.0234111
0.0239189
0.0247524
0.0254167
0.0266829
0.0277385
0.0290983
0.0311081
0.032582
0.0352125
0.0372351
0.0396164
0.0423021
0.0442173
0.0467966
0.0493735
0.0516202
0.0539557
0.0562535
0.0585542
0.0608356
0.0630417
0.0655017
0.0682812
0.0713514
0.074629
0.0780652
0.081547
0.085098
0.0886532
0.0922392
0.0958073
0.0993822
0.102919
0.106451
0.109938
0.113408
0.116824
0.120216
0.12353
0.126828
0.130034
0.133223
0.136267
0.139274
0.142149
0.145028
0.1478
0.150619
0.153299
0.15606
0.158633
0.161336
0.163798
0.166437
0.168779
0.171365
0.173486
0.17613
0.178108
0.180828
0.18256
0.185318
0.186632
0.190246
0.0272571
0.0261157
0.02487
0.0236146
0.0223579
0.0213266
0.0204627
0.0197228
0.0190753
0.0184831
0.017934
0.0174011
0.0168878
0.0163816
0.0158859
0.0153994
0.0149333
0.0144954
0.0141021
0.0137538
0.013458
0.0132079
0.0130072
0.0128417
0.012713
0.0126105
0.0125274
0.0124599
0.0124171
0.0123542
0.0123048
0.0122465
0.0122165
0.0121858
0.0121472
0.012154
0.0121274
0.0120913
0.0122501
0.0123068
0.0123453
0.0124506
0.0126172
0.0129521
0.0134016
0.0138677
0.0143571
0.0148938
0.0153411
0.0158612
0.0163366
0.0168071
0.0172407
0.0177214
0.0182241
0.0188149
0.0194698
0.0202548
0.0211271
0.0221416
0.0232379
0.0245002
0.0258307
0.0273506
0.0289224
0.0307084
0.0325335
0.03459
0.0366744
0.0389929
0.0413291
0.0438957
0.0464671
0.0492576
0.0520297
0.0550078
0.0579396
0.0610611
0.0641413
0.0674626
0.0706889
0.0741541
0.0774208
0.0809212
0.0841531
0.0876505
0.0908001
0.0942658
0.0972962
0.100717
0.103598
0.106982
0.109668
0.113037
0.115508
0.118909
0.121095
0.124614
0.126034
0.131108
0.0146341
0.0145465
0.0143588
0.0141232
0.0138555
0.0135779
0.0133053
0.0130474
0.0128059
0.0125787
0.0123608
0.0121474
0.0119362
0.0117259
0.0115191
0.0113172
0.0111255
0.0109452
0.0107814
0.0106321
0.0105018
0.010385
0.0102858
0.0101968
0.0101214
0.0100526
0.00999319
0.00993696
0.00988787
0.00983811
0.00979519
0.00974826
0.00970838
0.00966578
0.00962617
0.00959058
0.00955086
0.00951897
0.00948612
0.00946742
0.00944208
0.00942772
0.00941277
0.00941876
0.00943084
0.00945491
0.00947319
0.00951072
0.00952977
0.00960205
0.00959046
0.00963544
0.00963378
0.0096239
0.00984329
0.009949
0.00970087
0.00963012
0.00972039
0.00990153
0.01
0.0101751
0.0102747
0.0105146
0.0106513
0.0109497
0.0111508
0.0115368
0.0118086
0.0123034
0.0126701
0.0133002
0.0137852
0.0145754
0.0151907
0.0161589
0.0169164
0.0180856
0.0190042
0.020406
0.0215029
0.0231592
0.0244384
0.0263574
0.0278094
0.0299907
0.0315995
0.034034
0.0357762
0.0384478
0.0402938
0.0431928
0.045091
0.0482188
0.0501313
0.0534695
0.0552904
0.0590535
0.0600741
0.0663558
0.0117247
0.0116079
0.0114427
0.0112681
0.0110939
0.0109269
0.0107715
0.0106297
0.0104999
0.010379
0.0102629
0.0101489
0.0100352
0.00992215
0.00981125
0.00970425
0.00960383
0.00951094
0.00942745
0.00935274
0.00928749
0.00922989
0.0091799
0.00913517
0.00909562
0.00905875
0.00902498
0.00899209
0.00896058
0.0089291
0.00889796
0.00886668
0.00883532
0.00880438
0.00877315
0.00874317
0.00871319
0.00868561
0.00865874
0.00863513
0.00861116
0.0085917
0.00857273
0.00856225
0.00854728
0.00854071
0.00852724
0.00851604
0.00849497
0.0084797
0.00846828
0.0084466
0.00844516
0.00844062
0.0084246
0.00840007
0.00838514
0.00839589
0.00839152
0.00840094
0.00838295
0.00839638
0.00837829
0.00838973
0.0083791
0.00837744
0.00838923
0.00837798
0.00841409
0.00844407
0.00845931
0.00848746
0.00848467
0.00854596
0.00857735
0.00864527
0.00869339
0.00876721
0.00884091
0.00899964
0.00909904
0.00932125
0.00945108
0.00973395
0.00989513
0.0102594
0.0104687
0.0109293
0.0112096
0.0117714
0.0121303
0.0128082
0.013231
0.0140949
0.0146125
0.0156409
0.0161302
0.0176148
0.0175286
0.0207545
0.010063
0.0100244
0.00997264
0.00990835
0.0098361
0.0097592
0.00968133
0.00960364
0.00952788
0.00945397
0.00938317
0.00931531
0.00925148
0.00919132
0.00913533
0.00908275
0.00903343
0.00898647
0.0089414
0.0088975
0.00885433
0.00881157
0.00876896
0.00872665
0.00868459
0.00864326
0.00860267
0.00856344
0.00852551
0.00848941
0.00845492
0.00842248
0.00839158
0.00836267
0.00833495
0.00830903
0.00828381
0.00826024
0.00823687
0.00821509
0.00819318
0.00817294
0.00815233
0.00813344
0.00811419
0.0080968
0.00807918
0.00806344
0.00804774
0.0080335
0.00801954
0.00800646
0.00799403
0.00798174
0.00797065
0.00795914
0.00794861
0.00793797
0.00792668
0.00791622
0.00790343
0.00789366
0.00787943
0.00787013
0.0078551
0.00784706
0.00783239
0.00782647
0.00781117
0.00780869
0.0077941
0.00779346
0.00777903
0.0077796
0.00776645
0.00776793
0.00775774
0.00775929
0.00775366
0.00775801
0.00775798
0.0077635
0.00777091
0.00777527
0.00778905
0.0078189
0.00782491
0.00784743
0.00785375
0.00788617
0.00790901
0.00795092
0.00798985
0.00804875
0.00810222
0.00820159
0.00824076
0.00841541
0.00831018
0.00877221
0.00907049
0.00905638
0.00903887
0.00901406
0.00898164
0.00894031
0.0088922
0.00883748
0.00877929
0.00871777
0.00865607
0.00859379
0.00853396
0.00847563
0.00842145
0.00836977
0.00832262
0.00827766
0.00823637
0.00819608
0.0081582
0.0081202
0.0080838
0.00804687
0.00801151
0.00797592
0.00794241
0.00790927
0.0078788
0.0078492
0.00782259
0.00779704
0.00777443
0.00775272
0.00773361
0.00771503
0.00769857
0.00768219
0.00766751
0.00765249
0.00763896
0.00762476
0.00761207
0.0075984
0.00758654
0.00757342
0.0075626
0.00755013
0.00754052
0.00752881
0.00752041
0.00750948
0.00750209
0.00749202
0.00748521
0.00747603
0.00746943
0.00746113
0.00745437
0.0074468
0.00743971
0.00743267
0.00742512
0.00741838
0.00741026
0.00740383
0.00739519
0.00738931
0.0073803
0.00737523
0.00736612
0.00736195
0.00735288
0.00734957
0.00734091
0.00733776
0.00732996
0.00732642
0.00732064
0.0073167
0.00731338
0.00730803
0.00730633
0.00729995
0.00729808
0.00729374
0.00729293
0.00729089
0.00728868
0.00729095
0.00728159
0.00728699
0.00727522
0.00728123
0.0072769
0.00727434
0.00727323
0.00730075
0.00728217
0.0072977
0.00835993
0.00835288
0.00833824
0.00831583
0.00828835
0.00825614
0.00822201
0.00818578
0.0081498
0.00811306
0.00807745
0.00804135
0.00800649
0.007971
0.00793681
0.00790196
0.00786869
0.00783496
0.00780326
0.00777137
0.00774189
0.00771237
0.00768545
0.00765839
0.00763392
0.00760907
0.00758666
0.00756358
0.00754281
0.00752112
0.00750169
0.00748119
0.007463
0.00744366
0.00742673
0.0074086
0.00739302
0.00737619
0.00736201
0.00734652
0.00733375
0.00731955
0.00730811
0.00729509
0.00728486
0.00727287
0.00726371
0.00725258
0.00724435
0.00723391
0.00722646
0.00721658
0.00720975
0.00720034
0.00719401
0.00718499
0.00717903
0.00717037
0.00716469
0.00715635
0.00715089
0.00714286
0.00713759
0.00712982
0.00712474
0.00711722
0.00711231
0.00710503
0.00710031
0.00709325
0.00708877
0.00708191
0.00707772
0.00707102
0.00706721
0.00706064
0.00705724
0.00705081
0.00704782
0.00704158
0.00703902
0.00703288
0.00703088
0.00702462
0.00702333
0.0070169
0.00701603
0.00701003
0.00700872
0.00700393
0.00700164
0.00699765
0.00699526
0.00699102
0.00698985
0.00698228
0.00698446
0.00697604
0.00699052
0.00695331
0.00783675
0.0078374
0.00783246
0.00782153
0.00780658
0.00778712
0.0077653
0.00774048
0.00771485
0.00768749
0.00766046
0.00763241
0.00760533
0.00757756
0.0075511
0.00752408
0.00749863
0.00747268
0.00744849
0.00742384
0.00740119
0.00737811
0.00735726
0.00733601
0.00731714
0.00729782
0.00728092
0.00726337
0.00724819
0.00723209
0.00721826
0.00720324
0.00719045
0.00717624
0.00716429
0.00715076
0.00713959
0.00712671
0.00711633
0.00710411
0.00709453
0.00708297
0.00707416
0.00706323
0.00705511
0.00704474
0.00703724
0.00702737
0.00702038
0.00701094
0.00700441
0.00699535
0.0069892
0.00698049
0.00697469
0.00696629
0.00696081
0.00695269
0.00694752
0.00693965
0.00693478
0.00692711
0.00692253
0.00691502
0.00691074
0.00690335
0.00689936
0.00689206
0.00688839
0.00688116
0.0068778
0.00687067
0.00686761
0.00686065
0.00685782
0.00685116
0.00684847
0.00684223
0.00683958
0.00683389
0.00683115
0.00682619
0.0068231
0.00681913
0.00681544
0.00681245
0.00680839
0.00680573
0.00680211
0.00679886
0.00679621
0.00679228
0.00679008
0.00678629
0.00678352
0.00678169
0.00677696
0.0067746
0.00675209
0.00678247
0.00747189
0.00747486
0.00747318
0.00746666
0.00745734
0.0074446
0.00743046
0.0074139
0.00739686
0.00737806
0.0073594
0.00733938
0.00731994
0.00729943
0.00727989
0.00725949
0.00724039
0.00722058
0.00720232
0.00718339
0.00716617
0.00714823
0.00713208
0.00711512
0.0071
0.00708395
0.0070698
0.00705461
0.00704141
0.00702708
0.00701483
0.00700135
0.00699004
0.00697739
0.00696699
0.00695513
0.00694559
0.00693445
0.00692571
0.00691523
0.00690721
0.00689731
0.00688995
0.00688056
0.0068738
0.00686486
0.00685862
0.00685008
0.00684432
0.00683612
0.00683078
0.00682289
0.00681792
0.00681029
0.00680566
0.00679826
0.00679394
0.00678674
0.00678269
0.00677567
0.00677188
0.00676501
0.00676147
0.00675473
0.00675142
0.0067448
0.00674173
0.0067352
0.00673235
0.00672591
0.00672327
0.00671692
0.00671446
0.00670823
0.00670592
0.00669982
0.00669763
0.00669168
0.00668958
0.00668382
0.00668177
0.00667623
0.00667419
0.0066689
0.00666684
0.00666179
0.00665975
0.00665487
0.00665289
0.00664819
0.0066462
0.00664166
0.00663957
0.00663582
0.00663305
0.00662826
0.00662537
0.00662128
0.00661841
0.00661437
0.00721046
0.00721438
0.0072152
0.00721202
0.00720668
0.00719837
0.00718889
0.0071771
0.00716484
0.00715079
0.00713681
0.00712139
0.00710645
0.00709033
0.00707505
0.00705878
0.00704366
0.00702768
0.0070131
0.0069977
0.00698386
0.00696919
0.00695618
0.00694227
0.00693008
0.0069169
0.00690551
0.00689302
0.00688239
0.00687056
0.00686066
0.00684945
0.00684025
0.00682964
0.00682113
0.00681108
0.00680321
0.00679368
0.0067864
0.00677732
0.00677057
0.00676188
0.00675559
0.00674723
0.00674136
0.00673328
0.00672779
0.00671996
0.00671483
0.00670723
0.00670244
0.00669506
0.00669061
0.00668344
0.0066793
0.00667233
0.00666849
0.00666171
0.00665814
0.00665153
0.00664822
0.00664175
0.00663867
0.00663233
0.00662947
0.00662324
0.00662058
0.00661444
0.00661196
0.00660592
0.00660361
0.00659765
0.0065955
0.00658962
0.00658761
0.00658182
0.00657994
0.00657424
0.00657247
0.00656688
0.00656518
0.00655973
0.00655808
0.00655276
0.00655115
0.00654599
0.00654437
0.00653938
0.00653774
0.00653299
0.00653123
0.00652664
0.00652477
0.00652092
0.00651847
0.00651332
0.00651088
0.00650652
0.00650405
0.00649969
0.00701957
0.00702368
0.00702573
0.00702425
0.007021
0.00701508
0.00700824
0.00699929
0.00699
0.00697902
0.00696818
0.00695595
0.00694426
0.00693138
0.00691934
0.00690626
0.00689425
0.00688127
0.00686954
0.00685686
0.00684558
0.00683333
0.00682259
0.00681083
0.00680068
0.00678946
0.00677992
0.00676924
0.00676031
0.00675015
0.00674182
0.00673214
0.00672438
0.00671516
0.00670792
0.00669912
0.00669238
0.00668396
0.00667769
0.00666962
0.00666378
0.00665601
0.00665058
0.00664309
0.00663803
0.00663078
0.00662607
0.00661903
0.00661464
0.00660779
0.0066037
0.00659702
0.0065932
0.00658666
0.00658309
0.00657669
0.00657335
0.00656707
0.00656393
0.00655776
0.00655481
0.00654875
0.00654596
0.00654
0.00653737
0.0065315
0.00652902
0.00652323
0.00652089
0.00651516
0.00651298
0.0065073
0.00650527
0.00649963
0.00649775
0.00649215
0.0064904
0.00648486
0.00648322
0.00647777
0.00647619
0.00647088
0.00646932
0.00646417
0.00646259
0.00645763
0.00645602
0.00645125
0.00644961
0.00644498
0.00644337
0.00643889
0.00643729
0.00643255
0.00643138
0.00642739
0.00642537
0.00642116
0.00641944
0.00641371
0.0068755
0.00688007
0.00688283
0.00688242
0.00688061
0.00687636
0.00687141
0.00686448
0.00685735
0.00684858
0.00684001
0.00683004
0.00682062
0.00680996
0.00680012
0.00678916
0.00677925
0.00676828
0.00675852
0.00674773
0.00673829
0.0067278
0.00671877
0.00670865
0.00670007
0.00669035
0.00668226
0.00667296
0.00666537
0.00665647
0.00664937
0.00664087
0.00663423
0.0066261
0.00661991
0.00661212
0.00660634
0.00659884
0.00659344
0.00658621
0.00658115
0.00657415
0.00656941
0.00656261
0.00655817
0.00655155
0.00654739
0.00654093
0.00653703
0.00653072
0.00652707
0.00652089
0.00651747
0.00651141
0.0065082
0.00650226
0.00649922
0.00649339
0.00649052
0.00648479
0.00648206
0.00647643
0.00647383
0.00646827
0.00646581
0.00646031
0.00645797
0.00645253
0.00645031
0.00644492
0.00644283
0.00643747
0.0064355
0.00643017
0.00642833
0.00642303
0.0064213
0.00641606
0.0064144
0.00640926
0.00640763
0.0064026
0.00640102
0.00639608
0.00639455
0.00638972
0.00638819
0.00638355
0.00638192
0.0063775
0.00637581
0.00637157
0.00636993
0.00636534
0.00636418
0.00636028
0.00635847
0.00635413
0.00635238
0.00634678
0.00676585
0.00677061
0.0067738
0.0067741
0.00677327
0.00677017
0.00676654
0.006761
0.00675537
0.00674812
0.00674115
0.0067328
0.00672503
0.00671603
0.00670787
0.00669856
0.0066903
0.00668093
0.00667276
0.00666349
0.00665555
0.00664648
0.00663885
0.00663005
0.00662278
0.00661427
0.00660738
0.00659918
0.00659267
0.00658477
0.00657864
0.00657102
0.00656526
0.00655791
0.00655249
0.00654538
0.0065403
0.00653342
0.00652865
0.00652198
0.0065175
0.00651101
0.0065068
0.00650049
0.00649652
0.00649036
0.00648663
0.0064806
0.00647707
0.00647118
0.00646784
0.00646206
0.00645889
0.00645323
0.00645021
0.00644466
0.00644178
0.00643633
0.00643356
0.00642822
0.00642556
0.00642031
0.00641775
0.00641258
0.00641013
0.00640501
0.00640268
0.00639759
0.00639538
0.00639034
0.00638822
0.00638324
0.00638119
0.00637629
0.00637428
0.00636949
0.00636749
0.00636286
0.00636079
0.00635637
0.00635424
0.00634996
0.00634789
0.00634359
0.00634171
0.00633738
0.00633551
0.00633151
0.00632917
0.00632593
0.00632293
0.00632033
0.00631703
0.00631434
0.00631186
0.00630702
0.00630681
0.00630216
0.00630004
0.00629495
0.00668403
0.00668852
0.00669178
0.00669242
0.00669217
0.00668981
0.00668707
0.00668253
0.00667799
0.00667188
0.0066661
0.00665895
0.00665241
0.00664462
0.00663768
0.00662955
0.00662246
0.00661421
0.00660715
0.00659894
0.00659204
0.00658396
0.0065773
0.00656941
0.00656303
0.00655537
0.0065493
0.00654187
0.00653612
0.00652893
0.0065235
0.00651652
0.00651141
0.00650464
0.00649983
0.00649325
0.00648872
0.00648232
0.00647807
0.00647181
0.00646782
0.0064617
0.00645794
0.00645195
0.00644841
0.00644253
0.00643918
0.00643342
0.00643025
0.00642459
0.00642158
0.00641602
0.00641315
0.0064077
0.00640494
0.00639959
0.00639694
0.00639168
0.00638912
0.00638396
0.00638148
0.0063764
0.00637401
0.00636899
0.00636671
0.00636171
0.00635955
0.00635455
0.00635255
0.0063475
0.00634566
0.0063406
0.00633887
0.00633387
0.00633214
0.00632732
0.00632547
0.00632093
0.00631888
0.0063147
0.00631236
0.00630865
0.00630589
0.00630275
0.00629952
0.0062969
0.00629343
0.00629093
0.00628765
0.00628496
0.00628192
0.00627932
0.00627594
0.00627389
0.00627007
0.00627009
0.00626184
0.00626314
0.00624419
0.00627169
0.00662129
0.00662557
0.00662882
0.00662967
0.00662979
0.00662795
0.00662581
0.00662196
0.00661816
0.00661285
0.0066079
0.0066016
0.00659592
0.006589
0.00658291
0.00657564
0.00656938
0.00656197
0.0065557
0.00654828
0.00654213
0.00653479
0.00652882
0.00652163
0.00651589
0.00650887
0.00650339
0.00649655
0.00649133
0.00648468
0.00647973
0.00647326
0.00646857
0.00646226
0.00645783
0.00645168
0.0064475
0.00644148
0.00643754
0.00643165
0.00642793
0.00642214
0.00641865
0.00641294
0.00640966
0.00640402
0.00640094
0.00639536
0.00639248
0.00638694
0.00638425
0.00637875
0.00637624
0.00637076
0.00636842
0.00636296
0.00636078
0.00635534
0.0063533
0.00634789
0.00634598
0.00634059
0.0063388
0.00633342
0.00633176
0.00632638
0.00632485
0.00631946
0.00631807
0.00631264
0.0063114
0.00630593
0.00630484
0.00629933
0.00629839
0.00629284
0.00629203
0.00628649
0.00628573
0.0062803
0.00627948
0.00627428
0.00627325
0.00626843
0.00626708
0.00626268
0.0062611
0.00625682
0.00625549
0.00625082
0.00625015
0.00624483
0.00624461
0.00623947
0.00623912
0.00623331
0.00623387
0.00622978
0.00621015
0.00623585
0.00657328
0.00657733
0.00658045
0.00658136
0.00658166
0.0065801
0.00657832
0.00657491
0.00657158
0.00656679
0.00656238
0.00655665
0.00655154
0.0065452
0.00653968
0.006533
0.0065273
0.00652046
0.00651473
0.00650786
0.00650222
0.0064954
0.00648992
0.00648321
0.00647793
0.00647137
0.00646631
0.0064599
0.00645508
0.00644883
0.00644425
0.00643815
0.0064338
0.00642785
0.00642373
0.0064179
0.006414
0.0064083
0.0064046
0.00639901
0.0063955
0.00639001
0.00638669
0.00638127
0.00637814
0.00637277
0.00636984
0.00636449
0.00636175
0.00635641
0.00635387
0.00634852
0.00634617
0.00634082
0.00633863
0.00633329
0.00633125
0.00632593
0.006324
0.00631872
0.00631687
0.00631164
0.00630986
0.00630469
0.00630298
0.00629783
0.00629624
0.00629106
0.00628962
0.00628436
0.00628312
0.00627774
0.00627674
0.00627122
0.00627043
0.00626482
0.00626419
0.00625856
0.00625802
0.0062524
0.00625195
0.00624632
0.00624604
0.00624024
0.00624031
0.00623421
0.00623465
0.00622839
0.00622887
0.00622291
0.00622305
0.00621743
0.00621734
0.00621222
0.00621228
0.00620588
0.00620531
0.00620095
0.00619905
0.00619411
0.00653416
0.00653795
0.00654094
0.00654185
0.00654226
0.00654089
0.00653937
0.00653625
0.00653327
0.00652886
0.00652485
0.00651954
0.00651486
0.00650897
0.00650391
0.00649767
0.00649243
0.00648604
0.00648076
0.00647433
0.00646913
0.00646273
0.00645766
0.00645136
0.00644647
0.00644028
0.00643559
0.00642953
0.00642506
0.00641912
0.00641486
0.00640905
0.006405
0.0063993
0.00639546
0.00638986
0.00638622
0.00638071
0.00637726
0.00637183
0.00636855
0.0063632
0.00636008
0.0063548
0.00635183
0.00634661
0.00634379
0.0063386
0.00633593
0.00633077
0.00632824
0.0063231
0.00632072
0.00631559
0.00631334
0.00630823
0.00630609
0.00630102
0.00629896
0.00629393
0.00629195
0.00628697
0.00628506
0.00628011
0.00627827
0.00627335
0.00627161
0.00626667
0.00626506
0.00626007
0.00625862
0.00625355
0.00625228
0.00624713
0.00624602
0.00624084
0.00623981
0.00623468
0.00623366
0.00622864
0.00622763
0.00622263
0.00622178
0.00621659
0.00621612
0.00621065
0.00621042
0.00620505
0.00620448
0.00619982
0.00619853
0.0061945
0.006193
0.00618894
0.00618811
0.00618142
0.00618334
0.00617526
0.00618964
0.00615503
0.00650207
0.0065056
0.00650848
0.00650937
0.0065099
0.00650868
0.0065074
0.00650456
0.0065019
0.00649784
0.00649421
0.00648929
0.00648503
0.00647955
0.0064749
0.00646908
0.00646425
0.00645825
0.00645336
0.0064473
0.00644246
0.0064364
0.00643166
0.00642565
0.00642105
0.00641513
0.00641069
0.00640485
0.00640059
0.00639484
0.00639076
0.0063851
0.00638121
0.00637562
0.00637191
0.00636639
0.00636287
0.00635742
0.00635407
0.00634867
0.00634549
0.00634015
0.00633712
0.00633184
0.00632894
0.00632371
0.00632094
0.00631577
0.00631311
0.006308
0.00630543
0.00630038
0.00629792
0.00629292
0.00629054
0.00628561
0.00628331
0.00627843
0.00627622
0.00627137
0.00626925
0.00626443
0.00626241
0.00625759
0.00625569
0.00625085
0.00624908
0.00624421
0.00624259
0.00623766
0.0062362
0.00623121
0.00622988
0.0062249
0.00622361
0.00621874
0.00621739
0.00621272
0.00621122
0.00620686
0.00620506
0.0062012
0.00619889
0.00619573
0.00619275
0.00619031
0.00618691
0.00618463
0.00618158
0.00617868
0.00617649
0.00617292
0.00617111
0.00616773
0.00616533
0.00616374
0.00615964
0.00615739
0.00613799
0.00616482
0.00647874
0.00648195
0.00648463
0.00648541
0.00648594
0.00648478
0.00648362
0.00648093
0.00647846
0.0064746
0.00647119
0.00646649
0.00646243
0.00645714
0.00645268
0.00644701
0.00644231
0.00643641
0.00643161
0.0064256
0.0064208
0.00641474
0.00640999
0.00640394
0.00639929
0.00639328
0.00638875
0.00638281
0.00637844
0.00637258
0.00636838
0.00636262
0.00635861
0.00635295
0.00634913
0.00634355
0.00633993
0.00633444
0.00633101
0.00632561
0.00632235
0.00631704
0.00631392
0.00630866
0.00630569
0.00630049
0.00629766
0.00629252
0.00628983
0.00628475
0.0062822
0.00627717
0.00627476
0.00626978
0.0062675
0.00626255
0.00626041
0.00625549
0.00625347
0.00624859
0.00624668
0.00624183
0.00624002
0.0062352
0.00623349
0.00622869
0.00622707
0.0062223
0.00622076
0.00621601
0.00621455
0.00620983
0.00620844
0.00620376
0.00620242
0.0061978
0.00619647
0.00619195
0.00619059
0.00618622
0.00618478
0.0061806
0.00617906
0.00617504
0.00617346