/*--------------------------------*- C++ -*----------------------------------*\
  =========                 |
  \\      /  F ield         | OpenFOAM: The Open Source CFD Toolbox
   \\    /   O peration     | Website:  https://openfoam.org
    \\  /    A nd           | Version:  8
     \\/     M anipulation  |
\*---------------------------------------------------------------------------*/
FoamFile
{
    version     2.0;
    format      ascii;
    class       surfaceScalarField;
    location    "2.999969291";
    object      phi;
}
// * * * * * * * * * * * * * * * * * * * * * * * * * * * * * * * * * * * * * //

dimensions      [1 0 -1 0 0 0 0];

internalField   nonuniform List<scalar> 
13330
(
0.186491
-0.0821381
-0.104254
0.415559
-0.638314
0.409311
0.620877
-0.876849
0.671564
0.803243
-1.01453
0.832177
0.965824
-1.09946
0.936884
1.1116
-1.15131
1.00554
1.24387
-1.18277
1.05049
1.36586
-1.20166
1.07966
1.48094
-1.21287
1.09778
-1.22014
1.10751
1.59356
0.240263
-0.322376
0.455402
-0.853435
0.643149
-1.06458
0.808448
-1.17982
0.953129
-1.24413
1.08105
-1.27923
1.19598
-1.2977
1.3009
-1.30658
1.39809
-1.31006
-1.31086
1.4888
0.24424
-0.566611
0.457667
-1.06685
0.63188
-1.23878
0.780612
-1.32855
0.908087
-1.37161
1.01937
-1.39051
1.11845
-1.39679
1.2084
-1.39653
1.29147
-1.39313
-1.38839
1.369
0.237076
-0.803688
0.439052
-1.26882
0.597434
-1.39716
0.72938
-1.46049
0.840397
-1.48263
0.936217
-1.48634
1.02116
-1.48174
1.09846
-1.47384
1.17035
-1.46502
-1.45616
1.23812
0.223457
-1.02715
0.407042
-1.45239
0.54745
-1.53756
0.662523
-1.57556
0.757594
-1.5777
0.839203
-1.56795
0.91175
-1.55429
0.978251
-1.54034
1.04058
-1.52736
-1.51532
1.09974
0.204965
-1.23212
0.366459
-1.61388
0.487791
-1.65889
0.585935
-1.67371
0.665751
-1.65752
0.734396
-1.6366
0.795793
-1.61569
0.852465
-1.59702
0.905871
-1.58077
-1.56609
0.956639
0.183242
-1.41536
0.320706
-1.75134
0.422751
-1.76093
0.504006
-1.75497
0.569384
-1.7229
0.625951
-1.69317
0.676833
-1.66658
0.724004
-1.64419
0.768533
-1.6253
-1.60828
0.810721
0.159666
-1.57503
0.27247
-1.86413
0.355476
-1.84393
0.419915
-1.81941
0.471564
-1.77456
0.516514
-1.73813
0.557038
-1.70711
0.594575
-1.68174
0.629918
-1.66064
-1.6415
0.663132
0.134895
-1.70992
0.223251
-1.95248
0.287772
-1.90845
0.335708
-1.86735
0.374215
-1.81308
0.407647
-1.77157
0.4376
-1.73706
0.465128
-1.70926
0.490844
-1.68636
-1.66531
0.514653
0.109899
-1.81982
0.17436
-2.01693
0.220788
-1.95487
0.252732
-1.8993
0.278421
-1.83877
0.300142
-1.7933
0.319178
-1.7561
0.336264
-1.72635
0.351905
-1.702
0.36592
-1.67932
-0.0954711
0.0954611
-0.172438
0.076965
-0.237319
0.0648839
-0.292473
0.0551538
-0.33717
0.044702
-0.369717
0.0325463
-0.388201
0.0184876
-0.391452
0.0032451
-0.380046
-0.0114103
-0.0226431
-0.357413
-0.0815076
0.176945
-0.149599
0.14505
-0.205234
0.120524
-0.249834
0.0997628
-0.282848
0.0777241
-0.302111
0.0518175
-0.304565
0.0209413
-0.2887
-0.0126308
-0.256629
-0.0435076
-0.0667626
-0.212539
-0.0624573
0.239386
-0.112838
0.195442
-0.150521
0.158217
-0.174566
0.123822
-0.183278
0.0864479
-0.173348
0.0418968
-0.139998
-0.0124075
-0.0868487
-0.0657995
-0.0191361
-0.111244
-0.144451
0.0585135
-0.0402382
0.27962
-0.0688288
0.224037
-0.0819943
0.171401
-0.0752447
0.117091
-0.0428312
0.0540484
0.0199688
-0.0208913
0.104832
-0.0972742
0.199971
-0.16095
0.30187
-0.213174
-0.250989
0.408382
-0.0190697
0.298691
-0.0232949
0.228294
-0.00362496
0.151755
0.050738
0.0627531
0.144206
-0.0394064
0.262265
-0.138943
0.388639
-0.223651
0.520105
-0.292435
0.654272
-0.347356
-0.387481
0.790737
-0.00153373
0.300259
0.0220518
0.204737
0.0884321
0.0854082
0.205738
-0.05453
0.353369
-0.187028
0.510529
-0.296099
0.670813
-0.383941
0.831758
-0.453387
0.990782
-0.506403
-0.544488
1.14777
0.0104147
0.289867
0.0703234
0.144892
0.202802
-0.047034
0.375516
-0.227224
0.557406
-0.368911
0.739985
-0.478676
0.918275
-0.562236
1.08965
-0.624778
1.25394
-0.670704
-0.70334
1.41278
0.0160995
0.273837
0.143708
0.0173523
0.337405
-0.240695
0.539049
-0.428852
0.73598
-0.565837
0.922745
-0.665441
1.09814
-0.737637
1.2631
-0.789743
1.41939
-0.82701
-0.852802
1.56884
0.0533832
0.220519
0.250526
-0.179724
0.465355
-0.455496
0.671722
-0.635205
0.863709
-0.757819
1.04091
-0.842646
1.20477
-0.901492
1.35719
-0.942177
1.50022
-0.970043
-0.988554
1.63596
0.116291
0.345899
0.561974
0.758953
0.938015
1.10091
1.2499
1.38738
1.51512
1.63407
-0.285186
-0.0722466
-0.216548
-0.0686543
-0.153574
-0.0629873
-0.0955691
-0.0580189
-0.0412605
-0.0543218
0.0103166
-0.0515888
0.0590857
-0.0487792
0.105125
-0.0460473
0.149016
-0.0438973
0.19111
-0.0420984
0.231626
-0.0405188
0.270713
-0.0390886
0.308474
-0.0377616
0.344982
-0.0365078
0.380291
-0.0353087
0.414444
-0.0341522
0.447475
-0.0330311
0.479416
-0.0319412
0.510296
-0.0308802
0.540142
-0.0298469
0.568982
-0.0288407
0.596842
-0.0278618
0.623753
-0.0269117
0.649743
-0.0259916
0.674845
-0.0251026
0.699089
-0.0242444
0.722505
-0.0234165
0.745124
-0.0226177
0.766971
-0.0218463
0.788073
-0.021101
0.808455
-0.02038
0.828138
-0.0196812
0.847144
-0.0190029
0.86549
-0.0183438
0.883196
-0.0177036
0.900281
-0.0170822
0.916763
-0.0164794
0.932661
-0.015895
0.947992
-0.0153291
0.962777
-0.0147818
0.977033
-0.0142532
0.990779
-0.0137437
1.00404
-0.013254
1.01682
-0.0127845
1.02916
-0.0123353
1.04107
-0.0119055
1.05256
-0.0114937
1.06366
-0.0110984
1.07438
-0.0107184
1.08474
-0.0103532
1.09474
-0.0100022
1.1044
-0.00966448
1.11374
-0.00933966
1.12277
-0.00902702
1.1315
-0.00872561
1.13993
-0.00843396
1.14808
-0.00815122
1.15596
-0.00787727
1.16357
-0.00761216
1.17092
-0.00735604
1.17803
-0.00710904
1.1849
-0.00687127
1.19154
-0.00664268
1.19796
-0.00642316
1.20417
-0.0062125
1.21018
-0.00601044
1.216
-0.00581669
1.22163
-0.00563095
1.22708
-0.00545293
1.23236
-0.00528231
1.23747
-0.00511882
1.24243
-0.00496216
1.24724
-0.00481206
1.25191
-0.00466823
1.25644
-0.00453038
1.26084
-0.00439824
1.26511
-0.00427151
1.26926
-0.00414991
1.27329
-0.00403315
1.27721
-0.003921
1.28102
-0.00381327
1.28473
-0.00370981
1.28834
-0.00361045
1.29185
-0.00351507
1.29527
-0.00342347
1.29861
-0.00333549
1.30186
-0.00325087
1.30503
-0.0031694
1.30812
-0.00309072
1.31113
-0.00301457
1.31407
-0.00294039
1.31694
-0.00286779
1.31974
-0.00279576
1.32246
-0.00272358
1.32511
-0.00264953
1.32768
-0.00257204
1.33017
-0.00248842
1.33257
-0.00239627
1.33486
-0.00229486
-0.0020849
-0.145276
-0.13956
-0.0851827
-0.128788
-0.0297938
-0.118412
0.0221453
-0.109993
0.0707469
-0.102956
0.116399
-0.0972698
0.160031
-0.0924353
0.202072
-0.0881084
0.242538
-0.0843785
0.281552
-0.0811231
0.319224
-0.0781979
0.355646
-0.0755135
0.390892
-0.0730091
0.425018
-0.070634
0.458064
-0.068354
0.490057
-0.0661449
0.521021
-0.0639944
0.550976
-0.0618975
0.579947
-0.0598519
0.607953
-0.0578558
0.635017
-0.0559074
0.661159
-0.0540066
0.686401
-0.0521568
0.710769
-0.0503624
0.734291
-0.0486262
0.756995
-0.0469492
0.77891
-0.045331
0.800064
-0.0437703
0.820485
-0.0422651
0.840201
-0.0408129
0.859236
-0.0394106
0.877613
-0.0380534
0.895352
-0.0367373
0.912474
-0.0354601
0.928997
-0.0342211
0.944941
-0.0330206
0.960325
-0.0318579
0.975168
-0.0307318
0.989486
-0.0296415
1.0033
-0.0285865
1.01661
-0.0275664
1.02946
-0.0265811
1.04184
-0.025632
1.05378
-0.0247209
1.0653
-0.0238489
1.07642
-0.0230155
1.08715
-0.022218
1.0975
-0.0214527
1.10751
-0.0207165
1.11717
-0.0200091
1.1265
-0.0193301
1.13551
-0.0186781
1.14423
-0.0180528
1.15265
-0.0174538
1.16081
-0.0168783
1.16869
-0.0163208
1.17632
-0.0157781
1.18369
-0.0152506
1.19081
-0.014739
1.19769
-0.0142436
1.20435
-0.0137654
1.21078
-0.013305
1.21699
-0.0128623
1.223
-0.0124373
1.22881
-0.0120293
1.23444
-0.011638
1.23988
-0.0112629
1.24515
-0.0109033
1.25025
-0.0105588
1.25519
-0.0102286
1.25998
-0.00991224
1.26462
-0.0096091
1.26913
-0.00931865
1.2735
-0.00904034
1.27774
-0.00877361
1.28185
-0.00851801
1.28585
-0.00827302
1.28974
-0.00803805
1.29351
-0.0078125
1.29718
-0.00759584
1.30076
-0.0073877
1.30423
-0.00718779
1.30762
-0.00699584
1.31091
-0.00681163
1.31412
-0.00663481
1.31725
-0.00646505
1.3203
-0.00630186
1.32327
-0.00614483
1.32617
-0.00599324
1.329
-0.0058466
1.33177
-0.00570387
1.33446
-0.00556427
1.33709
-0.00542587
1.33966
-0.00528727
1.34215
-0.00514507
1.34458
-0.00499618
1.34692
-0.00483538
1.34918
-0.00465215
1.35132
-0.00443736
-0.00417369
0.106039
-0.187134
0.147767
-0.170554
0.188495
-0.159171
0.228453
-0.14998
0.267299
-0.141829
0.304907
-0.134902
0.341468
-0.129017
0.37715
-0.123806
0.411889
-0.119131
0.445652
-0.114895
0.478438
-0.11099
0.510259
-0.107339
0.541135
-0.103887
0.571079
-0.100579
0.600102
-0.0973775
0.628215
-0.0942584
0.65543
-0.0912113
0.681765
-0.0882338
0.707235
-0.0853241
0.731858
-0.0824813
0.75565
-0.0797024
0.778627
-0.0769873
0.800812
-0.0743436
0.822226
-0.0717789
0.842896
-0.0692965
0.862844
-0.0668974
0.882094
-0.0645807
0.900671
-0.0623449
0.918595
-0.060187
0.935889
-0.0581039
0.952575
-0.0560927
0.968673
-0.0541469
0.984202
-0.0522616
0.99918
-0.0504339
1.01363
-0.0486634
1.02756
-0.0469518
1.04101
-0.0452965
1.05397
-0.0436948
1.06648
-0.0421452
1.07854
-0.040646
1.09018
-0.0391969
1.1014
-0.0377957
1.11222
-0.0364451
1.12265
-0.0351482
1.13271
-0.0339068
1.14242
-0.0327206
1.1518
-0.031585
1.16084
-0.0304945
1.16957
-0.0294433
1.178
-0.0284333
1.18614
-0.0274657
1.194
-0.0265374
1.2016
-0.025649
1.20895
-0.0248015
1.21606
-0.0239896
1.22294
-0.0232009
1.22959
-0.0224297
1.23601
-0.0216794
1.24222
-0.0209511
1.24822
-0.0202458
1.25402
-0.0195656
1.25962
-0.0189114
1.26504
-0.0182832
1.27027
-0.0176803
1.27534
-0.0171019
1.28025
-0.0165473
1.285
-0.016016
1.2896
-0.0155069
1.29405
-0.0150192
1.29837
-0.0145519
1.30256
-0.0141041
1.30662
-0.0136751
1.31057
-0.0132641
1.31439
-0.0128703
1.31811
-0.0124929
1.32172
-0.0121314
1.32523
-0.011785
1.32864
-0.0114529
1.33196
-0.0111343
1.33519
-0.0108283
1.33834
-0.0105344
1.3414
-0.0102523
1.34438
-0.00998162
1.34729
-0.00972203
1.35013
-0.00947301
1.3529
-0.00923408
1.3556
-0.00900449
1.35823
-0.00878366
1.36081
-0.00857059
1.36333
-0.00836458
1.36579
-0.00816419
1.36819
-0.00796839
1.37054
-0.00777433
1.37283
-0.00758007
1.37507
-0.00738074
1.37724
-0.00717202
1.37935
-0.0069464
1.38139
-0.00668847
1.38334
-0.00638862
-0.0060467
0.427821
-0.206615
0.448395
-0.191158
0.472304
-0.183104
0.498496
-0.176195
0.525739
-0.169093
0.553325
-0.162508
0.580938
-0.156647
0.608419
-0.1513
0.635598
-0.146321
0.662339
-0.141644
0.688551
-0.137207
0.71417
-0.132962
0.739152
-0.128873
0.763468
-0.124897
0.787101
-0.121012
0.81004
-0.1172
0.832283
-0.113456
0.853831
-0.109784
0.874689
-0.106185
0.894866
-0.102661
0.914371
-0.0992105
0.933217
-0.0958353
0.951421
-0.0925499
0.969006
-0.0893646
0.985989
-0.0862803
1.00239
-0.083296
1.01822
-0.0804098
1.0335
-0.0776206
1.04824
-0.0749239
1.06245
-0.0723176
1.07616
-0.0698012
1.08939
-0.0673652
1.10213
-0.0650061
1.11442
-0.0627205
1.12627
-0.0605087
1.1377
-0.0583744
1.14872
-0.0563118
1.15934
-0.0543171
1.16959
-0.052389
1.17947
-0.0505246
1.189
-0.0487239
1.19819
-0.0469814
1.20705
-0.0453014
1.2156
-0.0436885
1.22384
-0.0421439
1.23179
-0.0406674
1.23947
-0.0392521
1.24687
-0.0378916
1.25401
-0.0365747
1.26089
-0.03531
1.26753
-0.0341028
1.27394
-0.0329437
1.28013
-0.0318355
1.28611
-0.0307836
1.2919
-0.0297801
1.2975
-0.0287982
1.3029
-0.027832
1.30811
-0.0268942
1.31314
-0.0259851
1.318
-0.0251054
1.32269
-0.0242597
1.32722
-0.0234489
1.3316
-0.0226717
1.33584
-0.0219267
1.33995
-0.0212127
1.34393
-0.0205287
1.34778
-0.0198739
1.35152
-0.0192468
1.35514
-0.0186463
1.35866
-0.018071
1.36207
-0.01752
1.36538
-0.0169923
1.3686
-0.016487
1.37173
-0.016003
1.37478
-0.0155394
1.37774
-0.0150955
1.38062
-0.0146705
1.38343
-0.0142632
1.38616
-0.0138725
1.38883
-0.0134977
1.39143
-0.013138
1.39397
-0.012793
1.39645
-0.0124624
1.39887
-0.0121456
1.40124
-0.0118418
1.40356
-0.0115506
1.40582
-0.0112709
1.40804
-0.011002
1.41021
-0.0107426
1.41234
-0.010492
1.41442
-0.0102486
1.41646
-0.010011
1.41846
-0.00977563
1.42042
-0.00954015
1.42234
-0.00929862
1.42421
-0.00904589
1.42604
-0.00877262
1.42781
-0.00846037
1.42952
-0.00809791
-0.00769231
0.789022
-0.204933
0.792673
-0.194833
0.801154
-0.191604
0.813015
-0.188073
0.827193
-0.183287
0.842908
-0.178236
0.859633
-0.173383
0.877042
-0.168719
0.894877
-0.164164
0.912917
-0.159689
0.930992
-0.155287
0.948969
-0.150943
0.966742
-0.146649
0.984234
-0.142392
1.00139
-0.138169
1.01816
-0.133973
1.03451
-0.129813
1.05043
-0.125701
1.06588
-0.121646
1.08088
-0.117663
1.09543
-0.113757
1.10952
-0.109932
1.12318
-0.10621
1.13642
-0.102602
1.14924
-0.0990996
1.16165
-0.0956999
1.17364
-0.0924027
1.18523
-0.0892087
1.19642
-0.0861138
1.20722
-0.0831161
1.21764
-0.0802164
1.22769
-0.0774077
1.23737
-0.0746898
1.24671
-0.0720599
1.25572
-0.0695159
1.26441
-0.0670615
1.27279
-0.0646885
1.28087
-0.0623943
1.28867
-0.0601785
1.29618
-0.0580375
1.30343
-0.0559719
1.31043
-0.0539711
1.31717
-0.0520452
1.32368
-0.0501956
1.32997
-0.0484223
1.33603
-0.0467254
1.34188
-0.0450946
1.34752
-0.043529
1.35295
-0.0420028
1.35818
-0.0405366
1.36323
-0.0391455
1.36809
-0.0378033
1.37278
-0.0365161
1.3773
-0.0353024
1.38166
-0.0341496
1.38587
-0.0330067
1.38991
-0.0318758
1.3938
-0.0307893
1.39755
-0.0297391
1.40117
-0.0287259
1.40466
-0.0277578
1.40804
-0.0268335
1.41132
-0.0259492
1.41449
-0.0251026
1.41757
-0.0242922
1.42055
-0.0235171
1.42345
-0.0227756
1.42627
-0.0220662
1.429
-0.0213871
1.43167
-0.0207368
1.43426
-0.0201143
1.43678
-0.0195184
1.43924
-0.0189482
1.44164
-0.0184023
1.44398
-0.0178794
1.44626
-0.017379
1.44848
-0.0169003
1.45066
-0.0164419
1.45279
-0.0160027
1.45487
-0.0155818
1.45691
-0.0151784
1.45891
-0.014792
1.46087
-0.014422
1.46279
-0.0140678
1.46467
-0.0137285
1.46652
-0.0134033
1.46834
-0.0130912
1.47013
-0.0127914
1.47189
-0.0125024
1.47362
-0.0122234
1.47533
-0.011953
1.477
-0.0116896
1.47866
-0.0114288
1.48028
-0.0111683
1.48189
-0.0109015
1.48346
-0.010623
1.48501
-0.0103221
1.48653
-0.00997868
1.48801
-0.00957866
-0.00913216
1.13775
-0.194936
1.13379
-0.190886
1.13338
-0.191206
1.13525
-0.18996
1.13916
-0.187207
1.14481
-0.183891
1.15179
-0.180373
1.15978
-0.176717
1.16854
-0.172926
1.17785
-0.169013
1.18756
-0.165
1.19751
-0.160901
1.2076
-0.156738
1.21773
-0.152523
1.22783
-0.148274
1.23785
-0.144001
1.24776
-0.139728
1.25753
-0.135477
1.26715
-0.131265
1.2766
-0.127116
1.28588
-0.123036
1.29498
-0.119031
1.30389
-0.115121
1.3126
-0.111307
1.32108
-0.107581
1.32932
-0.103944
1.33733
-0.100403
1.34508
-0.0969624
1.35259
-0.0936186
1.35984
-0.0903706
1.36685
-0.0872232
1.37362
-0.0841746
1.38016
-0.0812231
1.38647
-0.0783676
1.39256
-0.0756021
1.39843
-0.0729329
1.4041
-0.0703556
1.40957
-0.0678649
1.41486
-0.0654596
1.41996
-0.0631391
1.4249
-0.0609045
1.42967
-0.0587424
1.4343
-0.0566711
1.43878
-0.0546728
1.44311
-0.0527548
1.44731
-0.0509144
1.45135
-0.0491367
1.45527
-0.0474422
1.45905
-0.0457781
1.46269
-0.0441739
1.46621
-0.0426607
1.46959
-0.0411821
1.47282
-0.0397485
1.47592
-0.0384014
1.47889
-0.0371203
1.48172
-0.0358428
1.48443
-0.0345872
1.48704
-0.0333948
1.48955
-0.0322518
1.49198
-0.031159
1.49434
-0.0301199
1.49663
-0.0291284
1.49886
-0.0281808
1.50103
-0.0272753
1.50314
-0.0264101
1.50521
-0.0255834
1.50722
-0.0247932
1.50919
-0.0240374
1.51111
-0.023314
1.513
-0.0226215
1.51484
-0.0219589
1.51664
-0.021325
1.51841
-0.0207185
1.52014
-0.0201381
1.52184
-0.0195824
1.52351
-0.019051
1.52515
-0.018543
1.52677
-0.0180572
1.52836
-0.0175926
1.52992
-0.017148
1.53146
-0.0167224
1.53299
-0.0163151
1.53449
-0.0159253
1.53597
-0.0155524
1.53744
-0.0151955
1.53889
-0.014854
1.54032
-0.0145264
1.54174
-0.0142123
1.54315
-0.0139101
1.54454
-0.0136186
1.54593
-0.0133372
1.5473
-0.013064
1.54866
-0.0127936
1.55002
-0.0125248
1.55137
-0.0122506
1.55271
-0.011966
1.55405
-0.0116595
1.55538
-0.0113109
1.5567
-0.0109011
-0.0104407
1.39827
-0.180449
1.39006
-0.182686
1.38522
-0.186374
1.38252
-0.187267
1.38174
-0.186429
1.38267
-0.184829
1.38499
-0.182697
1.38836
-0.180095
1.39254
-0.177106
1.39732
-0.173795
1.40253
-0.170217
1.40805
-0.166427
1.41378
-0.162473
1.41964
-0.158391
1.42559
-0.154224
1.43158
-0.149998
1.43759
-0.145737
1.44358
-0.141469
1.44952
-0.137211
1.45539
-0.132992
1.46118
-0.128826
1.46686
-0.124711
1.47241
-0.120661
1.47779
-0.116686
1.483
-0.112791
1.48804
-0.108983
1.49291
-0.105271
1.4976
-0.101657
1.50213
-0.0981414
1.50648
-0.0947255
1.51068
-0.0914132
1.51471
-0.0882047
1.51858
-0.0850971
1.52231
-0.0820909
1.52589
-0.0791815
1.52934
-0.0763767
1.53266
-0.0736734
1.53586
-0.0710677
1.53896
-0.0685602
1.54198
-0.0661516
1.54492
-0.0638406
1.54779
-0.0616087
1.55058
-0.0594653
1.5533
-0.0573853
1.55593
-0.0553856
1.55848
-0.0534594
1.56094
-0.0515952
1.56332
-0.0498262
1.56563
-0.0480879
1.56786
-0.0464067
1.57002
-0.0448143
1.57208
-0.043248
1.57405
-0.0417141
1.57589
-0.0402494
1.57763
-0.0388528
1.57927
-0.0374868
1.58085
-0.0361685
1.58239
-0.0349347
1.5839
-0.0337637
1.58538
-0.0326432
1.58684
-0.0315749
1.58826
-0.0305562
1.58967
-0.0295838
1.59104
-0.028655
1.5924
-0.0277677
1.59373
-0.0269201
1.59505
-0.0261103
1.59635
-0.0253364
1.59763
-0.0245967
1.59889
-0.0238893
1.60015
-0.023213
1.60139
-0.0225663
1.60261
-0.0219479
1.60383
-0.0213568
1.60504
-0.0207913
1.60624
-0.0202511
1.60743
-0.0197353
1.60861
-0.019243
1.60979
-0.0187727
1.61097
-0.0183234
1.61214
-0.0178937
1.6133
-0.0174829
1.61447
-0.0170903
1.61563
-0.0167156
1.61679
-0.0163577
1.61795
-0.0160162
1.61911
-0.0156894
1.62028
-0.015377
1.62144
-0.0150774
1.62261
-0.0147891
1.62379
-0.0145116
1.62497
-0.0142435
1.62615
-0.0139803
1.62735
-0.0137209
1.62856
-0.0134585
1.62978
-0.0131888
1.63102
-0.0128998
1.63228
-0.0125735
1.63357
-0.0121863
-0.0117437
1.54994
-0.161556
1.53696
-0.169715
1.52782
-0.177241
1.52139
-0.180841
1.51725
-0.182296
1.5151
-0.182685
1.51462
-0.182221
1.51551
-0.180988
1.51751
-0.179108
1.5204
-0.176696
1.52403
-0.173848
1.52824
-0.170644
1.53292
-0.167156
1.53796
-0.163443
1.54329
-0.159555
1.54881
-0.155529
1.55447
-0.151398
1.5602
-0.147203
1.56596
-0.14297
1.5717
-0.138732
1.57738
-0.134503
1.58295
-0.130284
1.58839
-0.126096
1.59367
-0.121964
1.59878
-0.117899
1.6037
-0.113903
1.60841
-0.109985
1.61291
-0.106157
1.6172
-0.102424
1.62126
-0.0987915
1.62511
-0.0952627
1.62875
-0.0918431
1.63219
-0.0885295
1.63542
-0.0853236
1.63847
-0.0822215
1.64132
-0.0792279
1.64399
-0.0763443
1.6465
-0.07357
1.64884
-0.0709015
1.65104
-0.0683409
1.65308
-0.0658859
1.65499
-0.0635089
1.65675
-0.0612319
1.6584
-0.0590306
1.65993
-0.0569191
1.66138
-0.0549016
1.66273
-0.0529517
1.66401
-0.051109
1.66524
-0.0493146
1.66639
-0.0475641
1.66749
-0.045909
1.66854
-0.0443019
1.66954
-0.0427207
1.67051
-0.0412191
1.67148
-0.0398191
1.67246
-0.0384676
1.67345
-0.0371587
1.67444
-0.0359221
1.67542
-0.0347433
1.67639
-0.0336132
1.67735
-0.032536
1.6783
-0.0315099
1.67925
-0.0305309
1.68019
-0.0295956
1.68112
-0.0287021
1.68205
-0.027849
1.68297
-0.027035
1.6839
-0.0262583
1.68481
-0.0255172
1.68573
-0.0248096
1.68665
-0.0241342
1.68758
-0.0234896
1.6885
-0.0228746
1.68943
-0.0222879
1.69036
-0.0217281
1.69131
-0.0211944
1.69226
-0.0206858
1.69321
-0.0202013
1.69418
-0.019739
1.69515
-0.0192981
1.69613
-0.018877
1.69713
-0.0184757
1.69813
-0.018094
1.69914
-0.0177317
1.70017
-0.0173874
1.70122
-0.0170605
1.70227
-0.0167493
1.70335
-0.0164537
1.70444
-0.0161717
1.70556
-0.0159021
1.70669
-0.0156443
1.70784
-0.0153977
1.70902
-0.0151578
1.71022
-0.0149244
1.71145
-0.0146913
1.71272
-0.0144551
1.71403
-0.014205
1.71538
-0.0139268
1.71679
-0.0135977
-0.0132138
1.61472
-0.14033
1.59865
-0.15365
1.58636
-0.164953
1.57726
-0.171737
1.57079
-0.175826
1.56645
-0.178349
1.56389
-0.179662
1.56282
-0.179929
1.56303
-0.179317
1.5643
-0.177978
1.56649
-0.176041
1.56945
-0.173611
1.57307
-0.170778
1.57723
-0.167615
1.58186
-0.164186
1.58687
-0.16054
1.5922
-0.156728
1.59778
-0.15279
1.60357
-0.148759
1.6095
-0.144668
1.61554
-0.140539
1.62164
-0.136386
1.62778
-0.132234
1.63392
-0.128105
1.64004
-0.124013
1.6461
-0.119964
1.65209
-0.115974
1.65799
-0.112053
1.66377
-0.108211
1.66944
-0.104457
1.67497
-0.100794
1.68036
-0.0972284
1.68559
-0.0937584
1.69065
-0.0903882
1.69555
-0.0871169
1.70027
-0.0839461
1.70481
-0.0808774
1.70915
-0.0779095
1.71329
-0.0750361
1.71721
-0.0722609
1.72091
-0.0695812
1.72438
-0.0669805
1.72763
-0.0644821
1.73067
-0.0620661
1.7335
-0.0597482
1.73613
-0.0575334
1.73857
-0.0553994
1.74084
-0.0533774
1.74294
-0.0514172
1.74489
-0.0495147
1.74669
-0.0477173
1.74838
-0.0459877
1.74997
-0.0443197
1.75151
-0.0427629
1.75301
-0.041315
1.75446
-0.0399198
1.75586
-0.03856
1.7572
-0.0372545
1.75846
-0.0360052
1.75966
-0.0348125
1.7608
-0.0336771
1.76189
-0.0325983
1.76293
-0.0315734
1.76394
-0.0305998
1.76491
-0.0296752
1.76586
-0.0287974
1.76679
-0.0279644
1.7677
-0.0271741
1.76861
-0.0264241
1.76951
-0.0257122
1.77041
-0.025037
1.77132
-0.0243967
1.77223
-0.0237893
1.77316
-0.0232135
1.7741
-0.0226671
1.77505
-0.0221492
1.77602
-0.0216582
1.77701
-0.0211931
1.77802
-0.0207521
1.77906
-0.0203337
1.78012
-0.0199357
1.7812
-0.0195578
1.78231
-0.0192006
1.78344
-0.0188643
1.78459
-0.0185461
1.78578
-0.018246
1.78699
-0.0179616
1.78823
-0.0176931
1.7895
-0.0174386
1.79079
-0.0171983
1.79212
-0.0169716
1.79348
-0.0167579
1.79487
-0.0165526
1.7963
-0.0163563
1.79778
-0.0161641
1.7993
-0.0159749
1.80087
-0.0157818
1.80252
-0.0155745
1.80426
-0.0153395
-0.0150694
1.61165
-0.117911
1.59337
-0.135374
1.57805
-0.149634
1.56622
-0.159907
1.55746
-0.167067
1.55117
-0.172063
1.54692
-0.175416
1.54439
-0.177409
1.54333
-0.178258
1.5435
-0.178158
1.54473
-0.177276
1.54686
-0.175749
1.54977
-0.173691
1.55334
-0.171195
1.55749
-0.168339
1.56213
-0.165188
1.5672
-0.161799
1.57263
-0.158219
1.57836
-0.15449
1.58434
-0.150651
1.59053
-0.146729
1.59689
-0.142749
1.6034
-0.138737
1.61001
-0.134716
1.6167
-0.130703
1.62345
-0.126713
1.63023
-0.122759
1.63704
-0.118856
1.64384
-0.115014
1.65062
-0.111243
1.65738
-0.107549
1.66409
-0.103938
1.67075
-0.100413
1.67734
-0.0969778
1.68386
-0.0936346
1.6903
-0.0903854
1.69665
-0.0872312
1.70292
-0.0841696
1.70908
-0.0811981
1.71514
-0.0783182
1.72109
-0.0755272
1.72693
-0.0728185
1.73265
-0.0701992
1.73825
-0.0676632
1.74372
-0.0652181
1.74905
-0.0628683
1.75425
-0.0606046
1.75931
-0.0584364
1.76424
-0.056343
1.76904
-0.0543204
1.77371
-0.0523873
1.77825
-0.050531
1.78268
-0.0487507
1.78698
-0.047063
1.79112
-0.0454644
1.79514
-0.0439301
1.79902
-0.042445
1.80278
-0.0410117
1.80641
-0.0396326
1.8099
-0.0383094
1.81327
-0.0370427
1.81651
-0.0358329
1.81961
-0.0346786
1.82259
-0.0335783
1.82545
-0.0325304
1.82818
-0.0315334
1.8308
-0.0305856
1.83331
-0.0296856
1.83572
-0.0288317
1.83803
-0.0280222
1.84025
-0.0272557
1.84238
-0.0265308
1.84444
-0.0258462
1.84642
-0.0252006
1.84835
-0.0245923
1.85022
-0.0240204
1.85204
-0.0234831
1.85383
-0.0229794
1.85558
-0.0225078
1.85731
-0.0220669
1.85903
-0.0216524
1.86073
-0.0212635
1.86243
-0.0209021
1.86414
-0.0205678
1.86585
-0.0202564
1.86757
-0.0199673
1.8693
-0.0196982
1.87106
-0.0194485
1.87283
-0.0192162
1.87464
-0.019002
1.87647
-0.0188044
1.87833
-0.0186232
1.88024
-0.0184543
1.88218
-0.0182984
1.88416
-0.0181522
1.88621
-0.0180178
1.88832
-0.0178935
1.89052
-0.0177773
1.89285
-0.017673
-0.0175902
1.99425
-0.0998524
-2.01231
1.97475
-0.115878
1.95598
-0.130869
1.93853
-0.142454
1.92261
-0.151152
1.90824
-0.157688
1.89533
-0.162508
1.88379
-0.165875
1.87353
-0.167999
1.86444
-0.169072
1.85642
-0.169259
1.84937
-0.168705
1.8432
-0.167527
1.83783
-0.165827
1.83318
-0.163689
1.82917
-0.161186
1.82575
-0.158381
1.82286
-0.155327
1.82044
-0.152073
1.81845
-0.148657
1.81684
-0.145117
1.81557
-0.141481
1.81461
-0.137777
1.81392
-0.13403
1.81348
-0.130262
1.81326
-0.12649
1.81323
-0.12273
1.81337
-0.118998
1.81367
-0.115306
1.81409
-0.111665
1.81462
-0.108083
1.81525
-0.104567
1.81596
-0.101123
1.81674
-0.0977557
1.81758
-0.0944691
1.81846
-0.0912649
1.81937
-0.0881449
1.82031
-0.0851087
1.82127
-0.0821561
1.82224
-0.0792878
1.82322
-0.0765027
1.8242
-0.0737979
1.82518
-0.0711757
1.82615
-0.0686354
1.82711
-0.0661804
1.82806
-0.0638133
1.82898
-0.0615308
1.82988
-0.0593343
1.83075
-0.057215
1.8316
-0.0551703
1.83242
-0.0532068
1.83321
-0.0513204
1.83396
-0.0495105
1.83468
-0.0477829
1.83535
-0.046134
1.83597
-0.04455
1.83655
-0.0430212
1.83708
-0.0415459
1.83758
-0.0401245
1.83803
-0.0387578
1.83843
-0.0374453
1.83878
-0.036187
1.83909
-0.0349817
1.83934
-0.0338279
1.83953
-0.0327244
1.83967
-0.0316691
1.83974
-0.0306609
1.83975
-0.0296982
1.8397
-0.0287793
1.83958
-0.027903
1.83939
-0.0270673
1.83913
-0.0262714
1.8388
-0.0255138
1.83839
-0.0247938
1.83791
-0.0241099
1.83735
-0.0234615
1.83671
-0.0228473
1.836
-0.0222662
1.83521
-0.0217159
1.83433
-0.0211958
1.83339
-0.0207067
1.83237
-0.0202494
1.83129
-0.0198185
1.83013
-0.0194134
1.82891
-0.0190346
1.82763
-0.0186829
1.82628
-0.0183564
1.82489
-0.0180546
1.82345
-0.0177749
1.82196
-0.0175194
1.82045
-0.0172867
1.8189
-0.0170767
1.81733
-0.0168862
1.81575
-0.0167169
1.81416
-0.0165668
1.81258
-0.0164399
1.81103
-0.0163391
1.80952
-0.0162723
1.80812
-0.0162716
-0.0164405
2.01323
-0.0819363
-2.03115
1.99581
-0.0984572
1.97877
-0.113832
1.96285
-0.126541
1.94824
-0.136537
1.93489
-0.14434
1.92274
-0.15036
1.91172
-0.154863
1.90177
-0.158056
1.89282
-0.160126
1.8848
-0.161239
1.87763
-0.161541
1.87126
-0.161153
1.8656
-0.160178
1.86062
-0.158706
1.85624
-0.156813
1.85243
-0.154566
1.84912
-0.152022
1.84628
-0.149231
1.84386
-0.146237
1.84182
-0.14308
1.84013
-0.139792
1.83875
-0.136403
1.83767
-0.132941
1.83683
-0.129428
1.83623
-0.125887
1.83583
-0.122334
1.83562
-0.118786
1.83557
-0.115257
1.83567
-0.11176
1.83589
-0.108305
1.83622
-0.104899
1.83665
-0.101551
1.83716
-0.0982659
1.83774
-0.0950483
1.83838
-0.0919026
1.83907
-0.0888318
1.8398
-0.0858362
1.84056
-0.0829169
1.84135
-0.0800751
1.84216
-0.0773107
1.84299
-0.0746233
1.84382
-0.0720141
1.84467
-0.0694836
1.84553
-0.0670342
1.84638
-0.0646673
1.84723
-0.0623814
1.84807
-0.0601763
1.84891
-0.0580478
1.84973
-0.0559942
1.85054
-0.0540176
1.85133
-0.0521166
1.85211
-0.0502908
1.85287
-0.0485415
1.8536
-0.0468655
1.85431
-0.0452546
1.85499
-0.043702
1.85565
-0.0422052
1.85629
-0.0407636
1.85691
-0.0393765
1.8575
-0.0380436
1.85808
-0.0367644
1.85864
-0.0355374
1.85917
-0.0343616
1.85968
-0.0332355
1.86017
-0.0321573
1.86063
-0.031126
1.86108
-0.0301396
1.86149
-0.0291966
1.86188
-0.0282959
1.86225
-0.0274354
1.86259
-0.0266144
1.86291
-0.0258314
1.8632
-0.0250852
1.86347
-0.0243744
1.8637
-0.0236983
1.86391
-0.0230554
1.86409
-0.0224444
1.86423
-0.0218634
1.86435
-0.0213123
1.86443
-0.0207912
1.86448
-0.0202992
1.8645
-0.0198331
1.86447
-0.0193924
1.86442
-0.0189767
1.86432
-0.0185859
1.86418
-0.0182191
1.864
-0.0178768
1.86378
-0.0175582
1.86353
-0.0172619
1.86322
-0.0169861
1.86288
-0.0167327
1.86249
-0.0165005
1.86207
-0.0162912
1.8616
-0.0161044
1.86111
-0.0159442
1.86059
-0.0158162
1.86004
-0.0157315
1.8595
-0.015729
-0.0159059
2.02442
-0.0645781
-2.04178
2.00813
-0.0821701
1.99236
-0.0980625
1.97744
-0.111616
1.96356
-0.122658
1.95074
-0.131529
1.93897
-0.138593
1.92821
-0.144108
1.91843
-0.148273
1.90957
-0.151267
1.90158
-0.15325
1.8944
-0.154364
1.88797
-0.154731
1.88225
-0.154455
1.87717
-0.153627
1.87268
-0.152327
1.86873
-0.150623
1.86529
-0.148577
1.8623
-0.146241
1.85972
-0.143662
1.85752
-0.140883
1.85567
-0.137939
1.85413
-0.134862
1.85287
-0.131683
1.85187
-0.128426
1.8511
-0.125115
1.85053
-0.121769
1.85016
-0.118406
1.84994
-0.115043
1.84987
-0.111693
1.84994
-0.108367
1.85011
-0.105075
1.85039
-0.101826
1.85075
-0.0986275
1.85119
-0.0954848
1.85169
-0.0924029
1.85224
-0.0893853
1.85284
-0.0864349
1.85348
-0.0835539
1.85415
-0.0807435
1.85485
-0.078005
1.85556
-0.0753391
1.8563
-0.072747
1.85704
-0.0702301
1.8578
-0.0677898
1.85856
-0.0654275
1.85932
-0.0631427
1.86008
-0.0609348
1.86083
-0.0588018
1.86158
-0.0567427
1.86232
-0.0547579
1.86305
-0.0528467
1.86377
-0.0510087
1.86447
-0.0492435
1.86515
-0.047548
1.86581
-0.0459174
1.86646
-0.0443464
1.86709
-0.0428328
1.8677
-0.0413752
1.86829
-0.0399726
1.86887
-0.0386243
1.86944
-0.0373292
1.86999
-0.0360866
1.87052
-0.0348948
1.87104
-0.0337524
1.87154
-0.0326584
1.87202
-0.0316107
1.87249
-0.0306083
1.87294
-0.0296498
1.87338
-0.0287335
1.8738
-0.0278586
1.87421
-0.0270233
1.87461
-0.0262261
1.87499
-0.0254659
1.87535
-0.0247415
1.87571
-0.0240518
1.87605
-0.0233956
1.87637
-0.0227714
1.87669
-0.0221782
1.87699
-0.0216152
1.87728
-0.021082
1.87756
-0.0205775
1.87782
-0.0201
1.87808
-0.0196485
1.87832
-0.0192226
1.87856
-0.0188217
1.87879
-0.0184453
1.879
-0.0180934
1.87921
-0.0177651
1.87941
-0.0174597
1.8796
-0.0171763
1.87978
-0.0169155
1.87995
-0.0166773
1.88013
-0.0164626
1.88029
-0.0162729
1.88046
-0.0161116
1.88063
-0.0159841
1.8808
-0.0158998
1.88095
-0.0158807
-0.0159534
2.02949
-0.0481158
-2.04596
2.01413
-0.0668097
1.99942
-0.0833537
1.98544
-0.0976367
1.97236
-0.109577
1.96023
-0.119401
1.94904
-0.12741
1.93877
-0.133844
1.9294
-0.138898
1.92087
-0.142739
1.91314
-0.145524
1.90616
-0.14739
1.89989
-0.148459
1.89426
-0.148836
1.88925
-0.148613
1.88479
-0.147872
1.88085
-0.146683
1.87738
-0.145111
1.87435
-0.14321
1.87172
-0.14103
1.86945
-0.138615
1.86752
-0.136003
1.86588
-0.13323
1.86453
-0.130326
1.86342
-0.127319
1.86254
-0.124233
1.86186
-0.12109
1.86136
-0.117911
1.86103
-0.114711
1.86085
-0.111506
1.86079
-0.10831
1.86085
-0.105132
1.86101
-0.101984
1.86125
-0.0988732
1.86158
-0.0958068
1.86196
-0.0927907
1.86241
-0.0898296
1.8629
-0.0869272
1.86344
-0.0840868
1.86401
-0.0813107
1.8646
-0.0786008
1.86522
-0.0759587
1.86586
-0.0733862
1.86652
-0.0708847
1.86718
-0.0684559
1.86786
-0.0661009
1.86854
-0.0638199
1.86921
-0.0616125
1.86989
-0.0594779
1.87056
-0.0574154
1.87123
-0.055425
1.87189
-0.0535061
1.87254
-0.0516583
1.87317
-0.0498804
1.8738
-0.04817
1.8744
-0.0465236
1.87499
-0.0449375
1.87557
-0.0434094
1.87613
-0.0419381
1.87668
-0.0405221
1.87722
-0.0391601
1.87774
-0.0378515
1.87825
-0.0365954
1.87874
-0.0353897
1.87922
-0.0342336
1.87969
-0.0331257
1.88014
-0.0320646
1.88058
-0.0310488
1.88101
-0.0300772
1.88142
-0.0291482