/*--------------------------------*- C++ -*----------------------------------*\
  =========                 |
  \\      /  F ield         | OpenFOAM: The Open Source CFD Toolbox
   \\    /   O peration     | Website:  https://openfoam.org
    \\  /    A nd           | Version:  8
     \\/     M anipulation  |
\*---------------------------------------------------------------------------*/
FoamFile
{
    version     2.0;
    format      ascii;
    class       volScalarField;
    location    "2.999969291";
    object      rho;
}
// * * * * * * * * * * * * * * * * * * * * * * * * * * * * * * * * * * * * * //

dimensions      [1 -3 0 0 0 0 0];

internalField   nonuniform List<scalar> 
6800
(
0.590164
0.590261
0.59033
0.59043
0.590608
0.590803
0.590954
0.591071
0.591156
0.591202
0.59004
0.590203
0.590274
0.590483
0.590723
0.59088
0.590997
0.591091
0.591166
0.591241
0.5896
0.590034
0.590233
0.590528
0.590725
0.59087
0.59099
0.591086
0.591172
0.591238
0.589046
0.589856
0.590184
0.590454
0.590673
0.590832
0.590952
0.591046
0.591132
0.591207
0.588479
0.589663
0.589981
0.59034
0.59058
0.59074
0.590868
0.590979
0.591082
0.591173
0.587881
0.589401
0.589788
0.590193
0.590445
0.590632
0.590782
0.590914
0.59103
0.591132
0.587335
0.58916
0.589535
0.590016
0.590302
0.590517
0.590689
0.590842
0.590977
0.591095
0.586847
0.588898
0.589321
0.589862
0.590172
0.590415
0.590616
0.590792
0.590942
0.591072
0.586476
0.588701
0.589122
0.589731
0.590055
0.590336
0.590562
0.590757
0.59092
0.591062
0.586217
0.58853
0.589005
0.589638
0.589989
0.590296
0.590539
0.590748
0.59092
0.59107
0.59044
0.590342
0.590288
0.590282
0.590296
0.590325
0.590368
0.590423
0.590489
0.590562
0.590402
0.59032
0.59027
0.590262
0.590273
0.590299
0.590341
0.590398
0.59047
0.590553
0.590333
0.590273
0.590235
0.590227
0.590236
0.590261
0.590307
0.590371
0.590457
0.590553
0.590248
0.590217
0.590197
0.590196
0.590208
0.590237
0.590292
0.590376
0.590478
0.590591
0.590169
0.590176
0.590175
0.590186
0.590212
0.590261
0.590337
0.590426
0.590537
0.590654
0.590121
0.590151
0.590181
0.590219
0.590274
0.590345
0.590422
0.590507
0.590618
0.590727
0.590079
0.590157
0.590228
0.590307
0.590382
0.590447
0.590517
0.590598
0.590702
0.590816
0.590057
0.590193
0.590305
0.590421
0.590474
0.590528
0.590595
0.590696
0.590797
0.590949
0.590029
0.590206
0.590402
0.590464
0.590506
0.590572
0.590683
0.590812
0.590948
0.591112
0.590051
0.590231
0.590391
0.590447
0.590523
0.590658
0.590822
0.590968
0.591108
0.591219
0.590654
0.590756
0.590843
0.59092
0.590989
0.591053
0.591112
0.591167
0.591216
0.591262
0.591304
0.591342
0.591377
0.591409
0.591437
0.591463
0.591487
0.591508
0.591527
0.591544
0.591559
0.591573
0.591586
0.591597
0.591608
0.591618
0.591628
0.591638
0.591647
0.591655
0.591664
0.591671
0.591679
0.591686
0.591692
0.591697
0.591702
0.591707
0.591711
0.591714
0.591716
0.591718
0.59172
0.591721
0.591721
0.591721
0.591721
0.591719
0.591718
0.591716
0.591713
0.591711
0.591708
0.591705
0.591703
0.5917
0.591698
0.591696
0.591694
0.591693
0.591692
0.591691
0.591691
0.591691
0.591691
0.591692
0.591693
0.591694
0.591695
0.591697
0.591698
0.5917
0.591702
0.591703
0.591705
0.591707
0.591709
0.591712
0.591714
0.591716
0.591718
0.591721
0.591723
0.591726
0.591729
0.591732
0.591735
0.591738
0.591741
0.591744
0.591748
0.591751
0.591755
0.591758
0.591762
0.591765
0.591769
0.591772
0.591777
0.59178
0.590642
0.590747
0.590834
0.590911
0.590981
0.591045
0.591104
0.591159
0.591209
0.591255
0.591297
0.591336
0.591371
0.591403
0.591432
0.591458
0.591482
0.591503
0.591522
0.591539
0.591555
0.591569
0.591582
0.591594
0.591605
0.591616
0.591626
0.591636
0.591645
0.591654
0.591662
0.59167
0.591677
0.591684
0.59169
0.591695
0.5917
0.591704
0.591708
0.591711
0.591714
0.591716
0.591717
0.591718
0.591718
0.591718
0.591718
0.591717
0.591715
0.591713
0.591711
0.591708
0.591705
0.591703
0.5917
0.591698
0.591695
0.591694
0.591692
0.591691
0.59169
0.59169
0.59169
0.59169
0.59169
0.591691
0.591692
0.591693
0.591695
0.591696
0.591698
0.591699
0.591701
0.591703
0.591705
0.591707
0.591709
0.591711
0.591714
0.591716
0.591718
0.591721
0.591723
0.591726
0.591729
0.591732
0.591735
0.591738
0.591741
0.591744
0.591748
0.591751
0.591755
0.591758
0.591762
0.591765
0.591769
0.591772
0.591777
0.591779
0.59064
0.590743
0.590828
0.590904
0.590973
0.591036
0.591096
0.59115
0.5912
0.591246
0.591288
0.591327
0.591363
0.591395
0.591425
0.591452
0.591476
0.591497
0.591517
0.591534
0.591551
0.591565
0.591579
0.591591
0.591603
0.591614
0.591625
0.591634
0.591644
0.591653
0.591661
0.591668
0.591676
0.591682
0.591688
0.591693
0.591697
0.591701
0.591704
0.591707
0.59171
0.591712
0.591713
0.591714
0.591715
0.591715
0.591715
0.591713
0.591712
0.59171
0.591708
0.591705
0.591703
0.5917
0.591698
0.591695
0.591693
0.591692
0.591691
0.59169
0.591689
0.591689
0.591689
0.59169
0.59169
0.591691
0.591692
0.591694
0.591695
0.591697
0.591698
0.5917
0.591702
0.591704
0.591706
0.591708
0.59171
0.591712
0.591714
0.591717
0.591719
0.591722
0.591724
0.591727
0.59173
0.591733
0.591736
0.591739
0.591742
0.591745
0.591748
0.591752
0.591755
0.591758
0.591762
0.591765
0.591769
0.591772
0.591776
0.591778
0.590652
0.590743
0.590827
0.590902
0.590969
0.591032
0.591091
0.591145
0.591195
0.591241
0.591284
0.591323
0.591359
0.591391
0.591421
0.591448
0.591473
0.591495
0.591516
0.591534
0.591551
0.591567
0.591581
0.591594
0.591606
0.591618
0.591629
0.591638
0.591648
0.591656
0.591664
0.591671
0.591678
0.591684
0.591689
0.591694
0.591698
0.591701
0.591705
0.591707
0.59171
0.591712
0.591713
0.591714
0.591715
0.591715
0.591715
0.591714
0.591713
0.591711
0.591709
0.591706
0.591704
0.591702
0.5917
0.591698
0.591696
0.591695
0.591694
0.591693
0.591693
0.591693
0.591693
0.591694
0.591694
0.591695
0.591696
0.591698
0.591699
0.591701
0.591702
0.591704
0.591706
0.591707
0.591709
0.591711
0.591713
0.591715
0.591718
0.59172
0.591722
0.591725
0.591727
0.59173
0.591733
0.591735
0.591738
0.591741
0.591744
0.591747
0.59175
0.591754
0.591757
0.59176
0.591763
0.591766
0.591769
0.591772
0.591776
0.591778
0.590676
0.590754
0.590841
0.590918
0.590985
0.591048
0.591106
0.591161
0.591211
0.591256
0.591297
0.591336
0.591372
0.591405
0.591435
0.591462
0.591487
0.59151
0.591531
0.591551
0.591568
0.591585
0.5916
0.591614
0.591626
0.591638
0.591648
0.591658
0.591667
0.591675
0.591682
0.591688
0.591694
0.591699
0.591704
0.591707
0.591711
0.591714
0.591716
0.591718
0.59172
0.591722
0.591723
0.591724
0.591725
0.591725
0.591724
0.591723
0.591722
0.59172
0.591718
0.591716
0.591714
0.591712
0.59171
0.591708
0.591707
0.591706
0.591705
0.591705
0.591704
0.591704
0.591705
0.591705
0.591706
0.591706
0.591707
0.591708
0.59171
0.591711
0.591712
0.591714
0.591715
0.591717
0.591719
0.59172
0.591722
0.591724
0.591726
0.591728
0.59173
0.591732
0.591735
0.591737
0.59174
0.591742
0.591745
0.591748
0.591751
0.591753
0.591756
0.591759
0.591762
0.591764
0.591767
0.59177
0.591773
0.591775
0.591778
0.59178
0.590719
0.590795
0.590891
0.590974
0.591043
0.591106
0.591165
0.591219
0.591269
0.591314
0.591356
0.591394
0.591429
0.591461
0.59149
0.591517
0.591542
0.591565
0.591586
0.591605
0.591623
0.591639
0.591654
0.591667
0.591679
0.59169
0.591699
0.591707
0.591715
0.591721
0.591727
0.591731
0.591736
0.591739
0.591742
0.591745
0.591747
0.591749
0.59175
0.591751
0.591752
0.591752
0.591753
0.591753
0.591753
0.591752
0.591752
0.591751
0.591749
0.591748
0.591746
0.591744
0.591742
0.59174
0.591737
0.591735
0.591733
0.591732
0.591731
0.59173
0.591729
0.591729
0.591728
0.591728
0.591729
0.591729
0.591729
0.59173
0.591731
0.591731
0.591732
0.591733
0.591734
0.591735
0.591736
0.591738
0.591739
0.59174
0.591742
0.591744
0.591745
0.591747
0.591749
0.591751
0.591754
0.591756
0.591758
0.59176
0.591763
0.591765
0.591767
0.59177
0.591772
0.591774
0.591776
0.591779
0.591781
0.591783
0.591785
0.591787
0.590793
0.590876
0.590986
0.591079
0.591155
0.591222
0.591285
0.591343
0.591396
0.591442
0.591485
0.591524
0.591561
0.591593
0.591621
0.591646
0.591669
0.591691
0.59171
0.591728
0.591745
0.591759
0.591772
0.591783
0.591792
0.591799
0.591806
0.591811
0.591815
0.591817
0.59182
0.591821
0.591822
0.591823
0.591823
0.591823
0.591822
0.591822
0.591821
0.591819
0.591818
0.591817
0.591815
0.591813
0.591811
0.591809
0.591807
0.591805
0.591803
0.591801
0.591799
0.591796
0.591794
0.591792
0.591788
0.591785
0.591781
0.591779
0.591777
0.591775
0.591774
0.591773
0.591771
0.59177
0.59177
0.591769
0.591768
0.591768
0.591768
0.591768
0.591768
0.591768
0.591768
0.591768
0.591768
0.591768
0.591769
0.59177
0.59177
0.591771
0.591772
0.591774
0.591775
0.591776
0.591778
0.591779
0.591781
0.591783
0.591784
0.591786
0.591788
0.591789
0.591791
0.591793
0.591794
0.591796
0.591797
0.591798
0.5918
0.591801
0.590923
0.590998
0.591111
0.591209
0.591291
0.591363
0.59143
0.591491
0.591547
0.591597
0.591642
0.591684
0.591722
0.591754
0.591784
0.591811
0.591836
0.591858
0.591878
0.591896
0.591912
0.591926
0.591938
0.591947
0.591955
0.591961
0.591966
0.591968
0.59197
0.59197
0.59197
0.591969
0.591967
0.591964
0.591961
0.591958
0.591954
0.59195
0.591946
0.591941
0.591936
0.591931
0.591925
0.591919
0.591914
0.591909
0.591904
0.591899
0.591894
0.59189
0.591885
0.591881
0.591876
0.591872
0.591867
0.591863
0.591859
0.591857
0.591854
0.591851
0.591848
0.591845
0.591842
0.591839
0.591837
0.591834
0.591832
0.59183
0.591828
0.591826
0.591824
0.591823
0.591822
0.59182
0.591819
0.591818
0.591817
0.591817
0.591816
0.591816
0.591815
0.591815
0.591816
0.591816
0.591816
0.591817
0.591818
0.591818
0.591819
0.59182
0.591821
0.591821
0.591822
0.591823
0.591823
0.591824
0.591824
0.591825
0.591825
0.591825
0.591089
0.591152
0.591254
0.591349
0.591431
0.591503
0.591567
0.591626
0.591679
0.591727
0.591771
0.59181
0.591846
0.591879
0.591909
0.591936
0.59196
0.591982
0.592003
0.592021
0.592038
0.592052
0.592065
0.592075
0.592085
0.592092
0.592098
0.592103
0.592107
0.59211
0.592111
0.592112
0.592112
0.592111
0.592109
0.592107
0.592105
0.592101
0.592098
0.592093
0.592089
0.592084
0.592077
0.592071
0.592064
0.592057
0.59205
0.592044
0.592037
0.59203
0.592023
0.592016
0.592007
0.592002
0.591993
0.591987
0.591984
0.591982
0.591977
0.591972
0.591966
0.59196
0.591954
0.591948
0.591943
0.591938
0.591933
0.591928
0.591923
0.591919
0.591915
0.59191
0.591907
0.591903
0.591899
0.591896
0.591893
0.59189
0.591887
0.591885
0.591882
0.59188
0.591878
0.591876
0.591875
0.591874
0.591874
0.591874
0.591873
0.591873
0.591872
0.591872
0.591871
0.59187
0.59187
0.591869
0.591869
0.591868
0.591867
0.591866
0.59122
0.591267
0.59135
0.591433
0.591509
0.591576
0.591637
0.591694
0.591745
0.591792
0.591834
0.591873
0.591908
0.591941
0.59197
0.591997
0.592021
0.592043
0.592063
0.592081
0.592097
0.592111
0.592123
0.592134
0.592143
0.592151
0.592158
0.592164
0.592168
0.592172
0.592176
0.592179
0.592181
0.592183
0.592183
0.592182
0.592182
0.592182
0.592181
0.59218
0.592179
0.592177
0.592175
0.592172
0.592169
0.592165
0.592162
0.592158
0.592155
0.59215
0.592147
0.592143
0.592138
0.592134
0.592129
0.592124
0.592121
0.592118
0.592114
0.592109
0.592104
0.592098
0.592093
0.592087
0.592081
0.592075
0.59207
0.592064
0.592058
0.592051
0.592045
0.59204
0.592034
0.592028
0.592022
0.592016
0.59201
0.592005
0.591999
0.591994
0.591989
0.591984
0.59198
0.591976
0.591973
0.59197
0.591966
0.591963
0.59196
0.591957
0.591954
0.591952
0.591949
0.591946
0.591944
0.591941
0.591939
0.591936
0.591934
0.59193
0.591315
0.591377
0.591447
0.591519
0.591587
0.59165
0.591707
0.591759
0.591807
0.591851
0.591891
0.591927
0.591961
0.591991
0.592019
0.592044
0.592067
0.592087
0.592106
0.592122
0.592137
0.59215
0.592161
0.592171
0.592179
0.592186
0.592193
0.592198
0.592203
0.592206
0.59221
0.592213
0.592214
0.592215
0.592216
0.592216
0.592217
0.592217
0.592216
0.592216
0.592215
0.592214
0.592212
0.592211
0.592209
0.592207
0.592205
0.592203
0.592202
0.592199
0.592197
0.592195
0.592193
0.592191
0.592188
0.592186
0.592183
0.592181
0.592178
0.592176
0.592173
0.592171
0.592168
0.592166
0.592163
0.59216
0.592157
0.592154
0.592151
0.592148
0.592144
0.592141
0.592138
0.592134
0.59213
0.592126
0.592122
0.592118
0.592115
0.592109
0.592102
0.592098
0.592097
0.592095
0.592091
0.592087
0.592083
0.592078
0.592074
0.59207
0.592065
0.59206
0.592056
0.592051
0.592047
0.592042
0.592038
0.592032
0.592029
0.592022
0.591384
0.591451
0.591521
0.591589
0.591652
0.59171
0.591764
0.591812
0.591857
0.591897
0.591934
0.591968
0.591999
0.592027
0.592052
0.592075
0.592096
0.592115
0.592132
0.592147
0.59216
0.592172
0.592182
0.592191
0.592199
0.592206
0.592211
0.592216
0.59222
0.592223
0.592226
0.592228
0.59223
0.592231
0.592232
0.592232
0.592232
0.592232
0.592231
0.59223
0.59223
0.592228
0.592227
0.592226
0.592224
0.592223
0.592221
0.592219
0.592218
0.592216
0.592215
0.592213
0.592211
0.592209
0.592207
0.592205
0.592204
0.592202
0.5922
0.592199
0.592197
0.592195
0.592194
0.592192
0.592191
0.592189
0.592187
0.592186
0.592184
0.592182
0.59218
0.592179
0.592177
0.592176
0.592174
0.592172
0.592171
0.592169
0.592167
0.592165
0.592163
0.592161
0.59216
0.592158
0.592156
0.592154
0.592152
0.592149
0.592147
0.592146
0.592145
0.592143
0.59214
0.592138
0.592135
0.592132
0.592129
0.592126
0.592123
0.592118
0.59144
0.591501
0.591567
0.59163
0.591687
0.591741
0.591791
0.591837
0.591879
0.591917
0.591953
0.591985
0.592014
0.592041
0.592065
0.592087
0.592107
0.592125
0.592141
0.592155
0.592168
0.592179
0.592189
0.592198
0.592205
0.592212
0.592217
0.592222
0.592226
0.592229
0.592232
0.592234
0.592236
0.592238
0.592239
0.592239
0.59224
0.592239
0.592239
0.592238
0.592237
0.592236
0.592235
0.592234
0.592233
0.592232
0.59223
0.592229
0.592227
0.592225
0.592224
0.592222
0.59222
0.592219
0.592217
0.592215
0.592214
0.592212
0.592211
0.592209
0.592207
0.592206
0.592204
0.592203
0.592202
0.5922
0.592199
0.592197
0.592196
0.592194
0.592193
0.592192
0.592191
0.59219
0.592189
0.592188
0.592187
0.592186
0.592185
0.592184
0.592183
0.592182
0.592181
0.592181
0.59218
0.592179
0.592178
0.592177
0.592176
0.592175
0.592174
0.592173
0.592172
0.592171
0.592169
0.592168
0.592167
0.592166
0.592164
0.592163
0.591492
0.591548
0.591611
0.59167
0.591724
0.591774
0.59182
0.591863
0.591902
0.591939
0.591972
0.592002
0.59203
0.592055
0.592078
0.592098
0.592117
0.592134
0.59215
0.592163
0.592175
0.592186
0.592196
0.592204
0.592211
0.592217
0.592223
0.592227
0.592231
0.592234
0.592237
0.592239
0.592241
0.592242
0.592243
0.592243
0.592244
0.592243
0.592243
0.592243
0.592242
0.592241
0.59224
0.592239
0.592238
0.592236
0.592235
0.592233
0.592232
0.59223
0.592229
0.592227
0.592225
0.592223
0.592222
0.59222
0.592219
0.592217
0.592216
0.592214
0.592213
0.592211
0.59221
0.592208
0.592207
0.592206
0.592205
0.592204
0.592202
0.592201
0.5922
0.592199
0.592198
0.592198
0.592197
0.592196
0.592195
0.592194
0.592194
0.592193
0.592192
0.592191
0.59219
0.59219
0.592189
0.592188
0.592187
0.592187
0.592186
0.592185
0.592185
0.592184
0.592183
0.592182
0.592182
0.592181
0.59218
0.592179
0.592178
0.592178
0.591544
0.591594
0.591653
0.591707
0.591756
0.591802
0.591845
0.591885
0.591922
0.591956
0.591987
0.592016
0.592042
0.592066
0.592087
0.592107
0.592125
0.592141
0.592155
0.592168
0.592179
0.59219
0.592199
0.592206
0.592213
0.592219
0.592225
0.592229
0.592233
0.592236
0.592239
0.592241
0.592242
0.592244
0.592245
0.592245
0.592246
0.592245
0.592245
0.592245
0.592244
0.592244
0.592243
0.592242
0.592241
0.59224
0.592238
0.592237
0.592236
0.592234
0.592233
0.592231
0.59223
0.592228
0.592227
0.592226
0.592224
0.592223
0.592221
0.59222
0.592218
0.592217
0.592215
0.592213
0.592212
0.592211
0.59221
0.592208
0.592207
0.592207
0.592206
0.592205
0.592204
0.592203
0.592202
0.592201
0.5922
0.5922
0.592199
0.592198
0.592197
0.592197
0.592196
0.592195
0.592195
0.592194
0.592193
0.592193
0.592192
0.592192
0.592191
0.59219
0.59219
0.592189
0.592188
0.592188
0.592187
0.592186
0.592185
0.592185
0.591594
0.591639
0.591693
0.591743
0.591788
0.59183
0.59187
0.591907
0.591941
0.591973
0.592002
0.592028
0.592053
0.592075
0.592096
0.592114
0.592131
0.592146
0.59216
0.592172
0.592183
0.592192
0.592201
0.592209
0.592215
0.592221
0.592226
0.59223
0.592234
0.592237
0.592239
0.592241
0.592243
0.592244
0.592245
0.592246
0.592246
0.592246
0.592246
0.592246
0.592245
0.592244
0.592244
0.592243
0.592242
0.592241
0.592239
0.592238
0.592237
0.592235
0.592234
0.592233
0.592231
0.59223
0.592228
0.592227
0.592226
0.592224
0.592223
0.592222
0.59222
0.592219
0.592218
0.592217
0.592215
0.592214
0.592213
0.592212
0.592212
0.592211
0.59221
0.592209
0.592208
0.592208
0.592207
0.592206
0.592205
0.592205
0.592204
0.592204
0.592203
0.592202
0.592202
0.592201
0.592201
0.5922
0.5922
0.592199
0.592198
0.592198
0.592197
0.592197
0.592196
0.592196
0.592195
0.592194
0.592194
0.592193
0.592192
0.592192
0.591643
0.591683
0.591732
0.591778
0.591819
0.591857
0.591893
0.591927
0.591959
0.591989
0.592016
0.592041
0.592064
0.592085
0.592104
0.592121
0.592137
0.592151
0.592164
0.592175
0.592185
0.592195
0.592203
0.59221
0.592216
0.592221
0.592226
0.59223
0.592233
0.592236
0.592239
0.592241
0.592242
0.592244
0.592245
0.592245
0.592246
0.592246
0.592246
0.592245
0.592245
0.592245
0.592244
0.592243
0.592242
0.592241
0.59224
0.592239
0.592238
0.592237
0.592235
0.592234
0.592233
0.592231
0.59223
0.592229
0.592227
0.592226
0.592225
0.592224
0.592222
0.592221
0.59222
0.592219
0.592218
0.592217
0.592216
0.592215
0.592214
0.592214
0.592213
0.592212
0.592211
0.59221
0.59221
0.592209
0.592208
0.592208
0.592207
0.592206
0.592206
0.592205
0.592205
0.592204
0.592204
0.592203
0.592203
0.592202
0.592202
0.592201
0.592201
0.5922
0.5922
0.592199
0.592198
0.592198
0.592197
0.592196
0.592196
0.592195
0.591692
0.591726
0.59177
0.591812
0.591849
0.591884
0.591917
0.591948
0.591977
0.592004
0.592029
0.592053
0.592074
0.592093
0.592111
0.592127
0.592142
0.592155
0.592167
0.592178
0.592188
0.592196
0.592204
0.59221
0.592216
0.592221
0.592226
0.59223
0.592233
0.592236
0.592238
0.59224
0.592241
0.592243
0.592244
0.592244
0.592245
0.592245
0.592245
0.592245
0.592244
0.592244
0.592243
0.592243
0.592242
0.592241
0.59224
0.592239
0.592238
0.592237
0.592235
0.592234
0.592233
0.592232
0.59223
0.592229
0.592228
0.592227
0.592226
0.592225
0.592223
0.592222
0.592221
0.59222
0.592219
0.592219
0.592218
0.592217
0.592216
0.592215
0.592214
0.592214
0.592213
0.592212
0.592211
0.592211
0.59221
0.592209
0.592209
0.592208
0.592208
0.592207
0.592207
0.592206
0.592206
0.592205
0.592205
0.592204
0.592204
0.592203
0.592203
0.592202
0.592202
0.592201
0.592201
0.5922
0.592199
0.592199
0.592198
0.592198
0.591739
0.591769
0.591809
0.591846
0.591879
0.591911
0.591941
0.591969
0.591996
0.59202
0.592043
0.592065
0.592084
0.592102
0.592119
0.592133
0.592147
0.592159
0.592171
0.592181
0.592189
0.592197
0.592204
0.592211
0.592216
0.592221
0.592225
0.592229
0.592232
0.592234
0.592236
0.592238
0.59224
0.592241
0.592242
0.592242
0.592243
0.592243
0.592243
0.592243
0.592243
0.592242
0.592242
0.592241
0.592241
0.59224
0.592239
0.592238
0.592237
0.592236
0.592235
0.592234
0.592233
0.592232
0.592231
0.59223
0.592229
0.592228
0.592226
0.592225
0.592224
0.592224
0.592223
0.592222
0.592221
0.59222
0.592219
0.592218
0.592218
0.592217
0.592216
0.592215
0.592215
0.592214
0.592213
0.592213
0.592212
0.592211
0.592211
0.59221
0.59221
0.592209
0.592209
0.592208
0.592208
0.592207
0.592207
0.592206
0.592206
0.592205
0.592205
0.592204
0.592203
0.592203
0.592202
0.592202
0.592201
0.592201
0.5922
0.5922
0.591786
0.591812
0.591846
0.591879
0.591909
0.591937
0.591964
0.59199
0.592014
0.592036
0.592057
0.592076
0.592094
0.592111
0.592126
0.592139
0.592152
0.592163
0.592173
0.592183
0.592191
0.592198
0.592205
0.592211
0.592216
0.59222
0.592224
0.592227
0.59223
0.592232
0.592234
0.592236
0.592238
0.592239
0.59224
0.59224
0.592241
0.592241
0.592241
0.592241
0.592241
0.59224
0.59224
0.592239
0.592239
0.592238
0.592237
0.592237
0.592236
0.592235
0.592234
0.592233
0.592232
0.592231
0.59223
0.592229
0.592228
0.592227
0.592226
0.592225
0.592224
0.592223
0.592222
0.592222
0.592221
0.59222
0.592219
0.592219
0.592218
0.592217
0.592216
0.592216
0.592215
0.592214
0.592214
0.592213
0.592213
0.592212
0.592211
0.592211
0.59221
0.59221
0.592209
0.592209
0.592208
0.592208
0.592207
0.592207
0.592207
0.592206
0.592206
0.592205
0.592205
0.592204
0.592204
0.592203
0.592203
0.592202
0.592202
0.592201
0.591831
0.591853
0.591883
0.591912
0.591939
0.591964
0.591987
0.59201
0.592032
0.592052
0.592071
0.592088
0.592105
0.592119
0.592133
0.592145
0.592157
0.592167
0.592176
0.592185
0.592192
0.592199
0.592205
0.59221
0.592215
0.592219
0.592222
0.592225
0.592228
0.59223
0.592232
0.592234
0.592235
0.592236
0.592237
0.592237
0.592238
0.592238
0.592238
0.592238
0.592238
0.592238
0.592237
0.592237
0.592237
0.592236
0.592236
0.592235
0.592234
0.592233
0.592233
0.592232
0.592231
0.59223
0.592229
0.592228
0.592227
0.592227
0.592226
0.592225
0.592224
0.592223
0.592222
0.592222
0.592221
0.59222
0.59222
0.592219
0.592218
0.592217
0.592217
0.592216
0.592216
0.592215
0.592214
0.592214
0.592213
0.592213
0.592212
0.592212
0.592211
0.59221
0.59221
0.59221
0.592209
0.592209
0.592208
0.592208
0.592207
0.592207
0.592206
0.592206
0.592205
0.592205
0.592205
0.592204
0.592204
0.592203
0.592203
0.592202
0.591875
0.591894
0.59192
0.591945
0.591968
0.59199
0.592011
0.592031
0.59205
0.592068
0.592085
0.5921
0.592115
0.592128
0.59214
0.592151
0.592162
0.592171
0.592179
0.592187
0.592193
0.592199
0.592205
0.59221
0.592214
0.592217
0.592221
0.592223
0.592226
0.592228
0.592229
0.592231
0.592232
0.592233
0.592234
0.592234
0.592235
0.592235
0.592235
0.592235
0.592235
0.592235
0.592235
0.592234
0.592234
0.592233
0.592233
0.592232
0.592232
0.592231
0.59223
0.59223
0.592229
0.592228
0.592227
0.592226
0.592226
0.592225
0.592224
0.592223
0.592223
0.592222
0.592221
0.592221
0.59222
0.592219
0.592219
0.592218
0.592218
0.592217
0.592216
0.592216
0.592215
0.592215
0.592214
0.592214
0.592213
0.592213
0.592212
0.592212
0.592211
0.592211
0.59221
0.59221
0.592209
0.592209
0.592209
0.592208
0.592208
0.592207
0.592207
0.592207
0.592206
0.592206
0.592205
0.592205
0.592205
0.592204
0.592204
0.592203
0.591918
0.591933
0.591955
0.591977
0.591997
0.592016
0.592034
0.592051
0.592068
0.592084
0.592099
0.592112
0.592125
0.592137
0.592147
0.592157
0.592166
0.592174
0.592182
0.592189
0.592195
0.5922
0.592205
0.592209
0.592213
0.592216
0.592219
0.592221
0.592223
0.592225
0.592227
0.592228
0.592229
0.59223
0.592231
0.592231
0.592232
0.592232
0.592232
0.592232
0.592232
0.592232
0.592231
0.592231
0.592231
0.592231
0.59223
0.59223
0.592229
0.592229
0.592228
0.592228
0.592227
0.592226
0.592226
0.592225
0.592224
0.592224
0.592223
0.592222
0.592222
0.592221
0.59222
0.59222
0.592219
0.592219
0.592218
0.592218
0.592217
0.592216
0.592216
0.592215
0.592215
0.592215
0.592214
0.592214
0.592213
0.592213
0.592212
0.592212
0.592212
0.592211
0.592211
0.59221
0.59221
0.59221
0.592209
0.592209
0.592209
0.592208
0.592208
0.592208
0.592207
0.592207
0.592206
0.592206
0.592206
0.592205
0.592205
0.592205
0.591959
0.591972
0.59199
0.592008
0.592025
0.592041
0.592057
0.592072
0.592086
0.5921
0.592112
0.592124
0.592135
0.592145
0.592155
0.592163
0.592171
0.592178
0.592184
0.59219
0.592196
0.5922
0.592204
0.592208
0.592211
0.592214
0.592217
0.592219
0.592221
0.592222
0.592224
0.592225
0.592226
0.592227
0.592227
0.592228
0.592228
0.592228
0.592228
0.592228
0.592228
0.592228
0.592228
0.592228
0.592227
0.592227
0.592227
0.592227
0.592226
0.592226
0.592225
0.592225
0.592224
0.592224
0.592223
0.592223
0.592222
0.592221
0.592221
0.59222
0.59222
0.592219
0.592219
0.592218
0.592218
0.592217
0.592217
0.592216
0.592216
0.592216
0.592215
0.592215
0.592214
0.592214
0.592214
0.592213
0.592213
0.592212
0.592212
0.592212
0.592211
0.592211
0.592211
0.59221
0.59221
0.59221
0.59221
0.592209
0.592209
0.592209
0.592208
0.592208
0.592208
0.592207
0.592207
0.592207
0.592206
0.592206
0.592206
0.592205
0.591999
0.592009
0.592024
0.592039
0.592053
0.592067
0.59208
0.592092
0.592104
0.592115
0.592126
0.592136
0.592145
0.592154
0.592162
0.592169
0.592176
0.592182
0.592187
0.592192
0.592196
0.5922
0.592204
0.592207
0.59221
0.592212
0.592214
0.592216
0.592218
0.592219
0.592221
0.592222
0.592222
0.592223
0.592223
0.592224
0.592224
0.592224
0.592225
0.592225
0.592225
0.592225
0.592224
0.592224
0.592224
0.592224
0.592224
0.592224
0.592223
0.592223
0.592223
0.592222
0.592222
0.592221
0.592221
0.592221
0.59222
0.59222
0.592219
0.592219
0.592218
0.592218
0.592218
0.592217
0.592217
0.592216
0.592216
0.592215
0.592215
0.592215
0.592214
0.592214
0.592214
0.592213
0.592213
0.592213
0.592212
0.592212
0.592212
0.592211
0.592211
0.592211
0.59221
0.59221
0.59221
0.59221
0.592209
0.592209
0.592209
0.592209
0.592208
0.592208
0.592208
0.592207
0.592207
0.592207
0.592207
0.592206
0.592206
0.592206
0.592038
0.592046
0.592058
0.59207
0.592081
0.592091
0.592102
0.592112
0.592122
0.592131
0.59214
0.592148
0.592155
0.592162
0.592169
0.592175
0.59218
0.592185
0.59219
0.592194
0.592197
0.592201
0.592204
0.592206
0.592209
0.592211
0.592212
0.592214
0.592215
0.592216
0.592217
0.592218
0.592219
0.592219
0.59222
0.59222
0.592221
0.592221
0.592221
0.592221
0.592221
0.592221
0.592221
0.592221
0.592221
0.592221
0.592221
0.59222
0.59222
0.59222
0.59222
0.59222
0.592219
0.592219
0.592219
0.592218
0.592218
0.592218
0.592217
0.592217
0.592217
0.592216
0.592216
0.592216
0.592215
0.592215
0.592215
0.592214
0.592214
0.592214
0.592213
0.592213
0.592213
0.592212
0.592212
0.592212
0.592212
0.592211
0.592211
0.592211
0.592211
0.59221
0.59221
0.59221
0.592209
0.592209
0.592209
0.592209
0.592208
0.592208
0.592208
0.592208
0.592208
0.592207
0.592207
0.592207
0.592207
0.592206
0.592206
0.592206
0.592076
0.592082
0.592091
0.5921
0.592108
0.592116
0.592125
0.592132
0.59214
0.592147
0.592154
0.59216
0.592166
0.592171
0.592176
0.592181
0.592185
0.592189
0.592193
0.592196
0.592199
0.592201
0.592204
0.592206
0.592208
0.592209
0.592211
0.592212
0.592213
0.592214
0.592215
0.592215
0.592216
0.592217
0.592217
0.592217
0.592218
0.592218
0.592218
0.592218
0.592218
0.592218
0.592218
0.592218
0.592218
0.592218
0.592218
0.592218
0.592218
0.592218
0.592218
0.592218
0.592217
0.592217
0.592217
0.592217
0.592217
0.592216
0.592216
0.592216
0.592215
0.592215
0.592215
0.592215
0.592214
0.592214
0.592214
0.592213
0.592213
0.592213
0.592213
0.592212
0.592212
0.592212
0.592212
0.592211
0.592211
0.592211
0.592211
0.59221
0.59221
0.59221
0.59221
0.59221
0.59221
0.592209
0.592209
0.592209
0.592209
0.592209
0.592208
0.592208
0.592208
0.592208
0.592208
0.592207
0.592207
0.592207
0.592207
0.592207
0.592113
0.592117
0.592123
0.592129
0.592135
0.592141
0.592147
0.592152
0.592158
0.592163
0.592168
0.592172
0.592176
0.59218
0.592184
0.592187
0.592191
0.592193
0.592196
0.592198
0.592201
0.592203
0.592204
0.592206
0.592207
0.592208
0.592209
0.59221
0.592211
0.592212
0.592212
0.592213
0.592213
0.592214
0.592214
0.592214
0.592214
0.592215
0.592215
0.592215
0.592215
0.592215
0.592215
0.592215
0.592215
0.592215
0.592215
0.592215
0.592215
0.592215
0.592215
0.592214
0.592214
0.592214
0.592214
0.592214
0.592214
0.592214
0.592213
0.592213
0.592213
0.592213
0.592213
0.592212
0.592212
0.592212
0.592212
0.592211
0.592211
0.592211
0.592211
0.592211
0.59221
0.59221
0.59221
0.59221
0.59221
0.59221
0.592209
0.592209
0.592209
0.592209
0.592209
0.592209
0.592208
0.592208
0.592208
0.592208
0.592208
0.592208
0.592208
0.592207
0.592207
0.592207
0.592207
0.592207
0.592207
0.592206
0.592206
0.592206
0.592149
0.592151
0.592155
0.592158
0.592162
0.592165
0.592169
0.592172
0.592176
0.592179
0.592182
0.592185
0.592188
0.59219
0.592193
0.592195
0.592197
0.592199
0.5922
0.592202
0.592203
0.592205
0.592206
0.592207
0.592208
0.592208
0.592209
0.59221
0.59221
0.59221
0.592211
0.592211
0.592211
0.592211
0.592211
0.592211
0.592212
0.592212
0.592212
0.592212
0.592211
0.592211
0.592211
0.592211
0.592211
0.592211
0.592211
0.592211
0.592211
0.592211
0.59221
0.59221
0.59221
0.59221
0.59221
0.59221
0.59221
0.59221
0.59221
0.59221
0.59221
0.592209
0.592209
0.592209
0.592209
0.592209
0.592209
0.592209
0.592209
0.592209
0.592209
0.592208
0.592208
0.592208
0.592208
0.592208
0.592208
0.592208
0.592208
0.592208
0.592208
0.592207
0.592207
0.592207
0.592207
0.592207
0.592207
0.592207
0.592207
0.592207
0.592206
0.592206
0.592206
0.592206
0.592206
0.592206
0.592206
0.592206
0.592205
0.592205
0.592187
0.592188
0.592189
0.59219
0.592192
0.592193
0.592194
0.592196
0.592197
0.592198
0.592199
0.5922
0.592201
0.592202
0.592203
0.592204
0.592205
0.592205
0.592206
0.592206
0.592206
0.592207
0.592207
0.592207
0.592207
0.592208
0.592208
0.592208
0.592208
0.592208
0.592208
0.592208
0.592208
0.592208
0.592207
0.592207
0.592207
0.592207
0.592207
0.592207
0.592207
0.592207
0.592207
0.592207
0.592207
0.592207
0.592207
0.592206
0.592206
0.592206
0.592206
0.592206
0.592206
0.592206
0.592206
0.592206
0.592206
0.592206
0.592206
0.592206
0.592206
0.592206
0.592206
0.592206
0.592206
0.592206
0.592206
0.592206
0.592206
0.592206
0.592206
0.592206
0.592206
0.592206
0.592206
0.592206
0.592206
0.592206
0.592206
0.592206
0.592206
0.592206
0.592206
0.592206
0.592206
0.592206
0.592205
0.592205
0.592205
0.592205
0.592205
0.592205
0.592205
0.592205
0.592205
0.592205
0.592205
0.592205
0.592205
0.592205
0.591195
0.591184
0.59119
0.591208
0.59123
0.591265
0.591292
0.591317
0.591324
0.591269
0.591298
0.591284
0.591284
0.591293
0.591307
0.591329
0.591349
0.591367
0.591377
0.591341
0.591393
0.591376
0.59137
0.591372
0.59138
0.591391
0.591405
0.591417
0.591427
0.591408
0.591477
0.591459
0.59145
0.591448
0.591451
0.591457
0.591465
0.591472
0.59148
0.591468
0.591552
0.591534
0.591523
0.591518
0.591517
0.591519
0.591523
0.591528
0.591532
0.591527
0.59162
0.591602
0.591591
0.591584
0.591581
0.59158
0.591581
0.591583
0.591585
0.591582
0.591681
0.591664
0.591652
0.591644
0.591639
0.591637
0.591636
0.591637
0.591638
0.591635
0.591737
0.591721
0.591709
0.591701
0.591695
0.591692
0.59169
0.591689
0.591689
0.591687
0.591788
0.591773
0.591762
0.591753
0.591747
0.591743
0.591741
0.591739
0.591739
0.591737
0.591835
0.591821
0.591811