/*--------------------------------*- C++ -*----------------------------------*\
  =========                 |
  \\      /  F ield         | OpenFOAM: The Open Source CFD Toolbox
   \\    /   O peration     | Website:  https://openfoam.org
    \\  /    A nd           | Version:  8
     \\/     M anipulation  |
\*---------------------------------------------------------------------------*/
FoamFile
{
    version     2.0;
    format      ascii;
    class       volVectorField;
    location    "2.999969291";
    object      U;
}
// * * * * * * * * * * * * * * * * * * * * * * * * * * * * * * * * * * * * * //

dimensions      [0 1 -1 0 0 0 0];

internalField   nonuniform List<vector> 
6800
(
(0.885533 4.09531 -1.04563e-14)
(20.9612 -3.25024 2.87451e-15)
(31.713 -4.51303 2.82721e-15)
(38.7082 -4.45238 -2.85755e-15)
(43.4436 -4.06117 1.92777e-15)
(46.6514 -3.57593 2.56834e-15)
(48.8329 -3.0937 -4.07493e-15)
(50.323 -2.65277 3.69267e-15)
(51.3593 -2.2413 -2.6421e-15)
(52.0562 -1.90259 5.19045e-16)
(10.8707 1.36904 1.48888e-14)
(27.9428 -5.44363 -4.03931e-15)
(37.8569 -5.32 -9.38912e-16)
(43.8535 -4.66833 1.99836e-15)
(47.624 -3.94581 -1.9125e-15)
(50.0217 -3.24599 -4.61069e-17)
(51.5466 -2.6433 5.79958e-18)
(52.5039 -2.15555 -1.12773e-15)
(53.104 -1.76835 1.97447e-16)
(53.4343 -1.54783 2.62188e-15)
(18.0891 -0.811608 2.62401e-15)
(34.2761 -7.52909 -7.25255e-16)
(43.2256 -5.84298 1.94829e-15)
(48.1662 -4.66893 -4.48615e-15)
(50.9938 -3.66264 9.15502e-16)
(52.6415 -2.79793 -2.86717e-15)
(53.5731 -2.11221 2.62909e-15)
(54.0632 -1.59723 -3.15536e-16)
(54.2949 -1.21236 3.43627e-15)
(54.3453 -0.982305 -5.4258e-15)
(25.7471 -2.30924 4.29825e-15)
(40.5161 -9.12297 -9.9017e-16)
(48.1028 -5.91977 -1.86739e-16)
(51.8631 -4.40724 5.96824e-16)
(53.7707 -3.18375 -1.8853e-15)
(54.7189 -2.20748 1.8351e-15)
(55.1205 -1.4842 -3.1114e-15)
(55.2242 -0.961646 4.57706e-15)
(55.1766 -0.5775 -3.22561e-15)
(55.0294 -0.333661 4.00045e-15)
(33.3744 -2.67017 4.18117e-18)
(46.499 -9.94275 1.93863e-15)
(52.5092 -5.41352 7.77931e-16)
(55.0566 -3.81488 3.55839e-15)
(56.0861 -2.45728 -1.9276e-15)
(56.3943 -1.44566 6.18519e-16)
(56.3471 -0.727845 7.83002e-16)
(56.1458 -0.216941 2.42879e-15)
(55.8882 0.154981 -3.36085e-15)
(55.5946 0.399027 1.45877e-15)
(40.6039 -1.86695 -1.96263e-15)
(52.0756 -9.88263 -9.59348e-16)
(56.4181 -4.27464 -4.95945e-17)
(57.8063 -2.85293 -1.30246e-15)
(58.0178 -1.44044 -1.7006e-16)
(57.7689 -0.477946 9.98111e-16)
(57.356 0.194096 -1.37671e-15)
(56.915 0.668215 1.60084e-15)
(56.4922 1.00905 -1.80595e-15)
(56.0797 1.23763 -3.72115e-16)
(47.1539 0.0315957 2.78797e-16)
(57.0978 -8.92425 1.04028e-15)
(59.7796 -2.50598 7.68403e-16)
(60.1244 -1.50445 -1.13224e-15)
(59.6047 -0.110724 -1.59211e-16)
(58.8957 0.720009 1.49506e-15)
(58.1905 1.30693 -6.25882e-16)
(57.5575 1.71701 9.761e-16)
(56.9987 2.00113 -2.00416e-15)
(56.482 2.19778 3.59964e-20)
(52.8189 2.87108 6.99574e-16)
(61.4414 -7.09274 -1.78067e-16)
(62.5402 -0.164302 -8.3174e-16)
(61.9929 0.227927 -1.42623e-15)
(60.8529 1.52937 2.51329e-15)
(59.7861 2.1528 -1.7683e-15)
(58.8494 2.61997 3.57831e-16)
(58.0608 2.93384 -1.40077e-15)
(57.3886 3.13046 -6.18826e-16)
(56.7784 3.28007 -7.9711e-16)
(57.4422 6.44332 8.42876e-17)
(65.0012 -4.48036 1.32059e-16)
(64.6436 2.64995 -6.97338e-16)
(63.3809 2.30521 5.45329e-16)
(61.7573 3.45388 4.52097e-16)
(60.4195 3.80685 -6.32728e-16)
(59.3049 4.1204 3.02113e-16)
(58.3925 4.3034 5.17116e-16)
(57.6296 4.38246 5.31316e-16)
(56.9379 4.47168 6.24093e-16)
(60.9339 10.5536 -2.32918e-16)
(67.6876 -1.19056 -7.26806e-17)
(66.0535 5.80914 -1.64414e-16)
(64.2609 4.67168 1.66509e-16)
(62.2833 5.61415 -5.15915e-16)
(60.7639 5.64597 -9.84559e-17)
(59.5185 5.77486 -4.55244e-17)
(58.5152 5.79448 4.53501e-16)
(57.6892 5.73026 2.14732e-16)
(56.9301 5.74857 -9.85511e-16)
(-3.33398 1.68877 1.73226e-15)
(-5.31845 1.18862 -4.90528e-16)
(-7.18107 0.877835 -2.28738e-16)
(-8.5956 0.645491 3.66407e-16)
(-9.49571 0.42705 -7.64146e-17)
(-9.95483 0.201106 5.2021e-16)
(-10.0103 -0.0365726 1.75413e-16)
(-9.6936 -0.274825 -2.85357e-16)
(-9.0438 -0.491762 5.70935e-16)
(-8.11211 -0.64626 -1.95496e-16)
(-3.35396 4.29217 -8.85432e-16)
(-4.98751 3.27729 8.05233e-16)
(-6.53587 2.47182 1.63728e-16)
(-7.63753 1.82611 8.56321e-16)
(-8.23349 1.20793 -3.32793e-16)
(-8.37684 0.553191 -9.96822e-17)
(-8.08245 -0.157956 -1.02101e-15)
(-7.35535 -0.882761 7.16274e-16)
(-6.26588 -1.52437 2.31547e-16)
(-4.89586 -1.94925 1.04236e-15)
(-3.48003 6.53937 -2.09966e-15)
(-4.54862 5.07144 -1.01754e-16)
(-5.49718 3.83574 1.74552e-15)
(-5.97459 2.80733 -2.77763e-15)
(-5.92596 1.81486 7.1218e-18)
(-5.36362 0.750079 -3.47314e-16)
(-4.2305 -0.434729 2.92338e-15)
(-2.58064 -1.64652 -1.8722e-15)
(-0.760261 -2.65463 4.52531e-15)
(1.39174 -3.25468 -1.93478e-15)
(-3.72194 8.18132 -2.3339e-15)
(-4.09058 6.36522 2.23511e-15)
(-4.19744 4.78356 -3.76155e-15)
(-3.74578 3.41663 4.46951e-15)
(-2.63138 2.0733 1.06935e-15)
(-0.735714 0.569279 -5.46864e-16)
(2.02895 -1.10141 -1.99941e-15)
(4.62227 -2.50611 1.34257e-15)
(7.09524 -3.56791 9.80034e-16)
(9.77175 -4.05942 -3.83018e-15)
(-4.0274 9.09714 9.22804e-15)
(-3.63895 7.01718 5.91654e-17)
(-2.63588 5.13958 1.72176e-15)
(-0.752929 3.3685 -9.76318e-15)
(2.25016 1.5546 5.43455e-15)
(6.15485 -0.314933 9.96136e-16)
(9.82807 -1.91217 7.73801e-16)
(13.1346 -3.13408 1.2273e-15)
(16.0905 -4.04244 3.0656e-16)
(19.2213 -4.34451 5.48943e-15)
(-4.34812 9.33294 7.04559e-15)
(-3.0957 6.89455 2.31933e-15)
(-0.468219 4.64571 2.18883e-15)
(3.67796 2.44279 -8.764e-15)
(9.02428 0.288032 7.40116e-15)
(13.9673 -1.424 -4.73747e-15)
(18.3317 -2.73223 -7.24207e-15)
(22.1425 -3.64492 1.84047e-15)
(25.3771 -4.22662 -4.86314e-15)
(28.5969 -4.25651 1.73555e-15)
(-4.67414 8.96935 5.85429e-15)
(-2.22777 5.92977 4.59754e-15)
(2.9983 3.25466 -6.87042e-15)
(10.209 0.635445 1.51523e-14)
(16.6936 -1.25166 2.71408e-15)
(22.2367 -2.55298 -7.47901e-15)
(26.8638 -3.38137 4.33075e-15)
(30.6562 -3.87659 -6.63118e-16)
(33.6821 -4.13408 2.69397e-15)
(36.51 -3.94297 1.24745e-15)
(-5.10917 8.22113 -9.83521e-15)
(-0.479434 4.30896 -2.10332e-14)
(9.39427 0.792004 6.18167e-15)
(17.8702 -1.35069 5.1975e-16)
(24.7313 -2.60137 -3.23538e-15)
(30.167 -3.31378 -2.6921e-15)
(34.3961 -3.69528 4.15917e-16)
(37.6838 -3.83778 -1.65867e-15)
(40.2221 -3.82992 -1.76179e-15)
(42.4889 -3.49391 5.01349e-15)
(-5.14591 6.89979 1.1035e-14)
(5.90031 1.28813 6.75351e-15)
(17.1216 -1.59453 2.87223e-15)
(25.6706 -2.90371 -1.12517e-15)
(32.0838 -3.49275 2.9757e-17)
(36.8683 -3.69476 2.04784e-15)
(40.4413 -3.68637 4.61839e-15)
(43.1188 -3.55537 -2.87139e-15)
(45.1171 -3.36244 -3.12761e-15)
(46.8126 -2.95172 3.31576e-15)
(-4.01093 5.45362 -8.89675e-15)
(13.6899 -1.16022 -3.00664e-16)
(24.7771 -3.33931 -3.65924e-15)
(32.6536 -3.91288 -9.65649e-17)
(38.2881 -3.94177 4.84356e-16)
(42.3126 -3.74895 -3.32137e-16)
(45.1894 -3.46154 -2.27465e-16)
(47.2524 -3.13913 -2.16765e-15)
(48.7224 -2.8094 -3.20527e-15)
(49.8567 -2.37955 9.39224e-16)
(-6.90239 -0.706245 1.24898e-16)
(-5.37229 -0.675634 2.01512e-17)
(-3.95403 -0.619087 -1.97841e-16)
(-2.65453 -0.568794 1.48223e-16)
(-1.44755 -0.531995 6.65356e-17)
(-0.310348 -0.505164 -3.19523e-16)
(0.791979 -0.476637 -1.65006e-16)
(1.80929 -0.448651 2.44573e-16)
(2.78634 -0.426955 -1.48371e-16)
(3.72294 -0.409193 -4.39398e-17)
(4.62463 -0.393795 1.5027e-16)
(5.49552 -0.379942 -6.06888e-17)
(6.33826 -0.36715 3.72503e-16)
(7.15459 -0.355106 -1.90395e-16)
(7.94578 -0.343617 -4.35277e-16)
(8.71281 -0.332577 5.75836e-16)
(9.45644 -0.321911 -2.45064e-16)
(10.1773 -0.311573 -1.28807e-16)
(10.8761 -0.301537 1.32116e-16)
(11.5532 -0.291791 -3.09851e-17)
(12.2093 -0.282325 -3.20857e-17)
(12.8448 -0.273138 9.14076e-17)
(13.4604 -0.264238 -1.54364e-16)
(14.0566 -0.255631 4.12105e-16)
(14.634 -0.247317 2.04367e-17)
(15.1934 -0.239292 -4.39274e-16)
(15.7353 -0.231545 3.2174e-16)
(16.2602 -0.224064 7.16427e-17)
(16.7689 -0.216836 -1.51605e-18)
(17.2618 -0.209846 -2.46754e-16)
(17.7395 -0.20308 1.50237e-16)
(18.2023 -0.19652 -2.45076e-16)
(18.6509 -0.190151 2.22559e-16)
(19.0854 -0.183965 -2.92575e-16)
(19.5064 -0.177958 4.26016e-16)
(19.9142 -0.172128 -2.64599e-16)
(20.3092 -0.166476 -1.15292e-16)
(20.6917 -0.161002 3.75296e-16)
(21.0621 -0.155708 -9.27664e-17)
(21.4209 -0.150597 -7.54647e-18)
(21.7683 -0.145672 -1.82312e-16)
(22.1049 -0.140935 6.67719e-17)
(22.4309 -0.136391 -3.55727e-17)
(22.7468 -0.132041 -1.89601e-17)
(23.0531 -0.12788 2.27981e-16)
(23.3501 -0.123899 -9.80602e-17)
(23.6382 -0.120083 1.54649e-16)
(23.9179 -0.11642 -2.67305e-16)
(24.1894 -0.112901 4.02775e-17)
(24.453 -0.109518 3.08132e-17)
(24.7091 -0.106266 -1.77104e-18)
(24.9579 -0.103135 -6.69976e-17)
(25.1997 -0.100121 7.94044e-17)
(25.4348 -0.0972162 3.33657e-17)
(25.6634 -0.0944134 -1.68432e-17)
(25.8857 -0.0917045 -6.7739e-17)
(26.1019 -0.0890843 1.33407e-17)
(26.3122 -0.0865515 -6.98143e-17)
(26.5167 -0.0841061 4.39164e-17)
(26.7158 -0.081748 1.06828e-16)
(26.9094 -0.0794771 -9.73062e-17)
(27.0979 -0.0772935 3.51224e-18)
(27.2814 -0.0751962 -3.43218e-17)
(27.4601 -0.0731837 1.00368e-17)
(27.6342 -0.0712538 6.18468e-17)
(27.804 -0.069404 5.8251e-17)
(27.9695 -0.0676315 -1.46385e-16)
(28.131 -0.0659337 4.34168e-17)
(28.2887 -0.0643078 1.10423e-17)
(28.4426 -0.062751 -3.70153e-17)
(28.593 -0.0612606 -6.89329e-17)
(28.74 -0.059834 1.45885e-16)
(28.8838 -0.0584686 -4.25628e-17)
(29.0244 -0.0571615 3.22082e-17)
(29.1621 -0.05591 -2.911e-17)
(29.2969 -0.0547112 -4.52454e-17)
(29.429 -0.0535624 1.30568e-17)
(29.5585 -0.052461 4.50654e-17)
(29.6855 -0.0514045 -6.72725e-17)
(29.8101 -0.0503911 8.37239e-17)
(29.9324 -0.0494189 2.38863e-18)
(30.0524 -0.0484864 -1.32932e-17)
(30.1704 -0.047592 -3.1604e-17)
(30.2863 -0.0467344 4.83775e-17)
(30.4002 -0.0459117 -4.02203e-17)
(30.5123 -0.0451222 3.45229e-17)
(30.6226 -0.0443634 -5.03394e-17)
(30.7312 -0.0436334 -6.05248e-18)
(30.8381 -0.0429288 3.30363e-17)
(30.9434 -0.0422471 2.09688e-18)
(31.0472 -0.041583 -1.21834e-17)
(31.1494 -0.0409326 -5.2162e-19)
(31.2502 -0.0402865 -1.91049e-18)
(31.3495 -0.0396379 -4.43708e-18)
(31.4472 -0.0389701 2.49158e-18)
(31.5434 -0.0382681 -1.563e-18)
(31.6379 -0.0375066 5.80886e-18)
(31.7303 -0.0366616 4.0377e-18)
(31.8208 -0.0357199 -7.44161e-19)
(31.9302 -0.0337653 1.20559e-18)
(-3.54261 -2.04501 -5.00292e-16)
(-2.27487 -1.90753 -3.54874e-16)
(-1.04115 -1.74918 -1.56334e-15)
(0.113551 -1.61451 1.30069e-15)
(1.19894 -1.50793 -1.87221e-15)
(2.20728 -1.42652 1.36373e-15)
(3.17504 -1.35271 -9.06512e-16)
(4.10236 -1.28416 -6.50395e-16)
(4.99976 -1.22736 1.43012e-15)
(5.8671 -1.17921 4.89025e-16)
(6.70593 -1.13685 2.6685e-16)
(7.51849 -1.09853 -1.01232e-15)
(8.30637 -1.06305 3.65628e-16)
(9.07083 -1.02958 -4.06517e-16)
(9.81276 -0.997523 -1.04262e-15)
(10.5327 -0.966487 2.39237e-15)
(11.2313 -0.936297 1.63944e-16)
(11.9088 -0.906871 -1.53038e-16)
(12.5657 -0.878167 -4.94746e-16)
(13.2024 -0.850162 -1.54351e-16)
(13.8194 -0.822839 -1.03108e-15)
(14.417 -0.796208 1.00191e-15)
(14.9958 -0.770327 -1.26301e-15)
(15.5561 -0.745259 2.40823e-15)
(16.0985 -0.721039 -1.12741e-15)
(16.6237 -0.697678 3.27292e-16)
(17.1321 -0.675162 -4.07504e-16)
(17.6244 -0.653462 4.52416e-16)
(18.1012 -0.632541 4.15192e-16)
(18.5629 -0.612359 -9.57662e-17)
(19.0103 -0.592863 -8.45206e-16)
(19.4436 -0.573979 -1.1968e-16)
(19.8634 -0.555647 4.09558e-16)
(20.27 -0.537833 1.54403e-16)
(20.664 -0.520529 -9.00478e-16)
(21.0455 -0.503736 7.51192e-16)
(21.4151 -0.487448 2.04767e-16)
(21.7732 -0.471653 -3.12631e-16)
(22.12 -0.456348 1.4434e-16)
(22.456 -0.441531 -2.28915e-16)
(22.7815 -0.427208 -2.25285e-16)
(23.0968 -0.413387 7.29892e-16)
(23.4022 -0.400092 -3.78205e-16)
(23.6982 -0.387349 1.35483e-16)
(23.985 -0.375165 -7.93481e-16)
(24.2632 -0.363524 5.9446e-16)
(24.533 -0.352385 2.38823e-16)
(24.7949 -0.341698 -5.25978e-16)
(25.0491 -0.331421 -3.30991e-16)
(25.296 -0.321547 2.85916e-16)
(25.5357 -0.312066 1.80677e-16)
(25.7687 -0.302958 1.15698e-18)
(25.9951 -0.294214 5.54549e-16)
(26.2153 -0.285821 -7.59956e-16)
(26.4295 -0.277741 5.1684e-16)
(26.6381 -0.269911 -3.93997e-16)
(26.841 -0.262299 -1.95216e-16)
(27.0384 -0.254909 8.5298e-16)
(27.2305 -0.247748 -1.45371e-16)
(27.4174 -0.240823 -2.33797e-16)
(27.5993 -0.234144 2.06337e-16)
(27.7763 -0.227716 -2.80574e-16)
(27.9487 -0.221539 -2.10761e-16)
(28.1165 -0.21561 1.97463e-16)
(28.2801 -0.209923 -1.05075e-16)
(28.4396 -0.204473 -2.3528e-16)
(28.5951 -0.19925 4.43084e-16)
(28.7468 -0.194248 -8.08413e-17)
(28.8949 -0.189457 -1.42422e-16)
(29.0395 -0.18487 -1.98192e-16)
(29.1809 -0.180478 2.70486e-17)
(29.319 -0.176273 1.79432e-16)
(29.4541 -0.172248 1.52621e-16)
(29.5863 -0.168395 7.3645e-17)
(29.7157 -0.164706 -2.09281e-17)
(29.8424 -0.161173 -3.22125e-16)
(29.9666 -0.15779 2.59052e-16)
(30.0884 -0.154548 1.86086e-16)
(30.2078 -0.151438 -1.61531e-16)
(30.3249 -0.148454 -2.34884e-16)
(30.4399 -0.145591 1.00426e-17)
(30.5529 -0.142843 7.94999e-17)
(30.6638 -0.140208 -3.9222e-17)
(30.7729 -0.137682 5.63827e-18)
(30.8801 -0.13526 -9.34129e-18)
(30.9856 -0.132937 9.78953e-18)
(31.0894 -0.130707 -9.06453e-17)
(31.1917 -0.128563 2.08483e-16)
(31.2924 -0.126496 -9.26076e-17)
(31.3916 -0.124498 -7.22515e-17)
(31.4893 -0.122553 4.12509e-17)
(31.5857 -0.120652 2.28772e-17)
(31.6807 -0.118764 1.78334e-17)
(31.7743 -0.116872 -2.38745e-17)
(31.8665 -0.114924 1.36902e-17)
(31.9573 -0.112878 -8.58532e-17)
(32.0465 -0.110658 3.66991e-17)
(32.1337 -0.108142 -1.23496e-17)
(32.2198 -0.105221 2.46768e-18)
(32.3225 -0.100818 -1.92007e-17)
(2.56639 -3.17915 -4.94143e-15)
(3.34411 -2.90143 1.05506e-15)
(4.21416 -2.68612 2.00998e-15)
(5.07775 -2.51045 1.96953e-15)
(5.91991 -2.35883 -1.446e-15)
(6.73843 -2.23389 -4.10924e-15)
(7.53828 -2.12921 4.2512e-15)
(8.32084 -2.03709 7.19003e-16)
(9.08724 -1.9565 -1.28104e-15)
(9.83579 -1.88512 -6.4313e-16)
(10.5651 -1.82049 7.56554e-16)
(11.2753 -1.76094 3.17024e-15)
(11.9663 -1.70524 -1.21181e-15)
(12.6383 -1.65224 -2.51769e-15)
(13.2912 -1.60125 3.41023e-15)
(13.9253 -1.55179 -1.50802e-15)
(14.5407 -1.50359 -1.18013e-15)
(15.1378 -1.45655 3.98371e-16)
(15.7167 -1.41061 -6.05873e-16)
(16.2778 -1.36573 1.40467e-15)
(16.8214 -1.32187 -2.01867e-15)
(17.3479 -1.27904 1.97223e-16)
(17.8576 -1.23733 -7.48261e-16)
(18.3511 -1.19689 1.65437e-15)
(18.8288 -1.15777 -3.92583e-16)
(19.2912 -1.11999 1.18524e-15)
(19.7389 -1.08355 -4.37786e-16)
(20.1722 -1.04842 -1.11898e-15)
(20.5918 -1.01454 -5.47038e-16)
(20.9979 -0.981832 -8.44019e-17)
(21.3911 -0.950253 5.65367e-16)
(21.7718 -0.919704 7.90709e-16)
(22.1403 -0.890101 -1.36405e-15)
(22.497 -0.861392 9.78187e-16)
(22.8425 -0.833564 3.80434e-16)
(23.1769 -0.80663 -7.48297e-16)
(23.5008 -0.780556 1.5548e-15)
(23.8145 -0.755308 -1.3554e-15)
(24.1184 -0.730869 2.50676e-16)
(24.4128 -0.707223 -5.02491e-16)
(24.698 -0.684362 2.3674e-16)
(24.9742 -0.662274 -2.2688e-16)
(25.2419 -0.640999 3.56663e-16)
(25.5013 -0.620589 1.60788e-16)
(25.7527 -0.60107 -2.95538e-16)
(25.9965 -0.582426 8.89966e-16)
(26.2331 -0.564586 -5.54996e-16)
(26.4627 -0.547466 -5.51427e-16)
(26.6855 -0.530987 8.39088e-16)
(26.9018 -0.515161 -9.07648e-16)
(27.1118 -0.499992 -1.48842e-17)
(27.3158 -0.485437 1.56636e-15)
(27.5141 -0.471497 -2.04649e-15)
(27.7069 -0.458166 1.67665e-15)
(27.8946 -0.445369 -1.12836e-15)
(28.0773 -0.432946 1.53956e-16)
(28.255 -0.420826 7.14916e-16)
(28.4279 -0.409043 -3.76763e-16)
(28.5961 -0.397611 -1.78298e-16)
(28.7597 -0.386544 2.55658e-16)
(28.9189 -0.375871 -8.35775e-18)
(29.0739 -0.365602 -2.10487e-16)
(29.2247 -0.355736 -2.43059e-16)
(29.3717 -0.346265 3.0294e-17)
(29.515 -0.337179 2.92669e-16)
(29.6547 -0.32847 -1.46786e-16)
(29.791 -0.320126 3.85951e-16)
(29.9241 -0.312136 -1.93271e-16)
(30.054 -0.304485 -2.2398e-17)
(30.181 -0.297159 -4.67459e-16)
(30.3051 -0.290143 4.34623e-16)
(30.4264 -0.283426 2.25446e-16)
(30.5452 -0.276995 5.65159e-17)
(30.6614 -0.270836 -2.99667e-16)
(30.7752 -0.264939 2.35451e-16)
(30.8868 -0.259293 -8.70819e-17)
(30.9961 -0.253886 -2.00339e-17)
(31.1033 -0.248705 -3.2117e-16)
(31.2086 -0.243736 2.52174e-16)
(31.3119 -0.238968 7.26337e-17)
(31.4133 -0.234393 -2.36833e-16)
(31.513 -0.230005 8.36538e-17)
(31.611 -0.225798 8.18765e-17)
(31.7073 -0.221766 -1.76064e-16)
(31.8022 -0.217901 -3.42719e-18)
(31.8955 -0.214195 3.21155e-16)
(31.9874 -0.210638 6.64923e-17)
(32.078 -0.20722 -6.60151e-17)
(32.1672 -0.203925 -1.7309e-16)
(32.2552 -0.200742 -2.38706e-17)
(32.342 -0.197646 -6.89016e-17)
(32.4276 -0.194621 3.33625e-17)
(32.5121 -0.191622 1.25929e-16)
(32.5954 -0.188616 -5.04391e-17)
(32.6775 -0.185525 4.31468e-17)
(32.7584 -0.182278 -7.09618e-17)
(32.8379 -0.178753 7.25588e-17)
(32.9159 -0.174705 -2.96197e-17)
(32.993 -0.169964 -1.31674e-17)
(33.085 -0.164368 1.4576e-17)
(10.5361 -3.81793 1.82315e-15)
(10.8014 -3.50789 -4.71425e-16)
(11.2129 -3.31349 3.81135e-15)
(11.7389 -3.15483 -3.15555e-15)
(12.3059 -3.00406 2.59334e-15)
(12.8877 -2.87042 1.13251e-15)
(13.4776 -2.75556 2.53487e-16)
(14.071 -2.65379 3.76555e-16)
(14.6634 -2.56153 -8.37739e-16)
(15.2508 -2.47679 -9.58471e-16)
(15.8295 -2.39787 -2.55012e-15)
(16.3981 -2.3235 3.27305e-15)
(16.9547 -2.25273 -3.34705e-15)
(17.4982 -2.18453 2.28674e-15)
(18.028 -2.11826 -1.05411e-15)
(18.5437 -2.05348 -2.79057e-16)
(19.045 -1.99007 1.17639e-15)
(19.532 -1.92803 -2.56437e-16)
(20.0045 -1.86732 -4.52713e-16)
(20.4628 -1.80796 -8.58933e-16)
(20.9069 -1.74988 2.36173e-15)
(21.3371 -1.69311 -5.65113e-16)
(21.7538 -1.63787 1.51759e-16)
(22.1574 -1.58433 1.50522e-15)
(22.5483 -1.53251 -4.00192e-15)
(22.927 -1.48243 2.85658e-15)
(23.2937 -1.43407 -3.14963e-15)
(23.6488 -1.3874 4.35664e-15)
(23.9925 -1.34236 -2.44212e-15)
(24.3252 -1.29891 1.5971e-15)
(24.6472 -1.25697 1.23821e-15)
(24.9588 -1.21637 -3.41354e-15)
(25.2603 -1.17703 8.6398e-16)
(25.552 -1.13891 -5.70102e-16)
(25.8344 -1.10201 1.11553e-15)
(26.1076 -1.06636 -1.28788e-16)
(26.3722 -1.03188 -2.27582e-15)
(26.6283 -0.998526 1.99502e-15)
(26.8764 -0.966264 -2.67344e-16)
(27.1166 -0.935062 3.02519e-16)
(27.3493 -0.904912 4.47171e-16)
(27.5747 -0.875762 3.84968e-16)
(27.7931 -0.847689 4.15791e-17)
(28.0048 -0.820759 -9.21623e-16)
(28.21 -0.794997 2.59598e-17)
(28.409 -0.770378 -1.2687e-16)
(28.602 -0.746789 -3.9079e-16)
(28.7892 -0.724122 1.71498e-15)
(28.9708 -0.702244 -7.17188e-16)
(29.1469 -0.681252 2.57334e-16)
(29.3177 -0.66119 3.46042e-16)
(29.4836 -0.641947 -5.24077e-16)
(29.6447 -0.623544 -6.00213e-16)
(29.8013 -0.606012 1.26589e-15)
(29.9537 -0.589207 -1.19799e-15)
(30.1018 -0.572802 -1.16737e-16)
(30.2458 -0.556722 1.25224e-15)
(30.3856 -0.541106 -8.23853e-16)
(30.5215 -0.525965 2.82659e-16)
(30.6535 -0.511317 1.57507e-16)
(30.7819 -0.497214 -6.12952e-16)
(30.9069 -0.483673 7.91334e-16)
(31.0286 -0.470685 -2.69057e-16)
(31.1472 -0.45823 -7.52318e-16)
(31.2628 -0.446293 4.23759e-16)
(31.3756 -0.434858 -5.60323e-17)
(31.4857 -0.423909 9.11495e-16)
(31.5932 -0.413423 -1.56004e-15)
(31.6983 -0.403382 1.40027e-15)
(31.801 -0.393767 -6.56497e-17)
(31.9015 -0.384563 -5.55403e-16)
(31.9999 -0.375752 7.42404e-16)
(32.0962 -0.367319 -4.94996e-16)
(32.1905 -0.359245 2.42666e-16)
(32.283 -0.351516 -4.15281e-16)
(32.3737 -0.344117 -6.38178e-17)
(32.4627 -0.337034 2.32229e-16)
(32.55 -0.330248 -8.66073e-17)
(32.6358 -0.323741 -2.90558e-16)
(32.7201 -0.317501 2.80307e-16)
(32.803 -0.311516 4.09811e-16)
(32.8845 -0.305779 -7.08027e-17)
(32.9648 -0.300283 2.39756e-16)
(33.0438 -0.29502 -2.93324e-16)
(33.1216 -0.289978 -2.11303e-16)
(33.1983 -0.285147 -7.76476e-17)
(33.2739 -0.280511 1.787e-17)
(33.3485 -0.276057 1.18973e-16)
(33.4222 -0.271764 2.15106e-16)
(33.4948 -0.267618 -4.38787e-16)
(33.5666 -0.26359 3.28589e-16)
(33.6375 -0.259659 -1.71612e-16)
(33.7075 -0.255762 3.54937e-17)
(33.7767 -0.251859 1.41303e-16)
(33.845 -0.247848 -1.27386e-17)
(33.9124 -0.243638 -1.17241e-16)
(33.9787 -0.239069 9.08839e-17)
(34.0439 -0.233817 -3.74647e-17)
(34.1087 -0.227699 -2.58614e-18)
(34.1861 -0.220852 -1.36686e-17)
(19.7168 -3.99295 -6.52759e-15)
(19.607 -3.73982 -2.71326e-15)
(19.6057 -3.62018 3.82394e-15)
(19.7891 -3.51753 -1.00047e-15)
(20.0589 -3.40347 -1.10556e-15)
(20.3648 -3.29038 2.74275e-15)
(20.6974 -3.18663 -2.79e-15)
(21.053 -3.09103 -1.19992e-15)
(21.4251 -3.00077 1.16777e-15)
(21.8067 -2.91461 1.22061e-15)
(22.1929 -2.83161 -2.51837e-15)
(22.5801 -2.75105 3.83977e-15)
(22.965 -2.67265 -2.82628e-15)
(23.346 -2.59581 3.89586e-15)
(23.721 -2.52017 -2.9563e-15)
(24.0888 -2.44548 -1.99933e-15)
(24.4486 -2.37178 1.03532e-15)
(24.7997 -2.29915 2.61922e-15)
(25.1415 -2.22766 1.04306e-15)
(25.474 -2.15746 -2.37081e-15)
(25.797 -2.08861 2.15253e-15)
(26.1107 -2.02127 6.81879e-17)
(26.4155 -1.95581 -1.53762e-16)
(26.7118 -1.89238 -1.56481e-15)
(26.9995 -1.83092 1.42147e-15)
(27.2789 -1.7714 -3.27281e-16)
(27.5499 -1.7138 -3.3082e-15)
(27.8127 -1.65811 2.03088e-15)
(28.0672 -1.60422 3.82984e-16)
(28.3138 -1.5521 9.41118e-16)
(28.5525 -1.50173 -3.53095e-15)
(28.7834 -1.45299 2.35212e-16)
(29.0068 -1.40584 3.08961e-15)
(29.2228 -1.36022 -1.67116e-16)
(29.4321 -1.31614 -2.44265e-15)
(29.6346 -1.27357 -6.90585e-16)
(29.8306 -1.23241 3.44809e-15)
(30.0203 -1.19261 -9.22703e-16)
(30.204 -1.15415 -9.68939e-16)
(30.3818 -1.11699 9.08161e-16)
(30.554 -1.08109 7.82936e-16)
(30.7208 -1.04636 1.26403e-15)
(30.8824 -1.01291 -3.49333e-15)
(31.0391 -0.980829 2.27316e-15)
(31.1911 -0.950121 2.9253e-16)
(31.3385 -0.92075 -1.76789e-15)
(31.4815 -0.892553 6.13012e-17)
(31.62 -0.865447 -3.59286e-16)
(31.7542 -0.839159 1.30939e-15)
(31.8842 -0.813964 8.31021e-16)
(32.0101 -0.789974 -4.88481e-16)
(32.1323 -0.766875 -6.74593e-16)
(32.2506 -0.744773 -3.21989e-17)
(32.3653 -0.723834 3.02016e-16)
(32.4767 -0.7038 -2.43636e-16)
(32.5846 -0.68405 9.50538e-17)
(32.689 -0.664604 -6.06665e-16)
(32.7901 -0.645816 1.25621e-15)
(32.888 -0.627632 -1.04219e-15)
(32.983 -0.610085 1.26732e-15)
(33.0754 -0.593269 -1.81557e-15)
(33.1652 -0.577171 2.76879e-16)
(33.2527 -0.561752 6.23707e-16)
(33.338 -0.546987 -1.10888e-16)
(33.4213 -0.532855 4.90754e-16)
(33.5026 -0.519334 -1.27896e-15)
(33.5821 -0.506397 7.90003e-16)
(33.6598 -0.49402 -5.63317e-16)
(33.7358 -0.482171 -2.60066e-16)
(33.8102 -0.470825 1.69145e-15)
(33.8831 -0.459962 -1.38946e-15)
(33.9545 -0.449565 6.50013e-16)
(34.0245 -0.439617 -2.99135e-16)
(34.0932 -0.430097 7.8283e-18)
(34.1607 -0.420984 6.96192e-16)
(34.2269 -0.412264 -4.7532e-16)
(34.292 -0.403921 -2.188e-16)
(34.356 -0.395933 1.91162e-16)
(34.419 -0.388279 3.99899e-16)
(34.4809 -0.380946 -3.51133e-16)
(34.542 -0.37392 -3.34876e-16)
(34.6021 -0.367192 7.30391e-16)
(34.6614 -0.36075 -5.08108e-16)
(34.7199 -0.354586 9.65035e-17)
(34.7777 -0.348684 -2.19425e-16)
(34.8347 -0.34303 1.88784e-16)
(34.891 -0.337606 2.26363e-16)
(34.9467 -0.332397 -8.38027e-17)
(35.0018 -0.32738 1.32533e-16)
(35.0563 -0.322537 3.01663e-16)
(35.1101 -0.317839 -3.17877e-16)
(35.1635 -0.31326 4.11259e-16)
(35.2163 -0.308723 -3.33231e-16)
(35.2687 -0.304185 1.73928e-16)
(35.3204 -0.299527 1.15903e-16)
(35.3717 -0.294648 -3.68333e-17)
(35.4224 -0.289359 4.4655e-17)
(35.4724 -0.283293 -6.66684e-17)
(35.5223 -0.276229 7.93465e-17)
(35.5823 -0.268392 3.81102e-17)
(29.0342 -3.87505 7.23471e-16)
(28.788 -3.72941 -2.42287e-15)
(28.5626 -3.69098 -7.22311e-16)
(28.5102 -3.64448 7.2206e-15)
(28.5501 -3.5769 2.62888e-18)
(28.6247 -3.50003 -3.40745e-15)
(28.7249 -3.42035 1.8167e-15)
(28.8525 -3.34036 -2.10171e-15)
(29.0028 -3.26066 5.20249e-16)
(29.1702 -3.18116 3.83194e-15)
(29.35 -3.10183 -7.45637e-16)
(29.538 -3.02257 -9.12613e-15)
(29.7311 -2.9433 2.82088e-15)
(29.9273 -2.86408 6.37468e-15)
(30.1245 -2.78501 -1.1198e-16)
(30.3213 -2.70612 -3.30393e-15)
(30.517 -2.62766 -2.38431e-15)
(30.7107 -2.54998 -4.10798e-16)
(30.9021 -2.47335 1.34482e-15)
(31.091 -2.398 2.72702e-16)
(31.2769 -2.32395 2.25069e-15)
(31.4599 -2.25138 -2.66916e-16)
(31.6401 -2.18063 -2.76089e-15)
(31.8169 -2.11172 6.97744e-16)
(31.9898 -2.04455 -6.51312e-16)
(32.1585 -1.97916 3.47383e-16)
(32.3229 -1.91562 -2.91487e-16)
(32.4828 -1.85399 -7.59167e-16)
(32.638 -1.79418 2.47827e-15)
(32.7886 -1.73616 -2.07999e-15)
(32.9343 -1.68008 1.83034e-15)
(33.0756 -1.6257 2.93404e-16)
(33.2122 -1.57301 1.07906e-15)
(33.3445 -1.52194 -1.46733e-15)
(33.4725 -1.47241 -5.30305e-16)
(33.5963 -1.42471 -1.10408e-15)
(33.716 -1.37861 2.04947e-15)
(33.8319 -1.33402 -1.80771e-15)
(33.9441 -1.29089 -7.39669e-16)
(34.0527 -1.24921 1.6997e-15)
(34.158 -1.20899 4.95759e-16)
(34.2599 -1.17014 4.16068e-16)
(34.3594 -1.13287 -1.60168e-16)
(34.4558 -1.09701 -1.31528e-16)
(34.5498 -1.06265 -9.40346e-16)
(34.6408 -1.02977 -2.06022e-15)
(34.7293 -0.998089 3.86296e-15)
(34.8149 -0.967735 -2.63166e-15)
(34.8977 -0.938191 -1.16188e-15)
(34.9784 -0.909863 1.95332e-15)
(35.0563 -0.882976 -1.27915e-15)
(35.1315 -0.856938 1.54088e-15)
(35.204 -0.83192 -1.39965e-16)
(35.2738 -0.8082 4.87768e-17)
(35.3406 -0.7853 -1.3206e-15)
(35.4039 -0.762634 3.02357e-16)
(35.4652 -0.74048 -6.31258e-16)
(35.5239 -0.719207 4.14305e-16)
(35.5804 -0.698793 2.56589e-16)
(35.6354 -0.679274 -3.99336e-16)
(35.689 -0.660642 6.49012e-16)
(35.7411 -0.642837 -1.18299e-16)
(35.792 -0.625816 8.87388e-16)
(35.8417 -0.609546 2.78382e-16)
(35.8904 -0.593994 7.40423e-18)
(35.938 -0.579126 -2.77064e-17)
(35.9847 -0.564906 -8.43708e-16)
(36.0304 -0.551297 1.87988e-16)
(36.0753 -0.538268 -8.58567e-17)
(36.1194 -0.525791 -3.71349e-16)
(36.1627 -0.513847 -2.79197e-16)
(36.2052 -0.502418 4.77337e-16)
(36.2471 -0.491485 -7.54728e-16)
(36.2882 -0.481026 -1.51364e-16)
(36.3287 -0.471017 8.22508e-16)
(36.3686 -0.461446 -6.50305e-17)
(36.4079 -0.452297 -5.80232e-16)
(36.4467 -0.443547 -5.7404e-16)
(36.4849 -0.435174 1.43059e-15)
(36.5227 -0.427158 -4.43303e-16)
(36.5601 -0.419483 -8.41104e-18)
(36.597 -0.412136 -8.46367e-17)
(36.6335 -0.405105 -2.29279e-16)
(36.6697 -0.39838 3.28139e-16)
(36.7055 -0.391943 -4.03911e-16)
(36.7411 -0.385783 4.0444e-16)
(36.7763 -0.379875 -5.53784e-17)
(36.8112 -0.374207 3.30451e-16)
(36.8459 -0.368752 -5.93632e-16)
(36.8803 -0.363492 3.62969e-18)
(36.9145 -0.358404 3.61508e-17)
(36.9485 -0.35346 -5.18854e-17)
(36.9824 -0.348567 -8.84694e-17)
(37.0161 -0.343685 -1.66133e-16)
(37.0496 -0.338688 1.94527e-16)
(37.0831 -0.333477 -2.0396e-17)
(37.1164 -0.327845 5.77358e-17)
(37.1497 -0.321409 -1.19805e-16)
(37.1832 -0.313882 -4.91058e-17)
(37.224 -0.305494 4.26392e-18)
(36.8851 -3.63403 -1.06996e-15)
(36.578 -3.6167 2.9508e-16)
(36.2425 -3.64863 -4.68229e-15)
(36.0638 -3.63957 2.2418e-15)
(35.981 -3.60342 3.9142e-15)
(35.9364 -3.5574 2.13881e-15)
(35.9168 -3.5043 -5.35509e-16)
(35.9213 -3.44461 -8.45188e-15)
(35.9474 -3.37973 1.88549e-16)
(35.9903 -3.31066 5.49611e-15)
(36.0454 -3.2384 -2.77085e-16)
(36.109 -3.16365 -1.60864e-16)
(36.1792 -3.08695 4.32669e-15)
(36.2536 -3.00871 -9.07667e-16)
(36.3313 -2.9296 -5.19428e-16)
(36.4113 -2.84988 -6.9314e-16)
(36.493 -2.76995 -1.62615e-15)
(36.5755 -2.69022 -2.32865e-15)
(36.6584 -2.61089 -9.90236e-16)
(36.7412 -2.53265 6.22367e-15)
(36.8235 -2.45572 7.67377e-16)
(36.9049 -2.38005 -4.6314e-15)
(36.9848 -2.30598 -1.47187e-15)
(37.0624 -2.2337 -3.57672e-15)
(37.1375 -2.16313 6.19028e-15)
(37.21 -2.09435 -2.53513e-15)
(37.2799 -2.02746 2.29798e-15)
(37.3471 -1.96246 1.33923e-15)
(37.4116 -1.89934 -3.10997e-15)
(37.4735 -1.83804 1.23314e-15)
(37.5326 -1.77863 1.84772e-16)
(37.5894 -1.72119 -1.17898e-15)
(37.6434 -1.66567 2.65733e-15)
(37.6954 -1.612 -3.10513e-15)
(37.7447 -1.56005 5.11926e-16)
(37.792 -1.50987 7.21035e-16)
(37.837 -1.46143 -1.17493e-16)
(37.8804 -1.41466 7.78957e-16)
(37.9218 -1.3697 -1.06779e-15)
(37.9626 -1.32633 1.14811e-15)
(38.0016 -1.28467 -1.51577e-15)
(38.0402 -1.24435 1.64376e-15)
(38.078 -1.2053 -1.46603e-15)
(38.114 -1.1677 7.84255e-16)
(38.1501 -1.13144 1.14414e-15)
(38.1837 -1.09647 5.35516e-16)
(38.2168 -1.06287 -1.15125e-15)
(38.2486 -1.03054 1.3222e-15)
(38.2782 -0.998672 -2.41178e-15)
(38.3079 -0.968236 1.46993e-15)
(38.3361 -0.939299 -4.26079e-16)
(38.3621 -0.910957 2.31938e-16)
(38.3873 -0.883612 -1.28795e-15)
(38.4109 -0.857417 2.69406e-15)
(38.4312 -0.832449 -1.35227e-15)
(38.4492 -0.807642 -2.16854e-15)
(38.4663 -0.783452 1.6331e-15)
(38.4825 -0.761067 -5.19434e-17)
(38.4983 -0.739546 -1.15188e-15)
(38.5139 -0.71876 -1.11132e-15)
(38.5291 -0.699044 3.05829e-15)
(38.544 -0.680287 -1.96405e-15)
(38.5586 -0.662368 1.9607e-15)
(38.573 -0.645221 -9.88417e-16)
(38.5872 -0.628825 9.63081e-17)
(38.6011 -0.613171 4.39869e-16)
(38.6149 -0.598231 -1.15717e-15)
(38.6284 -0.58397 -1.42422e-16)
(38.6418 -0.570353 8.78377e-16)
(38.6551 -0.55734 -6.17571e-16)
(38.6683 -0.544901 5.18119e-16)
(38.6813 -0.533003 5.68048e-17)
(38.6942 -0.521628 -6.90965e-16)
(38.707 -0.510747 -7.84997e-17)
(38.7198 -0.500335 1.36041e-15)
(38.7325 -0.490388 -5.0417e-16)
(38.7452 -0.48089 -3.46066e-16)
(38.7578 -0.471816 4.93445e-16)
(38.7704 -0.463139 -2.46299e-16)
(38.7831 -0.45484 3.93147e-16)
(38.7957 -0.446899 4.06921e-16)
(38.8083 -0.439303 -1.1027e-15)
(38.821 -0.432036 9.91309e-17)
(38.8337 -0.425091 4.36281e-16)
(38.8464 -0.418446 -7.05171e-16)
(38.8593 -0.412091 8.88706e-16)
(38.8722 -0.406001 -3.22255e-16)
(38.8852 -0.400165 -4.65873e-16)
(38.8983 -0.394558 7.66756e-17)
(38.9116 -0.389157 5.26931e-17)
(38.9251 -0.383931 1.04949e-16)
(38.9387 -0.37887 -1.27112e-16)
(38.9524 -0.373897 8.65076e-17)
(38.9665 -0.368975 4.16619e-18)
(38.9808 -0.363974 5.75762e-17)
(38.9955 -0.358805 -2.03426e-17)
(39.0106 -0.353234 3.54508e-17)
(39.0263 -0.346902 -2.66562e-17)
(39.0427 -0.339453 -4.7087e-17)
(39.0636 -0.331038 -4.03796e-17)
(42.71 -3.2954 1.78068e-15)
(42.3372 -3.39584 -2.67678e-15)
(41.9108 -3.49508 4.40149e-15)
(41.6186 -3.52768 -3.03659e-15)
(41.4277 -3.52749 -4.893e-15)
(41.2885 -3.5148 4.1898e-15)
(41.1828 -3.49171 1.81126e-15)
(41.1063 -3.45753 5.32214e-17)
(41.0566 -3.41339 -7.51904e-17)
(41.0291 -3.36106 2.82818e-15)
(41.0196 -3.30196 -2.891e-15)
(41.0248 -3.23728 -1.92455e-15)
(41.0419 -3.16825 -4.41404e-15)
(41.0688 -3.09574 3.41841e-15)
(41.1036 -3.02055 -5.42132e-16)
(41.1446 -2.94348 -1.33261e-15)
(41.1901 -2.86514 5.45555e-16)
(41.2389 -2.78628 6.8024e-15)
(41.29 -2.7073 -6.24145e-15)
(41.3422 -2.62869 -1.13806e-15)
(41.395 -2.55069 2.17446e-15)
(41.447 -2.47333 6.39531e-16)