/*--------------------------------*- C++ -*----------------------------------*\
  =========                 |
  \\      /  F ield         | OpenFOAM: The Open Source CFD Toolbox
   \\    /   O peration     | Website:  https://openfoam.org
    \\  /    A nd           | Version:  8
     \\/     M anipulation  |
\*---------------------------------------------------------------------------*/
FoamFile
{
    version     2.0;
    format      ascii;
    class       volScalarField;
    location    "4.0000146318";
    object      alphat;
}
// * * * * * * * * * * * * * * * * * * * * * * * * * * * * * * * * * * * * * //

dimensions      [1 -1 -1 0 0 0 0];

internalField   nonuniform List<scalar> 
6800
(
0.0059159
0.0138589
0.0203859
0.0212915
0.0237954
0.0272661
0.0277105
0.0220658
0.0128075
0.00961805
0.0054748
0.0149682
0.0208063
0.0225441
0.0257825
0.028016
0.0192462
0.0115412
0.00829661
0.00752032
0.0069893
0.0176461
0.0215228
0.0233522
0.0272994
0.0193179
0.0114826
0.00859597
0.00755382
0.00669986
0.00769396
0.0197183
0.022856
0.0252566
0.0223363
0.0131657
0.00967023
0.00755941
0.00671904
0.00631831
0.0082992
0.0210349
0.0234342
0.0250154
0.0155024
0.0102643
0.0076102
0.00722062
0.00670411
0.00600469
0.00883455
0.0224327
0.0250024
0.0218658
0.0126813
0.00895772
0.00839386
0.00715661
0.00586545
0.00546049
0.00925231
0.0239889
0.0260727
0.017378
0.0102001
0.00861499
0.00705975
0.00603568
0.00561551
0.00533806
0.0097199
0.0270091
0.0268112
0.0131318
0.0104444
0.00847915
0.00730354
0.00643594
0.00562441
0.00514775
0.010038
0.0292892
0.0235758
0.0125547
0.00983795
0.00761141
0.00630033
0.00553084
0.00507373
0.0048529
0.0105258
0.0347688
0.0234227
0.011796
0.0101076
0.00740423
0.00661527
0.00580985
0.00530353
0.0049522
0.0339637
0.145468
0.200303
0.215144
0.219664
0.220246
0.222604
0.226081
0.229868
0.231527
0.0325614
0.140107
0.193641
0.209008
0.211485
0.210226
0.210413
0.211842
0.213585
0.215032
0.0300538
0.128786
0.180077
0.196544
0.19721
0.194648
0.193022
0.191493
0.189545
0.18948
0.0270879
0.115918
0.163898
0.179391
0.178346
0.174947
0.169261
0.165554
0.158601
0.150124
0.0239882
0.103156
0.147168
0.156128
0.152105
0.144916
0.13711
0.127745
0.113292
0.0920818
0.0213328
0.0921048
0.124656
0.124583
0.115933
0.106779
0.0949167
0.0703653
0.0592136
0.0424595
0.0190222
0.0777315
0.0960047
0.0864816
0.0761421
0.0551038
0.0416269
0.0355365
0.0352667
0.0304651
0.0179565
0.0608315
0.055216
0.046254
0.0323433
0.0298465
0.0310041
0.03014
0.0299366
0.0269541
0.0153585
0.0309333
0.0255107
0.0244012
0.0248392
0.0262786
0.0288351
0.0287021
0.0277173
0.023032
0.0108561
0.0170204
0.0190899
0.0217627
0.0233544
0.0257909
0.0288386
0.0268233
0.024458
0.0147478
0.232745
0.233134
0.231555
0.22954
0.227611
0.225919
0.224486
0.223328
0.222425
0.221735
0.221217
0.220834
0.22053
0.220294
0.220134
0.220008
0.219923
0.219932
0.22001
0.220144
0.220314
0.220495
0.220664
0.220806
0.220911
0.220973
0.220992
0.220971
0.220912
0.22082
0.220705
0.220574
0.220434
0.220291
0.22015
0.220013
0.219883
0.219759
0.21964
0.219526
0.219418
0.219314
0.219211
0.219108
0.219003
0.218893
0.218778
0.218658
0.218532
0.218402
0.218268
0.218131
0.217993
0.217855
0.217718
0.217583
0.217451
0.21732
0.217193
0.21707
0.216949
0.216831
0.216717
0.216606
0.216499
0.216396
0.216298
0.216204
0.216116
0.216034
0.215958
0.215887
0.215822
0.215761
0.215704
0.215648
0.215592
0.215533
0.215469
0.215396
0.215313
0.215216
0.215105
0.214978
0.214835
0.214679
0.214507
0.21433
0.214136
0.213951
0.213745
0.21357
0.213358
0.213216
0.213
0.212909
0.212714
0.212649
0.212484
0.212545
0.216425
0.216885
0.215943
0.21445
0.212985
0.211748
0.21079
0.210099
0.209628
0.209343
0.2092
0.20917
0.209164
0.209197
0.209295
0.209429
0.209627
0.209918
0.210281
0.210691
0.21112
0.211538
0.211923
0.212263
0.212551
0.212785
0.212967
0.2131
0.213189
0.21324
0.21327
0.213284
0.213289
0.213289
0.213287
0.213286
0.213287
0.21329
0.213295
0.213302
0.213317
0.213333
0.213346
0.213353
0.213353
0.213345
0.213327
0.2133
0.213264
0.213221
0.213171
0.213117
0.213059
0.212999
0.212938
0.212876
0.212813
0.21275
0.212689
0.212629
0.21257
0.212513
0.212458
0.212406
0.212358
0.212315
0.212276
0.212244
0.212218
0.212199
0.212187
0.21218
0.212179
0.212182
0.212188
0.212194
0.212199
0.212197
0.212188
0.212167
0.212132
0.212081
0.212011
0.211923
0.211815
0.211692
0.211551
0.211403
0.211237
0.211079
0.210898
0.210751
0.210562
0.210447
0.210255
0.210196
0.210014
0.209968
0.210034
0.209792
0.19302
0.192354
0.191136
0.189579
0.188235
0.18728
0.186714
0.186468
0.186437
0.186598
0.186891
0.18729
0.18779
0.188388
0.189108
0.189904
0.190814
0.191848
0.192927
0.194023
0.195079
0.196061
0.196954
0.197752
0.198462
0.199085
0.199633
0.200109
0.200525
0.200893
0.201247
0.201579
0.201888
0.202178
0.202453
0.202716
0.202967
0.203208
0.203441
0.203664
0.203871
0.204063
0.20424
0.204402
0.204549
0.204679
0.204794
0.204895
0.204983
0.20506
0.205127
0.205188
0.205241
0.205294
0.205336
0.205373
0.205407
0.205439
0.205473
0.205502
0.20553
0.205558
0.205588
0.205623
0.205661
0.205706
0.205755
0.205813
0.205878
0.205952
0.206033
0.20612
0.206214
0.206312
0.206413
0.206513
0.206611
0.2067
0.206778
0.206841
0.206884
0.206906
0.206905
0.206882
0.206836
0.206773
0.206688
0.206597
0.206484
0.206382
0.206251
0.206157
0.206014
0.20595
0.205797
0.205783
0.205646
0.205631
0.205768
0.205531
0.151992
0.152957
0.154374
0.154916
0.15557
0.156503
0.157652
0.158916
0.160236
0.161612
0.162969
0.164354
0.16568
0.167039
0.168422
0.169682
0.170994
0.1725
0.173934
0.175582
0.177161
0.178595
0.179876
0.181015
0.182031
0.182939
0.183754
0.184483
0.185151
0.185739
0.186245
0.1867
0.187122
0.187525
0.187914
0.188296
0.188673
0.189046
0.189417
0.189784
0.190144
0.190494
0.190829
0.191148
0.191449
0.191733
0.192
0.192252
0.19249
0.192717
0.192935
0.193146
0.193352
0.193553
0.193757
0.193963
0.194169
0.194377
0.194581
0.194794
0.195014
0.195238
0.195465
0.195694
0.195925
0.196159
0.196396
0.196643
0.196897
0.197158
0.197424
0.197693
0.197965
0.198237
0.198509
0.198776
0.199035
0.199278
0.199501
0.199699
0.199869
0.200009
0.200116
0.200194
0.200238
0.200261
0.200253
0.200237
0.200191
0.200156
0.200084
0.20005
0.199958
0.19995
0.199841
0.199878
0.199782
0.199819
0.200005
0.19986
0.0911451
0.0923283
0.094042
0.0961261
0.0986646
0.101882
0.105203
0.108296
0.11121
0.114083
0.116759
0.119443
0.12199
0.124608
0.127266
0.129509
0.131964
0.135025
0.136883
0.14021
0.142892
0.145215
0.147282
0.149152
0.150871
0.152459
0.153937
0.15531
0.156597
0.157807
0.158988
0.160128
0.161231
0.162305
0.163347
0.164368
0.165358
0.166327
0.167278
0.168206
0.169109
0.169976
0.170805
0.171594
0.172342
0.17305
0.173723
0.174364
0.174977
0.175567
0.176138
0.176692
0.177233
0.177761
0.178279
0.178788
0.179288
0.17978
0.180264
0.180738
0.181203
0.181661
0.182115
0.182565
0.183012
0.183456
0.183899
0.184332
0.18476
0.185182
0.185604
0.186037
0.186483
0.186933
0.187386
0.187832
0.188266
0.188679
0.189066
0.18942
0.189736
0.190015
0.190255
0.190459
0.190629
0.190777
0.190893
0.191005
0.191086
0.191181
0.19123
0.191318
0.191333
0.19143
0.191414
0.191546
0.191533
0.191658
0.191905
0.191895
0.0432214
0.0448264
0.0465613
0.0482947
0.0499899
0.0522775
0.0543413
0.0565468
0.0588755
0.0616988
0.0645295
0.0675667
0.0706325
0.0745535
0.0781753
0.0818869
0.0855577
0.0892299
0.0920871
0.0950495
0.0979873
0.100796
0.103436
0.105922
0.108295
0.110556
0.112728
0.114789
0.116786
0.118647
0.120585
0.122419
0.124188
0.125937
0.127649
0.129357
0.131024
0.132677
0.134303
0.135889
0.137425
0.138893
0.140309
0.141665
0.142957
0.144196
0.145389
0.146542
0.147661
0.148752
0.149818
0.150862
0.151886
0.152893
0.153881
0.154852
0.155805
0.15674
0.157659
0.15856
0.159442
0.16031
0.161158
0.161994
0.162808
0.163615
0.164417
0.165214
0.166007
0.166783
0.16752
0.168301
0.169141
0.16998
0.170806
0.17161
0.172385
0.173123
0.173818
0.174463
0.175057
0.1756
0.176096
0.176541
0.176944
0.177323
0.177665
0.178004
0.178299
0.178602
0.178836
0.179101
0.179266
0.179511
0.179618
0.179875
0.179968
0.180218
0.180528
0.180808
0.0307355
0.0308506
0.030903
0.0309316
0.0310605
0.0312665
0.0316916
0.0320938
0.0328173
0.0336515
0.0341262
0.0351388
0.0365382
0.0382929
0.040042
0.0418612
0.043658
0.0455251
0.0475908
0.0498603
0.0520891
0.0541502
0.0562188
0.0583471
0.0605544
0.0627837
0.06505
0.0672928
0.0695234
0.0717201
0.0739417
0.0761905
0.0784766
0.0807939
0.0831093
0.0854467
0.0877351
0.0900539
0.0922621
0.0943646
0.0963739
0.0982786
0.10026
0.10211
0.103873
0.105627
0.107366
0.109082
0.11078
0.11246
0.114123
0.115769
0.117396
0.119003
0.120589
0.122149
0.123685
0.125193
0.12667
0.128113
0.129516
0.130909
0.132206
0.133539
0.134703
0.135983
0.137221
0.138419
0.139567
0.140788
0.141665
0.142925
0.144529
0.145945
0.147266
0.148504
0.149675
0.150781
0.151826
0.152804
0.15372
0.154574
0.155381
0.156132
0.156862
0.157563
0.158251
0.158953
0.15959
0.160221
0.160757
0.161308
0.161727
0.162222
0.162549
0.163034
0.163307
0.163798
0.164165
0.164818
0.0266812
0.0261421
0.0254932
0.0248469
0.0242395
0.0237059
0.0232765
0.0229981
0.0228731
0.022835
0.0227967
0.0228657
0.0228633
0.0228206
0.0228506
0.0229602
0.0231874
0.0233971
0.0236473
0.0238099
0.0242518
0.0243675
0.0247549
0.0251696
0.0257844
0.0264557
0.0272596
0.0280742
0.028935
0.0298387
0.030883
0.0320176
0.0332871
0.0346508
0.036154
0.0377283
0.0394405
0.0411511
0.0430481
0.0450535
0.0472341
0.0494525
0.0517319
0.0540182
0.0563303
0.0586363
0.0609581
0.0632758
0.0655963
0.0679103
0.0702152
0.0725052
0.0747776
0.0770205
0.0792434
0.0814185
0.0835811
0.0856725
0.0876823
0.0896181
0.0914835
0.093341
0.0951545
0.0969686
0.0987836
0.100548
0.102361
0.104098
0.105836
0.107732
0.109467
0.111409
0.113196
0.114964
0.116724
0.118343
0.119925
0.121452
0.122929
0.124335
0.125683
0.126969
0.128212
0.129332
0.13073
0.131925
0.133106
0.134259
0.135213
0.136113
0.136904
0.137713
0.138353
0.139085
0.139639
0.140373
0.140793
0.141671
0.141838
0.143295
0.0222487
0.0213019
0.0204202
0.0196073
0.0187847
0.0180073
0.0172989
0.0166827
0.0161591
0.0157229
0.0153818
0.0151023
0.014869
0.0147184
0.0144631
0.014225
0.0138614
0.0135068
0.013211
0.0129447
0.0127268
0.0125229
0.0123561
0.0122151
0.0121123
0.012039
0.012003
0.0120131
0.0120338
0.0121062
0.0122717
0.0124049
0.0125357
0.0127375
0.0130662
0.0134315
0.013843
0.0143012
0.0148253
0.015374
0.0160234
0.0167026
0.0175106
0.0183533
0.019328
0.0203508
0.0214838
0.0226945
0.0239924
0.0253912
0.0268642
0.0284375
0.030085
0.0318124
0.0336168
0.0354808
0.0374069
0.0393965
0.0415017
0.0436927
0.045945
0.0482482
0.0505526
0.0529061
0.0552697
0.0576442
0.0600535
0.062436
0.0648508
0.0672241
0.0696186
0.0719845
0.0743203
0.0766052
0.07883
0.0809334
0.0829377
0.0848082
0.086641
0.0883301
0.0900631
0.091645
0.0932915
0.0948441
0.0964393
0.0980063
0.0995918
0.101029
0.102423
0.103912
0.105025
0.106308
0.107472
0.108753
0.109868
0.111158
0.112255
0.11366
0.114373
0.116601
0.0141008
0.0133751
0.0124902
0.0115841
0.0108151
0.0101697
0.00963324
0.00919335
0.00883861
0.00856088
0.00834829
0.00819489
0.00808999
0.00802729
0.00798799
0.00796196
0.0079335
0.00789646
0.00785105
0.00779654
0.00773399
0.00766512
0.00759326
0.00752119
0.00745104
0.0073833
0.00732818
0.0072736
0.00722713
0.00719011
0.00716079
0.00713477
0.00710821
0.00709897
0.00708786
0.00710522
0.00711283
0.0071314
0.00719061
0.0071923
0.00724075
0.00730049
0.00740083
0.00748742
0.00762017
0.00773038
0.00787484
0.00804142
0.00823073
0.00846222
0.00872561
0.00901785
0.00938604
0.00973631
0.0102254
0.0106485
0.0112554
0.01178
0.0124904
0.0131629
0.013977
0.0148515
0.0157892
0.0168848
0.018022
0.0193097
0.0207383
0.0221916
0.023934
0.0255751
0.0275473
0.0294329
0.0315174
0.0336221
0.0357458
0.0379632
0.0402211
0.0424405
0.0448775
0.0469617
0.0495563
0.0516037
0.0541783
0.0563373
0.0588988
0.0610601
0.063677
0.0657676
0.0681922
0.0703258
0.0723606
0.0743404
0.0762085
0.0777749
0.0791835
0.0809081
0.0824804
0.0843145
0.0850463
0.0866812
0.00765202
0.00768022
0.00759024
0.00746227
0.00730642
0.00713953
0.00697467
0.00682175
0.00668677
0.00657178
0.00647743
0.00640147
0.00634195
0.00629522
0.00625835
0.00622777
0.00620095
0.00617544
0.00614947
0.00612244
0.0060934
0.00606332
0.0060317
0.00599997
0.00596801
0.0059367
0.00590663
0.00587734
0.00585005
0.00582361
0.00579885
0.00577568
0.00575282
0.0057324
0.00571158
0.00569351
0.0056748
0.00565859
0.00564174
0.00562696
0.0056108
0.00560024
0.00558687
0.00558209
0.00557108
0.00557258
0.00556347
0.00557032
0.00556623
0.00557864
0.0055799
0.00560938
0.00562266
0.00563318
0.00567239
0.00569057
0.00574345
0.00577324
0.00584446
0.00588078
0.00598653
0.00604261
0.00617083
0.00627492
0.00643742
0.00661216
0.00687135
0.00709526
0.00751029
0.0077996
0.00838954
0.00881017
0.00953032
0.0101125
0.0108848
0.0116827
0.012504
0.0134746
0.0144985
0.0154958
0.0168678
0.0179083
0.0195411
0.0207253
0.022616
0.0238625
0.0260374
0.0273148
0.0295841
0.0310241
0.0329481
0.0348046
0.0366234
0.0380207
0.0398039
0.041543
0.041997
0.0443434
0.0451789
0.0486841
0.00628461
0.00625275
0.00620415
0.00613232
0.00604876
0.0059588
0.00586823
0.00578349
0.0057087
0.00564476
0.00559276
0.00555115
0.0055194
0.00549482
0.00547634
0.00546134
0.00544904
0.00543759
0.00542666
0.0054153
0.00540357
0.00539121
0.00537839
0.00536515
0.00535164
0.00533796
0.00532409
0.00531002
0.0052958
0.0052813
0.0052665
0.00525145
0.00523602
0.00522075
0.00520485
0.00518979
0.00517362
0.00515937
0.00514272
0.00513001
0.00511236
0.00510222
0.00508409
0.00507703
0.00505965
0.00505505
0.00503964
0.00503586
0.00502324
0.00501892
0.0050096
0.0050063
0.00500047
0.00499805
0.00499553
0.00499368
0.00499534
0.00499402
0.00499848
0.00500287
0.00500118
0.00501675
0.00501091
0.00501484
0.00505658
0.0050572
0.00506462
0.00501756
0.00505833
0.00511668
0.00510288
0.00529099
0.00529534
0.00520681
0.00506455
0.00503258
0.00507928
0.00514766
0.00524847
0.00542155
0.00557966
0.00580467
0.00612614
0.00631655
0.00687988
0.00709869
0.00769274
0.00810285
0.0088159
0.00899833
0.00990449
0.0105628
0.0111467
0.0119608
0.0128837
0.0133645
0.0134689
0.0144196
0.0153409
0.01638
0.00559405
0.0055824
0.00556802
0.00555141
0.00553572
0.00552218
0.00551223
0.00550237
0.00549275
0.00548245
0.00547182
0.00545937
0.00544526
0.00542828
0.00540906
0.00538706
0.00536348
0.00533815
0.00531238
0.005286
0.00526002
0.0052341
0.00520888
0.00518398
0.00515967
0.00513578
0.00511237
0.00508945
0.00506696
0.00504513
0.00502381
0.00500331
0.00498348
0.00496459
0.00494646
0.00492935
0.00491297
0.00489762
0.0048829
0.00486913
0.00485586
0.00484345
0.00483131
0.00482001
0.00480868
0.0047983
0.00478758
0.00477794
0.0047678
0.00475878
0.00474928
0.00474078
0.00473195
0.00472396
0.00471586
0.00470836
0.00470099
0.00469392
0.00468725
0.00468059
0.00467447
0.00466802
0.00466282
0.00465576
0.00465214
0.00464456
0.00464229
0.00463408
0.00463087
0.00462457
0.00461967
0.0046166
0.00461154
0.00460252
0.00460087
0.004592
0.00459425
0.00459919
0.00458521
0.00458238
0.00459837
0.00461791
0.00464894
0.00467142
0.00471229
0.0047588
0.00478288
0.00485498
0.00488996
0.00494877
0.00496616
0.00508409
0.00509912
0.005205
0.00528595
0.00536297
0.00541929
0.00546894
0.00564392
0.00570343
0.00519878
0.00518571
0.00516971
0.00515029
0.00512923
0.00510631
0.00508271
0.00505794
0.00503344
0.00500872
0.00498533
0.00496268
0.00494218
0.00492289
0.00490593
0.00488998
0.00487589
0.00486208
0.00484929
0.00483588
0.00482269
0.00480819
0.0047935
0.00477727
0.00476094
0.00474327
0.00472595
0.00470773
0.00469043
0.00467267
0.00465629
0.00463978
0.00462491
0.00461004
0.00459689
0.00458374
0.00457224
0.00456064
0.00455054
0.00454021
0.00453123
0.00452186
0.0045137
0.00450504
0.00449748
0.00448933
0.00448223
0.00447454
0.00446786
0.00446062
0.00445439
0.00444763
0.00444192
0.00443568
0.00443055
0.00442486
0.0044203
0.00441522
0.00441118
0.00440663
0.00440318
0.00439899
0.00439606
0.00439226
0.00438973
0.00438638
0.00438426
0.00438138
0.00437972
0.00437678
0.00437499
0.00437072
0.00436644
0.00436144
0.0043545
0.00434925
0.0043408
0.00433518
0.00432992
0.00432431
0.00431633
0.00431187
0.00430347
0.00430385
0.00430438
0.0043068
0.00431018
0.00432654
0.00432454
0.00432899
0.00433654
0.00434638
0.00435863
0.0043563
0.00437965
0.00436781
0.00438872
0.0043898
0.00436215
0.00437537
0.0048821
0.00488047
0.00487528
0.00486734
0.00485787
0.00484654
0.00483428
0.00482037
0.00480575
0.00478967
0.00477317
0.0047554
0.00473751
0.00471853
0.00469971
0.00468
0.00466078
0.00464093
0.00462196
0.00460263
0.00458453
0.00456631
0.00454956
0.00453279
0.00451759
0.00450232
0.00448863
0.00447476
0.0044624
0.00444971
0.00443848
0.00442677
0.00441649
0.00440561
0.00439613
0.00438595
0.00437718
0.00436762
0.00435949
0.0043505
0.00434299
0.00433455
0.00432765
0.00431976
0.00431346
0.0043061
0.00430037
0.00429351
0.00428831
0.00428191
0.00427717
0.00427114
0.00426678
0.00426107
0.00425702
0.00425157
0.00424777
0.00424255
0.00423899
0.00423398
0.00423066
0.00422587
0.00422278
0.00421822
0.00421539
0.00421107
0.00420848
0.0042044
0.00420204
0.00419818
0.00419602
0.00419233
0.00419027
0.00418674
0.00418472
0.00418132
0.00417938
0.00417604
0.0041742
0.00417097
0.00416917
0.00416606
0.00416436
0.00416133
0.00416022
0.00415722
0.00415666
0.00415378
0.00415385
0.00415043
0.00415073
0.00414718
0.00414754
0.00414412
0.00414385
0.00414109
0.00413893
0.00413651
0.00414638
0.00412492
0.00461321
0.00461198
0.00460766
0.00460046
0.00459178
0.00458133
0.00457022
0.00455777
0.00454504
0.00453132
0.00451777
0.00450359
0.00448997
0.00447599
0.0044628
0.00444928
0.00443659
0.00442346
0.00441111
0.00439818
0.00438605
0.00437331
0.00436149
0.00434912
0.00433788
0.00432618
0.00431577
0.00430494
0.0042955
0.00428558
0.00427706
0.00426795
0.0042602
0.00425172
0.00424457
0.00423655
0.00422985
0.00422217
0.00421583
0.00420844
0.00420245
0.00419534
0.00418972
0.00418292
0.0041777
0.00417123
0.00416644
0.00416031
0.00415595
0.00415016
0.00414619
0.00414072
0.00413711
0.00413191
0.00412862
0.00412367
0.00412062
0.0041159
0.00411307
0.00410855
0.00410592
0.0041016
0.00409914
0.004095
0.00409272
0.00408874
0.00408663
0.00408281
0.00408085
0.00407716
0.00407532
0.00407173
0.00406995
0.00406643
0.00406467
0.00406119
0.00405942
0.00405595
0.00405414
0.00405068
0.00404887
0.00404542
0.00404363
0.00404027
0.00403865
0.0040354
0.00403408
0.00403094
0.00403004
0.00402674
0.0040261
0.00402282
0.00402195
0.00401887
0.0040175
0.00401498
0.0040148
0.00401254
0.00399919
0.00401669
0.00441404
0.00441502
0.00441396
0.00441031
0.00440525
0.00439841
0.00439081
0.00438184
0.00437251
0.0043621
0.00435169
0.00434044
0.00432948
0.00431787
0.00430676
0.00429513
0.00428419
0.00427281
0.00426229
0.00425136
0.00424141
0.00423106
0.00422176
0.00421201
0.00420335
0.00419417
0.00418611
0.00417744
0.00416993
0.00416173
0.00415472
0.00414696
0.00414043
0.00413308
0.00412702
0.00412006
0.00411444
0.00410785
0.00410264
0.00409639
0.00409156
0.00408562
0.00408115
0.00407548
0.00407134
0.00406591
0.00406206
0.00405685
0.00405328
0.00404827
0.00404495
0.00404012
0.00403704
0.00403237
0.00402951
0.00402501
0.00402236
0.00401801
0.00401556
0.00401136
0.0040091
0.00400505
0.00400296
0.00399904
0.00399711
0.00399331
0.00399153
0.00398785
0.00398621
0.00398262
0.00398109
0.00397759
0.00397617
0.00397274
0.00397139
0.00396804
0.00396676
0.00396347
0.00396223
0.00395901
0.00395781
0.00395464
0.00395346
0.00395035
0.00394919
0.00394613
0.00394501
0.00394198
0.00394092
0.00393791
0.00393689
0.00393391
0.00393291
0.00392998
0.00392897
0.00392624
0.00392513
0.00392263
0.00392089
0.00391819
0.00426512
0.00426692
0.00426702
0.00426475
0.00426126
0.00425617
0.00425052
0.00424366
0.0042366
0.00422858
0.00422065
0.00421194
0.00420354
0.0041945
0.00418597
0.00417686
0.0041684
0.00415941
0.00415117
0.00414241
0.00413449
0.00412606
0.00411855
0.0041105
0.00410345
0.00409582
0.00408924
0.00408202
0.00407589
0.00406906
0.00406335
0.00405686
0.00405153
0.00404534
0.00404036
0.00403444
0.00402976
0.00402409
0.00401971
0.00401426
0.00401016
0.00400492
0.00400109
0.00399605
0.00399248
0.00398764
0.00398432
0.00397965
0.00397657
0.00397208
0.00396923
0.0039649
0.00396227
0.00395808
0.00395565
0.00395161
0.00394936
0.00394544
0.00394336
0.00393954
0.00393761
0.00393387
0.00393208
0.00392842
0.00392673
0.00392314
0.00392155
0.00391802
0.00391652
0.00391304
0.00391162
0.00390818
0.00390684
0.00390345
0.00390217
0.00389882
0.00389759
0.00389429
0.00389312
0.00388986
0.00388872
0.00388552
0.00388441
0.00388127
0.00388019
0.0038771
0.00387605
0.00387301
0.003872
0.00386901
0.00386804
0.00386508
0.00386416
0.00386123
0.00386033
0.00385757
0.00385657
0.00385402
0.00385254
0.00384975
0.00415381
0.00415627
0.00415744
0.00415653
0.00415459
0.00415113
0.00414716
0.00414199
0.00413663
0.0041303
0.00412405
0.00411701
0.00411026
0.00410284
0.00409589
0.00408833
0.00408138
0.00407388
0.00406709
0.00405975
0.00405321
0.00404611
0.00403988
0.00403306
0.00402717
0.00402065
0.00401509
0.00400887
0.00400366
0.00399772
0.00399283
0.00398717
0.0039826
0.00397719
0.00397291
0.00396773
0.00396373
0.00395876
0.00395501
0.00395024
0.00394672
0.00394212
0.00393883
0.00393437
0.00393129
0.00392698
0.00392409
0.0039199
0.0039172
0.00391313
0.0039106
0.00390665
0.00390428
0.00390043
0.00389822
0.00389446
0.00389239
0.00388872
0.00388679
0.0038832
0.00388139
0.00387787
0.00387618
0.00387272
0.00387114
0.00386775
0.00386627
0.00386293
0.00386154
0.00385825
0.00385694
0.0038537
0.00385246
0.00384925
0.00384808
0.00384491
0.00384379
0.00384065
0.00383958
0.00383648
0.00383544
0.00383239
0.00383138
0.00382837
0.00382739
0.00382442
0.00382347
0.00382053
0.00381962
0.00381671
0.00381584
0.00381295
0.00381209
0.00380932
0.0038084
0.00380574
0.00380477
0.00380241
0.00380142
0.00379798
0.0040692
0.00407196
0.00407363
0.00407339
0.00407228
0.00406976
0.00406683
0.00406277
0.0040586
0.00405349
0.00404852
0.00404274
0.00403729
0.00403112
0.00402544
0.00401911
0.00401337
0.00400703
0.00400139
0.00399514
0.00398968
0.00398361
0.00397838
0.00397252
0.00396755
0.00396193
0.00395723
0.00395183
0.0039474
0.00394223
0.00393805
0.0039331
0.00392917
0.00392442
0.00392072
0.00391615
0.00391267
0.00390827
0.003905
0.00390075
0.00389768
0.00389357
0.00389067
0.00388668
0.00388396
0.00388009
0.00387752
0.00387375
0.00387134
0.00386767
0.00386539
0.00386181
0.00385966
0.00385617
0.00385413
0.00385071
0.00384877
0.00384543
0.00384358
0.0038403
0.00383855
0.00383532
0.00383365
0.00383048
0.00382889
0.00382576
0.00382425
0.00382117
0.00381973
0.00381668
0.00381532
0.00381231
0.00381101
0.00380803
0.00380678
0.00380384
0.00380264
0.00379974
0.00379858
0.00379571
0.00379459
0.00379175
0.00379068
0.00378785
0.00378684
0.00378402
0.00378307
0.00378024
0.00377936
0.00377652
0.00377571
0.00377287
0.00377207
0.00376935
0.00376847
0.00376586
0.00376494
0.00376268
0.00376158
0.00375815
0.00400467
0.00400746
0.00400938
0.00400958
0.0040091
0.00400727
0.00400515
0.00400192
0.00399865
0.00399444
0.00399041
0.00398556
0.00398107
0.00397585
0.00397113
0.00396573
0.00396095
0.00395551
0.00395078
0.00394538
0.00394078
0.00393551
0.00393108
0.00392595
0.00392173
0.00391677
0.00391275
0.00390797
0.00390417
0.00389956
0.00389596
0.00389152
0.00388811
0.00388383
0.0038806
0.00387646
0.00387341
0.0038694
0.00386651
0.00386262
0.00385988
0.0038561
0.0038535
0.00384982
0.00384736
0.00384376
0.00384144
0.00383793
0.00383572
0.00383229
0.00383019
0.00382684
0.00382483
0.00382156
0.00381964
0.00381646
0.0038146
0.00381151
0.00380971
0.0038067
0.00380496
0.00380202
0.00380033
0.00379746
0.00379582
0.00379301
0.00379142
0.00378867
0.00378712
0.00378444
0.0037829
0.00378028
0.00377876
0.00377622
0.0037747
0.00377223
0.00377071
0.00376832
0.00376679
0.00376447
0.00376295
0.00376068
0.00375918
0.00375691
0.00375551
0.00375315
0.00375194
0.00374942
0.00374844
0.00374574
0.00374497
0.00374219
0.00374141
0.00373883
0.00373778
0.00373607
0.00373266
0.00373271
0.00373228
0.00372914
0.00395623
0.00395895
0.00396097
0.00396142
0.00396131
0.00395995
0.00395835
0.0039557
0.00395305
0.0039495
0.00394614
0.00394199
0.00393821
0.00393369
0.00392967
0.00392495
0.00392084
0.00391605
0.00391196
0.00390718
0.00390318
0.00389847
0.00389462
0.00389001
0.00388632
0.00388184
0.00387833
0.00387398
0.00387065
0.00386643
0.00386328
0.00385919
0.0038562
0.00385223
0.00384939
0.00384553
0.00384285
0.00383909
0.00383654
0.00383287
0.00383045
0.00382687
0.00382458
0.00382106
0.00381889
0.00381543
0.00381338
0.00380998
0.00380804
0.00380469
0.00380286
0.00379955
0.00379781
0.00379456
0.0037929
0.00378971
0.00378812
0.00378499
0.00378346
0.00378038
0.0037789
0.0037759
0.00377446
0.00377151
0.00377012
0.00376723
0.00376588
0.00376304
0.00376172
0.00375894
0.00375764
0.00375492
0.00375364
0.00375098
0.0037497
0.00374711
0.00374582
0.00374331
0.003742
0.00373957
0.00373824
0.0037359
0.00373453
0.00373227
0.00373088
0.00372866
0.00372732
0.00372506
0.00372387
0.00372148
0.0037204
0.00371814
0.00371676
0.00371484
0.0037132
0.00371196
0.00370964
0.00370964
0.00369837
0.00371435
0.0039193
0.00392186
0.00392384
0.0039244
0.0039245
0.00392345
0.00392222
0.00391999
0.00391778
0.0039147
0.00391182
0.00390815
0.00390485
0.00390083
0.00389729
0.00389307
0.00388944
0.00388513
0.0038815
0.00387719
0.00387363
0.00386936
0.00386592
0.00386172
0.00385841
0.0038543
0.00385114
0.00384712
0.00384411
0.00384019
0.00383733
0.0038335
0.00383079
0.00382705
0.00382448
0.00382082
0.00381838
0.0038148
0.00381249
0.00380898
0.00380679
0.00380334
0.00380127
0.00379787
0.00379591
0.00379256
0.00379071
0.00378739
0.00378566
0.00378237
0.00378075
0.00377748
0.00377597
0.00377271
0.0037713
0.00376806
0.00376675
0.00376352
0.00376231
0.00375909
0.00375796
0.00375476
0.00375372
0.00375051
0.00374955
0.00374635
0.00374548
0.00374227
0.00374148
0.00373827
0.00373755
0.00373434
0.00373369
0.00373047
0.0037299
0.00372666
0.00372616
0.00372291
0.00372248
0.00371921
0.00371885
0.00371557
0.00371526
0.00371197
0.00371174
0.00370841
0.00370826
0.00370488
0.00370484
0.0037014
0.00370147
0.00369797
0.00369811
0.0036945
0.00369489
0.00369167
0.00369257
0.00369017
0.00367852
0.00369351
0.00389111
0.00389349
0.00389539
0.00389597
0.00389618
0.00389529
0.00389427
0.00389228
0.00389034
0.00388755
0.00388499
0.00388165
0.00387868
0.00387499
0.00387179
0.0038679
0.0038646
0.00386062
0.0038573
0.00385331
0.00385004
0.00384607
0.0038429
0.00383899
0.00383593
0.0038321
0.00382917
0.00382542
0.00382262
0.00381896
0.00381629
0.00381271
0.00381017
0.00380666
0.00380424
0.00380081
0.00379851
0.00379514
0.00379295
0.00378964
0.00378755
0.00378429
0.00378231
0.0037791
0.00377721
0.00377404
0.00377224
0.00376911
0.0037674
0.0037643
0.00376268
0.0037596
0.00375808
0.003755
0.00375358
0.00375051
0.00374919
0.00374611
0.00374489
0.00374181
0.00374067
0.00373759
0.00373654
0.00373346
0.00373249
0.0037294
0.00372852
0.00372541
0.00372461
0.00372149
0.00372076
0.00371763
0.00371698
0.00371383
0.00371326
0.00371008
0.00370959
0.00370639
0.00370597
0.00370274
0.00370239
0.00369914
0.00369888
0.00369558
0.00369541
0.00369204
0.003692
0.00368854
0.00368864
0.00368508
0.00368532
0.00368168
0.003682
0.0036783
0.00367893
0.00367549
0.00367544
0.00367316
0.00367197
0.00366876
0.00386819
0.00387042
0.00387222
0.00387277
0.00387303
0.00387221
0.00387133
0.00386949
0.00386775
0.00386516
0.00386283
0.00385973
0.00385702
0.00385358
0.00385065
0.00384701
0.00384398
0.00384025
0.0038372
0.00383344
0.00383043
0.0038267
0.00382378
0.0038201
0.00381727
0.00381366
0.00381094
0.0038074
0.0038048
0.00380133
0.00379883
0.00379544
0.00379305
0.00378973
0.00378744
0.00378417
0.00378198
0.00377877
0.00377668
0.00377352
0.00377152
0.00376839
0.00376648
0.0037634
0.00376157
0.00375852
0.00375678
0.00375375
0.00375209
0.00374909
0.0037475
0.00374453
0.00374301
0.00374006
0.00373861
0.00373569
0.0037343
0.0037314
0.00373007
0.00372719
0.00372592
0.00372306
0.00372185
0.003719
0.00371785
0.00371501
0.00371391
0.00371109
0.00371003
0.00370722
0.00370622
0.00370343
0.00370246
0.00369968
0.00369875
0.00369599
0.0036951
0.00369236
0.00369149
0.00368876
0.00368794
0.0036852
0.00368445
0.00368165
0.00368105
0.0036781
0.00367774
0.00367455
0.00367449
0.00367105
0.00367127
0.00366764
0.00366796
0.00366453
0.0036645
0.00366167
0.00365962
0.00365757
0.00366689
0.00364628
0.00384941
0.00385149
0.00385321
0.00385374
0.00385405
0.00385332
0.00385256
0.00385088
0.00384932
0.00384693
0.00384482
0.00384194
0.00383946
0.00383626
0.00383357
0.00383017
0.00382737
0.00382387
0.00382105
0.0038175
0.00381471
0.00381117
0.00380843
0.00380492
0.00380226
0.00379879
0.00379623
0.00379281
0.00379033
0.00378696
0.00378458
0.00378126
0.00377896
0.0037757
0.00377349
0.00377027
0.00376815
0.00376497
0.00376293
0.00375979
0.00375784
0.00375473
0.00375287
0.00374978
0.00374801
0.00374493
0.00374325
0.00374019
0.0037386
0.00373555
0.00373404
0.00373101
0.00372957
0.00372657
0.00372518
0.00372222
0.00372088
0.00371795
0.00371666
0.00371377
0.00371252
0.00370967
0.00370846
0.00370564
0.00370448
0.00370168
0.00370057
0.00369779
0.00369672
0.00369396
0.00369293
0.0036902
0.00368921
0.00368649
0.00368553
0.00368285
0.00368191
0.00367925
0.00367833
0.0036757
0.00367481
0.0036722
0.00367133
0.00366874
0.00366791
0.00366529
0.00366458
0.00366183
0.00366135
0.0036584
0.00365811
0.00365515
0.00365474
0.00365205
0.00365124
0.00364909
0.00364918
0.00364715
0.00363559
0.00365119
0.0038358
0.00383769
0.00383928
0.00383974
0.00384004
0.00383934
0.00383864
0.00383704
0.00383558
0.0038333
0.00383131
0.00382854
0.00382618
0.00382308
0.00382048
0.00381717
0.00381445
0.003811
0.00380822
0.00380471
0.00380193
0.00379839
0.00379565
0.0037921
0.00378941
0.00378588
0.00378327
0.00377977
0.00377724
0.00377378
0.00377134
0.00376793
0.00376559
0.00376223
0.00375999
0.00375668
0.00375455
0.00375129
0.00374926
0.00374605
0.00374412
0.00374096
0.00373911
0.00373598
0.00373422
0.00373111
0.00372945
0.00372637
0.0037248
0.00372176
0.00372027
0.00371726
0.00371585
0.00371287
0.00371154
0.0037086
0.00370733
0.00370442
0.00370321
0.00370033
0.00369918