/*--------------------------------*- C++ -*----------------------------------*\
  =========                 |
  \\      /  F ield         | OpenFOAM: The Open Source CFD Toolbox
   \\    /   O peration     | Website:  https://openfoam.org
    \\  /    A nd           | Version:  8
     \\/     M anipulation  |
\*---------------------------------------------------------------------------*/
FoamFile
{
    version     2.0;
    format      ascii;
    class       volScalarField;
    location    "4.0000146318";
    object      epsilon;
}
// * * * * * * * * * * * * * * * * * * * * * * * * * * * * * * * * * * * * * //

dimensions      [0 2 -3 0 0 0 0];

internalField   nonuniform List<scalar> 
6800
(
453.216
1041.56
984.566
906.829
762.506
546.731
339.696
170.513
84.863
44.154
418.4
901.5
891.78
789.492
585.407
348.109
170.241
81.6406
38.4157
20.3595
535.047
865.314
812.008
672.971
407.108
199.195
92.414
40.5853
18.9496
10.5668
589.154
764.15
709.57
526.772
264.16
113.862
44.101
19.8906
10.6425
6.9331
633.771
713.142
646.669
402.241
165.23
59.1966
24.9425
12.5417
7.60267
5.53059
674.701
687.99
580.784
270.974
92.2116
34.2694
14.8729
8.64884
5.85336
4.57719
705.409
679.223
501.731
179.985
59.5301
21.6802
11.38
7.33646
5.22815
4.2403
742.477
689.367
409.605
121.999
35.0562
15.6171
9.18633
6.02678
4.45934
3.78653
767.002
701.261
332.28
88.2712
27.661
13.8075
8.08019
5.47873
4.24041
3.65588
800.389
713.46
267.843
60.534
18.9712
10.9763
6.81022
4.87026
3.86468
3.40056
2538.84
1247.97
981.577
909.518
907.971
966.149
1044.65
1122.78
1173.26
1196.05
2434.47
1196.96
967.569
923.185
971.314
1090.06
1245.28
1410.19
1555.35
1636.51
2248.15
1127.26
946.522
955.55
1092.95
1316.49
1578.26
1817.49
2010.9
2103.41
2027.32
1054.06
936.707
1043.47
1315.12
1669.6
1976.75
2135.81
2223.05
2189.14
1796.57
1015.34
1006.22
1291.55
1766.57
2146.68
2252.45
2213.31
2162.85
1821.9
1598.94
1065.24
1299.13
1894.49
2341.85
2360.28
2237.05
1924.34
1660.49
1149.88
1427.01
1322.51
2025.77
2528.95
2426.83
2125.28
1658.76
1169.69
932.188
621.778
1346.06
1924.63
2582.96
2330.58
1763.88
1259.06
979.5
729.493
613.504
409.504
1160.39
2154.52
1869.03
1380.69
1102.28
892.487
726.066
554.925
446.145
247.882
828.925
1316.75
1213.49
1037.63
894.037
740.212
554.261
382.858
216.565
100.34
1193.98
1111.99
1029.15
955.444
892.481
838.537
791.453
750.752
715.555
684.702
657.318
632.733
610.452
590.08
571.307
553.957
537.865
522.853
508.779
495.467
482.764
470.53
458.675
447.129
435.858
424.844
414.082
403.576
393.333
383.367
373.682
364.29
355.2
346.419
337.948
329.789
321.933
314.372
307.093
300.08
293.318
286.79
280.48
274.372
268.454
262.712
257.136
251.719
246.453
241.335
236.359
231.523
226.824
222.26
217.827
213.524
209.348
205.296
201.362
197.545
193.839
190.241
186.746
183.35
180.051
176.843
173.725
170.694
167.746
164.879
162.091
159.377
156.735
154.161
151.652
149.204
146.813
144.474
142.185
139.941
137.739
135.576
133.451
131.362
129.31
127.294
125.318
123.377
121.483
119.622
117.82
116.04
114.345
112.634
111.072
109.396
108.016
106.282
105.283
102.998
1651.95
1530.66
1403.58
1290.73
1194.39
1112.91
1043.68
984.643
933.492
888.717
849.033
813.478
781.455
752.317
725.57
700.885
678.006
656.651
636.605
617.617
599.49
582.053
565.201
548.863
533.003
517.605
502.666
488.19
474.18
460.645
447.574
434.974
422.849
411.201
400.021
389.298
379.017
369.157
359.695
350.609
341.874
333.468
325.368
317.553
310.006
302.71
295.651
288.819
282.204
275.797
269.593
263.584
257.767
252.134
246.683
241.409
236.305
231.366
226.585
221.957
217.476
213.135
208.929
204.852
200.9
197.068
193.351
189.746
186.247
182.852
179.554
176.351
173.238
170.209
167.26
164.387
161.584
158.846
156.17
153.549
150.982
148.465
145.996
143.574
141.199
138.871
136.593
134.361
132.186
130.053
127.992
125.958
124.025
122.076
120.298
118.39
116.83
114.868
113.622
111.225
2112.1
1999.88
1841.15
1698.22
1575.16
1469.73
1379.29
1301.18
1232.81
1172.43
1118.49
1069.98
1025.74
985.222
947.923
913.543
881.696
851.975
824.087
797.594
772.206
747.72
724.035
701.092
678.874
657.376
636.602
616.559
597.248
578.658
560.73
543.517
527.028
511.258
496.187
481.787
468.025
454.866
442.273
430.207
418.634
407.517
396.824
386.526
376.599
367.021
357.775
348.846
340.221
331.89
323.843
316.07
308.566
301.317
294.327
287.582
281.071
274.783
268.707
262.835
257.158
251.667
246.355
241.214
236.239
231.423
226.761
222.246
217.873
213.635
209.528
205.545
201.681
197.929
194.284
190.736
187.281
183.909
180.616
177.395
174.24
171.149
168.119
165.148
162.238
159.387
156.602
153.876
151.225
148.627
146.122
143.651
141.308
138.944
136.797
134.489
132.603
130.244
128.724
125.863
2187.83
2117.52
1973.25
1837.34
1717.67
1612.73
1521.07
1440.78
1369.9
1306.86
1250.05
1198.66
1151.72
1108.75
1068.92
1031.91
997.658
965.542
935.243
906.273
878.35
851.29
825.02
799.502
774.741
750.746
727.528
705.107
683.466
662.689
642.834
623.829
605.629
588.208
571.528
555.555
540.25
525.571
511.479
497.933
484.895
472.328
460.199
448.481
437.151
426.19
415.584
405.32
395.388
385.779
376.483
367.494
358.801
350.4
342.268
334.401
326.791
319.431
312.31
305.422
298.756
292.305
286.06
280.015
274.162
268.495
263.007
257.683
252.524
247.522
242.674
237.972
233.409
228.976
224.667
220.47
216.378
212.382
208.474
204.648
200.899
197.222
193.618
190.084
186.625
183.236
179.93
176.694
173.553
170.475
167.513
164.587
161.822
159.023
156.494
153.761
151.545
148.754
146.958
143.587
1747.53
1643.26
1541.49
1452.89
1378.9
1316.26
1262.25
1213.99
1170.51
1131.27
1094.97
1061.73
1030.62
1001.72
974.86
948.947
925.347
903.185
882.38
861.75
841.091
820.405
799.788
779.331
759.142
739.298
719.874
700.897
682.439
664.467
647.023
630.168
613.927
598.306
583.285
568.84
554.935
541.538
528.618
516.137
504.056
492.346
480.974
469.918
459.167
448.709
438.537
428.644
419.028
409.685
400.612
391.806
383.261
374.971
366.929
359.124
351.55
344.197
337.057
330.125
323.391
316.85
310.498
304.329
298.338
292.523
286.878
281.413
276.117
270.976
265.986
261.133
256.412
251.812
247.327
242.943
238.653
234.445
230.31
226.24
222.233
218.287
214.402
210.58
206.83
203.148
199.551
196.026
192.605
189.244
186.016
182.812
179.796
176.719
173.957
170.939
168.515
165.43
163.452
159.741
1027.97
913.772
828.367
764.332
717.164
682.956
657.695
638.002
624.033
614.644
608.059
603.806
602.178
596.842
595.046
593.589
592.379
591.068
593.207
592.555
589.875
585.671
580.35
574.161
567.349
560.059
552.441
544.543
536.489
528.318
520.148
512.031
504.021
496.153
488.426
480.861
473.426
466.115
458.922
451.821
444.784
437.813
430.833
423.876
416.968
410.092
403.259
396.482
389.777
383.154
376.627
370.202
363.887
357.684
351.597
345.623
339.763
334.014
328.377
322.85
317.433
312.125
306.927
301.84
296.861
291.997
287.236
282.578
278.03
273.573
269.219
264.953
260.773
256.676
252.655
248.696
244.791
240.927
237.1
233.303
229.537
225.803
222.108
218.453
214.855
211.309
207.838
204.424
201.11
197.84
194.702
191.567
188.626
185.597
182.903
179.917
177.552
174.493
172.542
168.898
567.386
507.267
456.479
414.43
380.164
351.822
329.122
310.186
295.52
283.63
273.809
266.453
260.907
256.977
254.328
252.461
251.347
250.986
250.675
249.897
250.836
252.613
254.727
257.104
259.694
262.479
265.394
268.323
271.28
274.171
277.025
279.816
282.562
285.258
287.821
290.264
292.47
294.463
296.183
297.59
298.675
299.401
299.385
299.233
298.863
298.098
297.047
295.764
294.297
292.666
290.907
289.029
287.057
284.994
282.854
280.64
278.36
276.018
273.622
271.176
268.692
266.169
263.613
261.028
258.419
255.805
253.168
250.549
247.944
245.294
242.66
240.03
237.397
234.767
232.142
229.531
226.903
224.238
221.531
218.78
215.99
213.173
210.337
207.496
204.666
201.852
199.084
196.345
193.681
191.029
188.478
185.897
183.479
180.943
178.701
176.165
174.185
171.576
169.904
166.811
373.185
332.228
295.718
263.964
236.267
212.125
191.302
173.377
158.177
145.03
133.862
124.086
116.068
109.438
103.767
98.9693
94.955
91.5886
88.8484
86.4284
84.5552
83.044
81.8889
81.274
80.7923
80.9129
81.3106
82.1073
83.2158
84.5075
86.0174
87.7691
89.8213
92.1544
94.7553
97.6191
100.684
103.954
107.331
110.859
114.418
118.098
121.933
125.805
129.75
133.662
137.568
141.388
145.145
148.777
152.299
155.661
158.871
161.894
164.733
167.367
169.794
172.018
174.017
175.814
177.385
178.713
179.824
180.745
181.477
182.101
182.505
182.894
183.147
182.977
183
182.669
182.535
182.292
181.876
181.474
180.917
180.205
179.35
178.366
177.248
176.042
174.733
173.364
171.944
170.477
169.007
167.532
166.072
164.561
163.101
161.587
160.143
158.575
157.167
155.535
154.259
152.576
151.501
149.526
222.938
195.55
170.856
149.301
130.607
114.516
100.746
89.0603
79.1134
70.7242
63.4987
57.4117
52.0692
47.4546
43.5762
40.2896
37.4399
34.9365
32.7392
30.7865
29.0679
27.5481
26.2076
25.0515
24.0489
23.21
22.5086
21.961
21.5159
21.2288
20.9907
20.976
21.013
21.1966
21.388
21.7536
22.2372
22.8429
23.5629
24.3837
25.3421
26.3606
27.54
28.7796
30.1974
31.6978
33.3703
35.1515
37.0826
39.1378
41.3255
43.6313
46.0603
48.581
51.2153
53.9091
56.6939
59.5131
62.3873
65.2882
68.2088
71.2043
74.2158
77.2611
80.2953
83.3211
86.3096
89.2487
92.1256
94.9064
97.5713
100.116
102.498
104.74
106.787
108.671
110.359
111.851
113.144
114.245
115.148
115.923
116.53
117.035
117.447
117.764
117.987
118.336
118.527
118.57
118.77
118.788
118.603
118.268
117.891
117.519
117.196
116.821
116.533
116.147
89.5706
78.3298
68.0226
58.9741
51.1803
44.5542
38.9645
34.2887
30.3884
27.1426
24.4385
22.1757
20.2608
18.6302
17.2294
16.0157
14.9502
14.0015
13.1472
12.3702
11.6579
11.0027
10.3989
9.84401
9.33625
8.87366
8.4552
8.07882
7.74293
7.4401
7.17316
6.94184
6.74324
6.57022
6.42929
6.31387
6.22669
6.18444
6.10851
6.12313
6.1242
6.14799
6.19525
6.26971
6.38023
6.50748
6.66511
6.84242
7.04359
7.28052
7.55168
7.85808
8.22695
8.61333
9.0986
9.57791
10.1855
10.7776
11.5047
12.2439
13.0888
14.0208
15.0059
16.159
17.3538
18.7176
20.1945
21.7567
23.5158
25.2857
27.2308
29.2044
31.2192
33.311
35.3356
37.4127
39.4232
41.3716
43.3436
45.1365
47.0622
48.7559
50.5435
52.1881
53.8148
55.3896
56.8611
58.3736
59.6998
61.1371
62.3302
63.6021
64.5984
65.7534
66.4866
67.5533
68.3469
69.2596
69.7732
71.4403
24.2647
23.0814
21.6777
20.1694
18.643
17.1644
15.7735
14.4936
13.3331
12.2918
11.3632
10.5376
9.80416
9.15102
8.56731
8.04276
7.56856
7.13718
6.74241
6.37962
6.04482
5.73552
5.44926
5.18462
4.94013
4.71454
4.50699
4.31605
4.14113
3.9805
3.83387
3.69919
3.57638
3.46336
3.36005
3.26469
3.17739
3.09651
3.02277
2.95361
2.89167
2.83202
2.77979
2.72915
2.68591
2.64455
2.60989
2.57753
2.55217
2.52809
2.51251
2.50193
2.50014
2.50225
2.50839
2.52154
2.54952
2.57618
2.62692
2.67495
2.74241
2.8276
2.91032
3.03303
3.15258
3.30881
3.50407
3.69887
3.98128
4.24378
4.58256
4.94503
5.32458
5.783
6.23783
6.74491
7.3265
7.83762
8.5748
9.08906
9.96034
10.5515
11.4862
12.2218
13.1836
14.0965
15.0673
16.1283
17.1723
18.2922
19.4632
20.6052
21.7241
23.1013
23.9927
25.4047
26.5596
27.8933
28.8063
30.3284
12.8702
12.1236
11.3704
10.6247
9.89908
9.20644
8.55547
7.95129
7.39772
6.89649
6.44665
6.04493
5.68752
5.36914
5.08504
4.82993
4.59946
4.38939
4.19646
4.01784
3.85139
3.69558
3.54914
3.4114
3.28161
3.15957
3.04476
2.93716
2.83628
2.74214
2.65418
2.57236
2.496
2.42498
2.35864
2.29675
2.23872
2.18432
2.13308
2.08475
2.03907
1.99553
1.95427
1.91459
1.87692
1.84052
1.80602
1.77263
1.7409
1.71049
1.68148
1.6535
1.62724
1.6018
1.57783
1.55421
1.53036
1.50933
1.48298
1.4638
1.43645
1.41342
1.39342
1.3646
1.34474
1.34667
1.34066
1.35166
1.3593
1.35445
1.36759
1.3718
1.40101
1.43078
1.49104
1.53695
1.61506
1.67076
1.76298
1.82408
1.93334
2.01855
2.13368
2.26582
2.4013
2.56945
2.77116
2.96447
3.21209
3.51532
3.78277
4.09625
4.50588
4.80043
5.2045
5.64096
6.11602
6.62259
6.86663
7.6613
7.47344
7.13159
6.77878
6.42513
6.08014
5.74999
5.43885
5.15056
4.88509
4.64025
4.41414
4.20458
4.01005
3.82899
3.66049
3.50349
3.35747
3.22161
3.09551
2.9784
2.86985
2.76907
2.6756
2.58864
2.50771
2.43209
2.36134
2.29483
2.23216
2.17289
2.11667
2.06321
2.01221
1.96356
1.91697
1.87248
1.82978
1.78901
1.74985
1.71251
1.6766
1.6424
1.60948
1.57811
1.54789
1.51901
1.49116
1.46445
1.43862
1.41379
1.38968
1.36646
1.34383
1.32203
1.30072
1.28022
1.26008
1.24084
1.22178
1.20369
1.18576
1.16859
1.15187
1.13558
1.11981
1.10475
1.08981
1.07632
1.06243
1.05051
1.03812
1.02748
1.01738
1.0085
1.00087
0.993843
0.98839
0.982787
0.979423
0.975393
0.97341
0.970242
0.969923
0.971849
0.97799
0.983496
0.997026
1.00794
1.02661
1.04652
1.07577
1.09683
1.13769
1.16618
1.20744
1.24743
1.29063
1.34812
1.37804
1.49732
4.88761
4.74043
4.58354
4.41877
4.24968
4.08003
3.91333
3.75194
3.5979
3.45208
3.31515
3.18676
3.06668
2.95397
2.8481
2.74808
2.65358
2.56386
2.47896
2.3984
2.32247
2.25076
2.18361
2.12051
2.06168
2.00644
1.95494
1.90639
1.86087
1.8176
1.77671
1.73747
1.70011
1.66397
1.6294
1.59581
1.56363
1.53231
1.50235
1.47318
1.44536
1.41827
1.39249
1.36739
1.34353
1.32026
1.29813
1.27648
1.25585
1.23559
1.21625
1.19717
1.1789
1.16086
1.14354
1.12641
1.10996
1.09367
1.07809
1.06259
1.04782
1.03309
1.01903
1.00501
0.991544
0.978134
0.965212
0.952266
0.939901
0.92736
0.915608
0.903613
0.892717
0.881505
0.871575
0.861359
0.852114
0.842836
0.834055
0.825079
0.817018
0.807903
0.799791
0.790802
0.782191
0.773986
0.766512
0.757665
0.752624
0.746523
0.740934
0.737201
0.7322
0.729543
0.724904
0.723278
0.719095
0.718525
0.723681
0.722965
3.58139
3.49564
3.40315
3.3057
3.20609
3.10633
3.00814
2.91228
2.81962
2.73028
2.64472
2.56276
2.48469
2.41021
2.33955
2.27231
2.20868
2.14816
2.09092
2.03636
1.98466
1.9352
1.88818
1.84301
1.79998
1.75852
1.71898
1.68083
1.64447
1.60936
1.57593
1.54361
1.51287
1.48309
1.45478
1.42726
1.4011
1.37558
1.35129
1.3275
1.30484
1.28254
1.26132
1.24034
1.22038
1.20058
1.18178
1.16307
1.14533
1.12762
1.11088
1.0941
1.0783
1.0624
1.04746
1.03237
1.01825
1.0039
0.990515
0.976844
0.96414
0.95108
0.938999
0.926492
0.914983
0.902975
0.891993
0.880436
0.869945
0.858798
0.848771
0.838006
0.828423
0.818022
0.808867
0.798818
0.790076
0.780355
0.772024
0.762587
0.754657
0.745476
0.737912
0.728976
0.721741
0.713026
0.70617
0.697629
0.691154
0.682867
0.676778
0.668721
0.663056
0.655194
0.649983
0.64229
0.637657
0.630194
0.625257
0.617051
2.88931
2.8361
2.77845
2.71684
2.65278
2.58732
2.52162
2.45619
2.39182
2.32875
2.26751
2.20807
2.15082
2.09554
2.04253
1.99149
1.94271
1.89581
1.85109
1.80814
1.76722
1.72789
1.69041
1.65428
1.61981
1.58646
1.55458
1.52362
1.494
1.46517
1.43757
1.41066
1.38493
1.3598
1.33581
1.31233
1.28995
1.26797
1.24703
1.2264
1.20677
1.18734
1.16886
1.15049
1.13305
1.11564
1.09915
1.08262
1.067
1.0513
1.03651
1.02156
1.00755
0.993323
0.980039
0.966469
0.953858
0.940891
0.928899
0.916477
0.905054
0.893126
0.882227
0.870749
0.860336
0.849266
0.839306
0.828611
0.819077
0.808727
0.799597
0.789567
0.780828
0.7711
0.762742
0.7533
0.745318
0.736146
0.728531
0.719612
0.712352
0.703663
0.696748
0.688259
0.681672
0.673362
0.667096
0.658935
0.652986
0.644974
0.639349
0.631486
0.626202
0.618499
0.613555
0.606031
0.601286
0.593927
0.590645
0.579435
2.4942
2.45429
2.41135
2.36554
2.31798
2.2693
2.22032
2.17129
2.1228
2.07492
2.0281
1.98227
1.93779
1.89447
1.85264
1.81202
1.77293
1.73503
1.6986
1.66329
1.62938
1.59648
1.56491
1.53423
1.50482
1.47619
1.44876
1.42202
1.3964
1.37137
1.34741
1.32394
1.30148
1.27942
1.25832
1.23753
1.21767
1.19804
1.1793
1.16073
1.14302
1.12541
1.10866
1.09194
1.07607
1.06016
1.0451
1.02994
1.01565
1.00118
0.987581
0.97375
0.960809
0.947568
0.935237
0.922541
0.910782
0.898592
0.887371
0.875651
0.864936
0.853653
0.843417
0.832539
0.822757
0.812256
0.802906
0.792754
0.783814
0.773987
0.765438
0.75591
0.747737
0.738486
0.730675
0.721682
0.714219
0.705463
0.698339
0.689802
0.683007
0.674671
0.668198
0.660045
0.653887
0.645898
0.64005
0.632209
0.626665
0.618955
0.613714
0.606121
0.601173
0.593665
0.589052
0.581691
0.577367
0.570241
0.565506
0.557449
2.256
2.22309
2.18807
2.15088
2.11234
2.07281
2.03291
1.99276
1.95287
1.91323
1.87427
1.8359
1.79848
1.76183
1.72629
1.6916
1.65807
1.6254
1.5939
1.56322
1.53367
1.50487
1.47716
1.45011
1.4241
1.39868
1.37423
1.3503
1.32731
1.30476
1.28311
1.26182
1.24141
1.2213
1.20203
1.18298
1.16476
1.1467
1.12945
1.11229
1.09593
1.07961
1.06409
1.04854
1.03379
1.01895
1.00492
0.99075
0.977387
0.963824
0.951084
0.938081
0.925923
0.91344
0.901824
0.889823
0.878719
0.867168
0.856549
0.845418
0.835259
0.824524
0.814805
0.804438
0.79514
0.785119
0.776223
0.766526
0.758015
0.748617
0.740474
0.731353
0.723562
0.714698
0.707247
0.69862
0.691496
0.683088
0.676282
0.668075
0.661579
0.653556
0.647362
0.639508
0.63361
0.625909
0.620303
0.612738
0.60742
0.599978
0.594947
0.587614
0.582861
0.575604
0.571173
0.564061
0.559904
0.553014
0.54847
0.540676
2.10333
2.07388
2.04288
2.01023
1.97657
1.94213
1.90745
1.87254
1.83785
1.80332
1.76932
1.73574
1.7029
1.67062
1.6392
1.6084
1.57853
1.5493
1.52101
1.49334
1.46661
1.44046
1.41524
1.39054
1.36674
1.34341
1.32094
1.29888
1.27766
1.25679
1.23673
1.21695
1.19796
1.1792
1.1612
1.14338
1.1263
1.10934
1.09312
1.07695
1.06153
1.04611
1.03142
1.01669
1.0027
0.988601
0.975257
0.961758
0.949024
0.936079
0.923918
0.91149
0.899869
0.887924
0.876812
0.865318
0.854687
0.843615
0.833441
0.822762
0.813021
0.80271
0.793382
0.783416
0.774481
0.764835
0.756277
0.746931
0.738733
0.729666
0.721815
0.713009
0.705492
0.696927
0.689734
0.681393
0.674512
0.666379
0.659802
0.65186
0.645578
0.637813
0.63182
0.624215
0.618505
0.611045
0.605615
0.598286
0.593131
0.585919
0.581036
0.573925
0.56932
0.562297
0.557929
0.551002
0.547026
0.54006
0.537011
0.526954
1.99983
1.97249
1.94397
1.91412
1.8835
1.85225
1.8208
1.78915
1.75767
1.7263
1.69537
1.66475
1.63476
1.60521
1.57641
1.54811
1.52061
1.49364
1.46751
1.44188
1.41709
1.39279
1.3693
1.34626
1.32401
1.30217
1.2811
1.26038
1.24042
1.22075
1.20182
1.18313
1.16516
1.14738
1.1303
1.11336
1.09712
1.08097
1.06551
1.05008
1.03535
1.0206
1.00655
0.992432
0.979017
0.965488
0.952673
0.939694
0.927443
0.914978
0.903261
0.891277
0.880064
0.868531
0.857797
0.846688
0.836408
0.825695
0.815847
0.805507
0.796071
0.78608
0.777036
0.767371
0.758703
0.749343
0.741034
0.731959
0.723996
0.715186
0.707554
0.698991
0.69168
0.683347
0.676346
0.668227
0.661525
0.653604
0.647194
0.639455
0.63333
0.625759
0.619913
0.612495
0.606923
0.599644
0.594343
0.587189
0.582154
0.575112
0.570341
0.563397
0.558894
0.552036
0.547762
0.540997
0.537108
0.530302
0.527322
0.517482
1.92587
1.89984
1.87284
1.84475
1.81607
1.78687
1.75754
1.72804
1.69872
1.66949
1.64066
1.6121
1.5841
1.55648
1.52952
1.50299
1.47718
1.45182
1.42722
1.40305
1.37964
1.35665
1.33441
1.31256
1.29144
1.27067
1.25062
1.23087
1.21182
1.19303
1.17493
1.15703
1.13982
1.12276
1.10637
1.09009
1.07447
1.05892
1.04403
1.02916
1.01495
1.00071
0.987139
0.973495
0.960523
0.947433
0.935027
0.922456
0.910584
0.898499
0.887132
0.875504
0.864616
0.853416
0.842982
0.832184
0.822181
0.81176
0.802167
0.7921
0.782901
0.773166
0.764342
0.754918
0.746454
0.737322
0.729204
0.720345
0.712559
0.703955
0.696489
0.688124
0.680967
0.672823
0.665967
0.658029
0.651463
0.643716
0.637434
0.629863
0.623858
0.616449
0.610715
0.603454
0.597988
0.59086
0.585659
0.57865
0.573711
0.566809
0.562128
0.55532
0.550902
0.544177
0.539981
0.533347
0.529523
0.522855
0.519935
0.51027
1.8709
1.84568
1.8197
1.79281
1.76547
1.7377
1.70985
1.68186
1.65406
1.62634
1.599
1.5719
1.54532
1.51907
1.49345
1.4682
1.44363
1.41945
1.39598
1.3729
1.35053
1.32854
1.30725
1.2863
1.26604
1.2461
1.22683
1.20783
1.1895
1.17139
1.15394
1.13667
1.12004
1.10355
1.08769
1.07193
1.05681
1.04173
1.02729
1.01285
0.999049
0.98521
0.972012
0.958735
0.946107
0.933356
0.921267
0.909009
0.89743
0.885637
0.874541
0.863184
0.852546
0.8416
0.831397
0.820838
0.811049
0.800853
0.791459
0.781605
0.772589
0.763056
0.754402
0.74517
0.736864
0.727915
0.719942
0.711258
0.703606
0.695169
0.687829
0.679623
0.672582
0.664592
0.657843
0.650053
0.643586
0.635982
0.629791
0.622358
0.616438
0.609163
0.603508
0.596376
0.590983
0.583981
0.578847
0.571961
0.567084
0.560301
0.555679
0.548985
0.544622
0.538007
0.533865
0.527332
0.523565
0.516996
0.514103
0.504562
1.82947
1.80477
1.77943
1.75335
1.72691
1.70013
1.67332
1.6464
1.61969
1.59305
1.56681
1.54078
1.51525
1.49003
1.4654
1.44112
1.41747
1.39419
1.37157
1.34931
1.32773
1.30648
1.28591
1.26565
1.24605
1.22673
1.20806
1.18963
1.17184
1.15426
1.1373
1.12051
1.10434
1.08828
1.07285
1.05749
1.04275
1.02804
1.01395
0.999853
0.986376
0.972853
0.959955
0.94697
0.93462
0.922139
0.910307
0.898301
0.886959
0.875401
0.864522
0.853386
0.842947
0.832209
0.82219
0.811827
0.802207
0.792196
0.782957
0.773279
0.764405
0.755039
0.746516
0.737444
0.729257
0.720462
0.712598
0.704063
0.696509
0.688218
0.680963
0.672901
0.665936
0.658088
0.651403
0.643755
0.637343
0.629882
0.623734
0.616448
0.610557
0.603433
0.597795
0.59082
0.585429
0.578592
0.573444
0.566732
0.561824
0.555227
0.550555
0.544064
0.539625
0.533218
0.529021
0.522708
0.518663
0.512476
0.509705
0.500295
1.79732
1.77293
1.74804
1.72252
1.69674
1.67067
1.64463
1.6185
1.5926
1.56678
1.54135
1.51612
1.4914
1.46695
1.44308
1.41953
1.3966
1.37401
1.35206
1.33044
1.30947
1.28882
1.26882
1.24911
1.23004
1.21122
1.19304
1.17507
1.15773
1.14057
1.12402
1.10761
1.09181
1.07612
1.06102
1.04599
1.03156
1.01716
1.00335
0.98953
0.976314
0.963045
0.950387
0.937636
0.925506
0.913241
0.901612
0.889805
0.878651
0.867275
0.856572
0.845604
0.835328
0.824746
0.814877
0.80466
0.795178
0.785305
0.776194
0.766645
0.757889
0.748647
0.740232
0.731277
0.72319
0.714505
0.706734
0.698304
0.690837
0.682645
0.675473
0.667505
0.660617
0.652859
0.646246
0.638684
0.632338
0.62496
0.618875
0.611668
0.605837
0.598788
0.593207
0.586304
0.580967
0.574198
0.569102
0.562456
0.557597
0.551062
0.546438
0.540005
0.535614
0.529256
0.525091
0.518853
0.514999
0.50884
0.504709
0.497799
1.77232
1.74811
1.72348
1.69833
1.67302
1.64747
1.62199
1.59645
1.57117
1.54598
1.52119
1.4966
1.4725
1.44867
1.4254
1.40244
1.38009
1.35805
1.33663
1.31553
1.29505
1.27488
1.25533
1.23605
1.21739
1.19898
1.18117
1.16357
1.14657
1.12974
1.1135
1.09739
1.08188
1.06645
1.05161
1.03683
1.02263
1.00845
0.99486
0.981248
0.968226
0.955147
0.942666
0.93009
0.918122
0.906019
0.894538
0.882881
0.871863
0.860628
0.850049
0.839212
0.829052
0.818591
0.808829
0.798725
0.789344
0.779576
0.770559
0.761109
0.75244
0.743292
0.734958
0.726092
0.71808
0.70948
0.70178
0.693431
0.68603
0.677917
0.670805
0.662913
0.656081
0.648397
0.641837
0.634347
0.628051
0.620743
0.614704
0.607565
0.601777
0.594796
0.589254
0.582418
0.577118
0.570415
0.565354
0.558771
0.553946
0.547473
0.542881
0.536509
0.532147
0.525852
0.521712
0.51554
0.511711
0.505632
0.501505
0.494647
1.75368
1.72949
1.70499
1.68007
1.65505
1.62985
1.60476
1.57965
1.55481
1.53008
1.50574
1.48161
1.45797
1.43459
1.41177
1.38924
1.3673
1.34566
1.32463
1.30389
1.28377
1.26393
1.2447
1.22573
1.20736
1.18921
1.17166
1.1543
1.13754
1.12092
1.10489
1.08898
1.07365
1.0584
1.04373
1.02911
1.01506
1.00103
0.987577
0.974096
0.961206
0.948249
0.935891
0.923428
0.911574
0.899577
0.888203
0.876646
0.865728
0.854587
0.844103
0.833355
0.823286
0.812909
0.803236
0.793211
0.783916
0.774223
0.765291
0.75591
0.747327
0.738242
0.729992
0.721187
0.713257
0.704715
0.697095
0.688801
0.681478
0.673417
0.666382
0.658539
0.651782
0.644145
0.637657
0.630213
0.623987
0.616722
0.610751
0.603654
0.597932
0.590991
0.585513
0.578715
0.573476
0.566812
0.561807
0.555264
0.550492
0.544058
0.539516
0.533184
0.528866
0.522615
0.518527
0.512373
0.508425
0.502389
0.499682
0.490489
1.73984
1.71561
1.69114
1.66632
1.64147
1.61648
1.59164
1.56679
1.54223
1.51779
1.49375
1.46991
1.44656
1.42346
1.4009
1.37862
1.35692
1.3355
1.31467
1.29413
1.27419
1.25452
1.23544
1.2166
1.19836
1.18033
1.1629
1.14564
1.12898
1.11246
1.09653
1.08071
1.06547
1.05032
1.03574
1.02121
1.00727
0.993333
0.979988
0.966606
0.953826
0.940968
0.928712
0.916344
0.904593
0.89269
0.88142
0.869958
0.859146
0.8481
0.837726
0.827073
0.817115
0.806832
0.797271
0.787337
0.778156
0.768549
0.759732
0.750435
0.741965
0.732959
0.724823
0.716091
0.708275
0.6998
0.692293
0.684059
0.67685
0.668842
0.661921
0.654124
0.647483
0.639884
0.633515
0.626099
0.619994
0.61275
0.606903
0.599818
0.594224
0.587284
0.581938
0.575132
0.57003
0.563346
0.558485
0.551911
0.547288
0.540813
0.536426
0.530037
0.525891
0.519578
0.515637
0.509408
0.505809
0.499545
0.496801
0.487696
1.72886
1.70455
1.68005
1.65528
1.6305
1.6056
1.58085
1.5561
1.53161
1.50724
1.48323
1.45942
1.43606
1.41295
1.39036
1.36806
1.34631
1.32488
1.30402
1.28348
1.26352
1.2438
1.22468
1.20581
1.18755
1.16953
1.15213
1.13494
1.11836
1.10196
1.08617
1.07051
1.05545
1.04049
1.02613
1.01182
0.998097
0.984391
0.971275
0.958132
0.94558
0.932965
0.920954
0.908835
0.897327
0.885668
0.874631
0.863401
0.852809
0.841981
0.831808
0.821357
0.811582
0.801486
0.79209
0.782329
0.773296
0.76385
0.755163
0.746014
0.737661
0.728792
0.72076
0.712154
0.70443
0.696073
0.688648
0.680524
0.673387
0.665483
0.658625
0.650926
0.64434
0.636834
0.630512
0.623187
0.617123
0.609964
0.604152
0.597149
0.591585
0.584725
0.579405
0.572675
0.567595
0.560984
0.556143
0.549639
0.545035
0.538625
0.534257
0.527927
0.523802
0.517543
0.513625
0.507436
0.503872
0.497646
0.494905
0.485856
1.72042
1.6957
1.67074
1.64562
1.62038
1.59489
1.56948
1.54402
1.51884
1.49378
1.46918
1.44482
1.42105
1.3976
1.37482
1.3524
1.33069
1.30934
1.28872
1.26842
1.24886
1.22967
1.21116
1.19296
1.17541
1.1581
1.14141
1.1249
1.10899
1.09322
1.07802
1.06293
1.0484
1.03392
1.02
1.00611
0.992768
0.979412
0.966616
0.953766
0.941485
0.929112
0.917317
0.905394
0.894062
0.882563
0.871673
0.860576
0.850105
0.83939
0.829319
0.818965
0.809277
0.799267
0.789945
0.780259
0.771288
0.761911
0.753277
0.744191
0.735882
0.727072
0.719076
0.710526
0.702833
0.694529
0.687128
0.679057
0.671938
0.664086
0.657241
0.649595
0.643016
0.635563
0.629243
0.621972
0.615903
0.608802
0.602979
0.596037
0.590454
0.58366
0.578312
0.571655
0.566539
0.560008
0.555119
0.548704
0.54404
0.537729
0.533287
0.527074
0.522851
0.516715
0.512717
0.506667
0.502808
0.496868
0.494209
0.485215
1.69562
1.66964
1.64396
1.61822
1.5929
1.56783
1.54322
1.51889
1.49506
1.47153
1.44855
1.42588
1.40379
1.38201
1.36081
1.33992
1.31961
1.29959
1.28015
1.26097
1.24237
1.224
1.20619
1.18858
1.17153
1.15465
1.13833
1.12214
1.10649
1.09095
1.07595
1.06103
1.04664
1.0323
1.01849
1.0047
0.991448
0.978171
0.965447
0.952662
0.940438
0.928119
0.916373
0.904494
0.893204
0.881743
0.870888
0.859823
0.849383
0.838695
0.828651
0.818322
0.808658
0.798668
0.789367
0.7797
0.770747
0.761388
0.752769
0.7437
0.735403
0.726609
0.718624
0.710089
0.702404
0.694115
0.686721
0.678663
0.67155
0.663711
0.65687
0.649237
0.642661
0.635221
0.628902
0.621643
0.615575
0.608486
0.602663
0.595733
0.590148
0.583366
0.578016
0.571371
0.566252
0.559732
0.554841
0.548436
0.54377
0.537469
0.533025
0.526822
0.522599
0.516466
0.512459
0.50644
0.50274
0.496815
0.492845
0.486144
2.93574
3.13953
3.23076
3.56816
3.76738
4.25573
4.9569
6.15523
9.30236
24.7927
2.63009
2.74653
2.8247
3.00527
3.23044
3.48048
3.92387
4.53386
5.57199
13.4186
2.44958
2.51264
2.54766
2.66992
2.7643
3.00325
3.19047
3.6745
4.09011
7.71322
2.33408
2.36997
2.38716
2.45985
2.50522
2.65606
2.75899
3.07356
3.29337
4.98605
2.23863
2.25904
2.26884
2.31382
2.33919
2.4289
2.48749
2.67575
2.80314
3.63896
2.16644
2.17536
2.17973
2.20598
2.22054
2.27471
2.30846
2.41863
2.49235
2.92067
2.10945
2.11044
2.11051
2.12371
2.13106
2.16315
2.18247
2.24744
2.28972
2.51673
2.06553
2.06035
2.05737
2.06095
2.06318
2.07992
2.09004
2.12745
2.15121
2.27615
2.03058
2.02169
2.0146
2.01143
2.01047
2.0167
2.02078
2.04026
2.05279
2.12327
2.00255
1.99143
1.98061
1.97433
1.96785
1.96721
1.96715
1.9748
1.9801
2.02039
1.97978
1.96752
1.95343
1.9449
1.93453
1.92979
1.92406
1.92423
1.92474
1.94607
1.96252
1.94766
1.93283
1.92074
1.90906
1.89982
1.8914
1.88577
1.88101
1.89068
1.94831
1.93218
1.91564
1.90237
1.88774
1.87749
1.86439
1.85769
1.84534
1.84907
1.93659
1.92044
1.90154
1.88816
1.87056
1.85982
1.8433
1.83513
1.81746
1.81686
1.92718
1.91148
1.89034
1.87715
1.85708
1.84597
1.82684
1.81748
1.79849
1.79194
1.92011
1.90465
1.88203
1.86856
1.84714
1.83504
1.81472
1.80348
1.78441
1.77347
1.91514
1.89862
1.87624
1.86116
1.84024
1.82595
1.80625
1.79228
1.77369
1.75986
1.91168
1.89341
1.87193
1.85491
1.83482
1.8185
1.79937
1.78338
1.76495
1.74912
1.9098
1.89042
1.86915
1.85097
1.83095
1.81347
1.79423
1.77708
1.75828
1.74126
1.90055
1.87878
1.85669
1.83625
1.81525
1.79574
1.77542
1.75648
1.73653
1.71794
3.00462
3.33957
3.87228
4.71865
6.23952
9.55635
20.8978
100.515
706.304
1177.1
3.00971
3.3379
3.87553
4.74719
6.37421
9.84078
21.3967
102.656
729.482
1125.36
3.01085
3.32922
3.89056
4.8582
6.58633
10.4153
23.407
107.491
740.31
1091.98
3.01509
3.33045
3.87933
4.91066
6.77719
10.9227
24.0342
111.694
764.978
1049.63
3.01067
3.31669
3.93766
4.99215
6.9928
11.3259
26.1821
117.335
774.746
1008.82
3.05865
3.38413
3.95537
5.17554
7.3943
12.4019
28.4563
127.491
757.122
962.389
3.06178
3.39045
4.06998
5.19599
7.5684
13.1832
29.9427
129.69
753.98
921.366
3.15545
3.51491
4.1755
5.58002
8.2729
13.6432
34.2766
147.609
759.224
877.588
3.18082
3.55648
4.33423
5.67605
8.79108
14.7871
37.4453
172.136
750.452
853.479
3.33925
3.77546
4.63149
6.48856
10.4534
16.2051
46.9582
217.216
734.015
819.67
2.96941
3.50642
4.29573
4.56088
9.26396
13.1227
21.306
299.068
1098.46
2637.37
3.23105
3.59783
4.39416
5.20785
7.10983
10.6639
24.4059
244.363
1038.15
2602.43
3.17448
3.62153
4.33282
4.61378
7.3651
9.68153
24.4175
213.9
1028
2545.03
3.18056
3.48045
4.05032
4.73513
6.40376
8.42163
23.8467
178.568
993.627
2358.82
3.16388
3.46922
4.05666
4.58485
5.78299
7.65266
23.238
153.207
942.109
2084.4
3.14904
3.4076
3.913
5.1275
5.69575
7.47096
20.1533
137.635
857.316
1832
3.10451
3.3901
3.94476
4.778
5.63993
7.84406
18.5966
115.095
779.894
1615.7
3.07348
3.37248
3.94842
4.65304
5.78633
8.20984
18.1155
105.254
743.45
1445.47
3.03541
3.34704
3.91666
4.64201
5.90045
8.71562
18.9156
99.9778
725.926
1322.75
3.0172