/*--------------------------------*- C++ -*----------------------------------*\
  =========                 |
  \\      /  F ield         | OpenFOAM: The Open Source CFD Toolbox
   \\    /   O peration     | Website:  https://openfoam.org
    \\  /    A nd           | Version:  8
     \\/     M anipulation  |
\*---------------------------------------------------------------------------*/
FoamFile
{
    version     2.0;
    format      ascii;
    class       volScalarField;
    location    "4.0000146318";
    object      k;
}
// * * * * * * * * * * * * * * * * * * * * * * * * * * * * * * * * * * * * * //

dimensions      [0 2 -2 0 0 0 0];

internalField   nonuniform List<scalar> 
6800
(
7.10496
16.483
19.4352
19.0606
18.4752
16.7436
13.3035
8.40995
4.51976
2.8251
6.56752
15.9373
18.6874
18.3
16.8489
13.5421
7.84856
4.20851
2.44754
1.6963
8.39447
16.9559
18.1374
17.1954
14.4583
8.50658
4.46667
2.5609
1.64026
1.15348
9.24642
16.8464
17.4734
15.8231
10.5355
5.30969
2.83176
1.6813
1.15936
0.907359
9.96533
16.8124
16.8941
13.7622
6.94218
3.38067
1.88934
1.30486
0.978843
0.790055
10.6141
17.0574
16.5405
10.562
4.69111
2.40314
1.53232
1.07883
0.803398
0.685414
11.1121
17.5305
15.7027
7.67499
3.3808
1.87466
1.22933
0.912536
0.742955
0.652284
11.6899
18.7441
14.3901
5.49358
2.62552
1.57862
1.12348
0.854101
0.686717
0.605318
12.0784
19.6906
12.1557
4.56949
2.26369
1.40643
0.97867
0.754931
0.636031
0.577504
12.6377
21.6424
10.879
3.66819
1.90032
1.23683
0.920673
0.729513
0.620798
0.562639
40.281
58.4524
60.8336
60.6891
61.2704
63.2851
66.1551
69.1146
71.2365
72.1794
38.6222
56.1815
59.3857
60.2656
62.181
65.6744
70.2233
74.9784
79.0615
81.3663
35.659
52.2737
56.6428
59.4575
63.6953
69.4487
75.7188
80.9282
84.6853
86.5891
32.15
47.958
53.7587
59.3603
66.4443
74.1458
79.3524
81.5688
81.4446
78.6241
28.4827
44.4037
52.7981
61.6099
71.1173
76.5169
76.2336
72.9364
67.8927
56.1718
25.341
42.9774
55.2134
66.6524
71.4821
68.8667
63.2071
50.4715
43.0046
30.3015
22.607
43.9922
60.5043
64.1564
58.9663
46.9406
36.0419
27.9624
24.8654
18.8732
21.3332
46.9464
51.8092
45.0372
32.7621
26.5889
23.9013
20.3359
18.5845
14.4057
18.319
35.4202
29.9535
25.1771
22.6963
21.0051
19.8446
17.3069
15.2481
10.3594
13.0172
20.5393
20.8786
20.6128
19.8199
18.9503
17.3377
13.8954
9.97812
5.27353
72.3004
69.8264
66.9423
64.2158
61.7993
59.6768
57.7904
56.1373
54.6926
53.4157
52.2738
51.2409
50.2946
49.4205
48.6091
47.8505
47.1404
46.4779
45.8554
45.2646
44.6972
44.1448
43.6014
43.0625
42.5261
41.9909
41.4573
40.9258
40.3976
39.8741
39.3568
38.8475
38.3475
37.8582
37.3805
36.9149
36.4617
36.0208
35.5916
35.1737
34.7664
34.369
33.9808
33.6007
33.2282
32.8625
32.5032
32.1499
31.8026
31.4611
31.1253
30.7955
30.4716
30.1538
29.8421
29.5367
29.2374
28.9442
28.6572
28.3761
28.1008
27.8311
27.567
27.3082
27.0546
26.8061
26.5627
26.3242
26.0906
25.8617
25.6375
25.4178
25.2024
24.991
24.7835
24.5794
24.3785
24.1802
23.9843
23.7902
23.5977
23.4064
23.2162
23.027
22.8389
22.6519
22.4664
22.2825
22.1008
21.9215
21.7453
21.5716
21.4028
21.2351
21.0766
20.9125
20.7707
20.6001
20.495
20.2743
82.0069
79.0161
75.495
72.1417
69.1563
66.5586
64.3062
62.3564
60.6448
59.1303
57.7735
56.5452
55.4187
54.3785
53.4144
52.5135
51.6727
50.8867
50.1463
49.4403
48.7582
48.0907
47.4322
46.7786
46.1287
45.4823
44.84
44.2032
43.5733
42.9519
42.3409
41.7421
41.1566
40.5857
40.0299
39.4895
38.9646
38.4546
37.9589
37.4769
37.0083
36.5517
36.106
35.6702
35.2437
34.8256
34.4155
34.0132
33.6184
33.2311
32.8512
32.4788
32.1139
31.7565
31.4067
31.0645
30.7297
30.4023
30.0822
29.7691
29.4629
29.1634
28.8704
28.5838
28.3035
28.0294
27.7613
27.4991
27.2427
26.9919
26.7467
26.5066
26.2714
26.0409
25.8147
25.5923
25.3734
25.1574
24.944
24.7326
24.5229
24.3147
24.1077
23.9019
23.6974
23.4944
23.2931
23.094
22.8973
22.7034
22.5131
22.3257
22.1439
21.9632
21.7927
21.6162
21.4639
21.2807
21.1682
20.9316
87.5682
85.0557
81.3463
77.8016
74.6599
71.9319
69.5753
67.5293
65.7237
64.1196
62.6747
61.3642
60.1607
59.0527
58.0334
57.0898
56.219
55.4118
54.6495
53.9155
53.194
52.4747
51.7539
51.0301
50.3046
49.5791
48.8561
48.1379
47.4272
46.7259
46.0367
45.3618
44.7026
44.0603
43.4354
42.8281
42.2381
41.6647
41.1073
40.5648
40.0356
39.5189
39.0137
38.5193
38.0349
37.5599
37.0941
36.6371
36.1889
35.7496
35.3192
34.8978
34.4854
34.0822
33.6879
33.3025
32.926
32.5581
32.1987
31.8472
31.5033
31.1673
30.8388
30.5179
30.2043
29.898
29.5989
29.3068
29.0216
28.743
28.471
28.205
27.945
27.6903
27.4408
27.1957
26.9546
26.7166
26.4813
26.248
26.0163
25.7858
25.5565
25.3282
25.1013
24.876
24.6527
24.4318
24.2138
23.999
23.7884
23.5809
23.3798
23.1798
22.9915
22.7959
22.628
22.425
22.3011
22.0391
79.0842
78.0439
75.6814
73.1525
70.8758
68.8794
67.1358
65.5988
64.2281
62.9995
61.8715
60.8414
59.8767
58.9884
58.1571
57.3535
56.61
55.9351
55.278
54.6716
54.0636
53.4386
52.7955
52.1364
51.4662
50.7888
50.1083
49.4276
48.7509
48.0802
47.4187
46.7694
46.1341
45.5145
44.911
44.3239
43.7526
43.1967
42.6553
42.1274
41.6115
41.1062
40.6105
40.1235
39.6445
39.1732
38.7095
38.2534
37.805
37.3647
36.9325
36.5087
36.0935
35.6869
35.2888
34.8993
34.5182
34.1454
33.7803
33.4239
33.0758
32.7355
32.4027
32.0772
31.7589
31.4476
31.1433
30.8459
30.5552
30.271
29.9933
29.7215
29.4554
29.1944
28.9381
28.6858
28.4368
28.1901
27.9452
27.7013
27.458
27.2151
26.9725
26.7304
26.489
26.2489
26.0105
25.7745
25.5415
25.3118
25.0864
24.8643
24.6489
24.4343
24.2326
24.0223
23.8428
23.6244
23.4922
23.2128
54.732
53.414
52.2078
51.2408
50.5712
50.2059
49.9579
49.7067
49.459
49.2455
49.0125
48.8129
48.6013
48.4253
48.2774
48.0483
47.8939
47.8617
47.6309
47.6388
47.5118
47.3032
47.0359
46.7239
46.3794
46.0092
45.62
45.2147
44.7996
44.3762
43.9532
43.532
43.115
42.7044
42.3
41.9031
41.5122
41.128
40.7503
40.3778
40.0092
39.6429
39.2777
38.9131
38.549
38.1856
37.8235
37.4632
37.1056
36.7513
36.401
36.0552
35.7143
35.3784
35.0479
34.7225
34.4023
34.0872
33.7772
33.4719
33.1713
32.8756
32.5849
32.2994
32.019
31.7438
31.4739
31.2094
30.9501
30.6956
30.4462
30.2024
29.9639
29.7298
29.4994
29.2715
29.0454
28.8197
28.5937
28.3664
28.1376
27.9071
27.6751
27.442
27.2087
26.9759
26.7441
26.5146
26.2878
26.064
25.844
25.6264
25.4151
25.2031
25.0043
24.795
24.6178
24.3994
24.2686
23.9909
28.9061
27.7528
26.9284
26.3419
25.9586
25.9038
25.916
26.0368
26.2741
26.6927
27.1507
27.6843
28.2665
28.9109
29.5596
30.2155
30.8533
31.4731
32.0304
32.5233
32.947
33.2962
33.5757
33.795
33.9678
34.0993
34.1973
34.2609
34.301
34.3088
34.3192
34.3083
34.2839
34.2538
34.2162
34.1766
34.1291
34.0774
34.0201
33.9545
33.8789
33.7913
33.6912
33.5792
33.4559
33.3223
33.1798
33.03
32.8743
32.7139
32.55
32.3834
32.2148
32.0446
31.8732
31.7008
31.5274
31.3532
31.1785
31.0031
30.8273
30.6515
30.4755
30.3002
30.1247
29.9508
29.7782
29.6073
29.4384
29.2697
29.0999
28.9357
28.778
28.6218
28.4655
28.308
28.1482
27.9849
27.8174
27.645
27.4675
27.2854
27.0994
26.9095
26.7174
26.5243
26.3309
26.1387
25.9474
25.7575
25.5692
25.3812
25.1973
25.0112
24.8364
24.6505
24.4943
24.2992
24.1837
23.9455
18.109
17.1535
16.2844
15.5222
14.8966
14.3772
13.9992
13.6758
13.4977
13.3899
13.248
13.261
13.3806
13.5943
13.8292
14.0876
14.3547
14.6477
14.9669
15.2957
15.663
16.0263
16.3976
16.7828
17.1831
17.59
18.0037
18.4122
18.8177
19.2142
19.6107
20.0068
20.4041
20.8017
21.1922
21.5792
21.9492
22.313
22.6508
22.9618
23.2472
23.5044
23.7395
23.9515
24.1424
24.3142
24.4703
24.6118
24.741
24.8587
24.9665
25.0645
25.1539
25.2342
25.3063
25.3696
25.4248
25.4714
25.5097
25.5397
25.5613
25.5774
25.5802
25.5824
25.565
25.5559
25.5393
25.5175
25.4896
25.4637
25.4053
25.3794
25.3811
25.3634
25.3351
25.2979
25.2516
25.1955
25.1296
25.0534
24.9677
24.8731
24.7715
24.6631
24.5515
24.4365
24.3214
24.207
24.0903
23.9721
23.8513
23.728
23.6037
23.4759
23.3536
23.2218
23.1103
22.971
22.8844
22.7202
13.6825
12.778
11.9037
11.102
10.3735
9.7199
9.14599
8.65431
8.24337
7.88646
7.57009
7.29922
7.05886
6.84768
6.67213
6.53154
6.42917
6.34256
6.28018
6.21525
6.20426
6.16317
6.16857
6.19659
6.25317
6.33875
6.45013
6.57776
6.72276
6.87972
7.06133
7.26272
7.49139
7.74194
8.01893
8.31454
8.63358
8.96092
9.31281
9.68263
10.0721
10.4704
10.8815
11.2946
11.7132
12.1294
12.5467
12.9593
13.369
13.7719
14.1685
14.5558
14.9338
15.2997
15.6544
15.9942
16.3224
16.6332
16.9246
17.1986
17.4542
17.6963
17.9229
18.1392
18.3453
18.5402
18.7274
18.9058
19.0761
19.2373
19.3929
19.5465
19.6954
19.8354
19.9639
20.0797
20.1824
20.2706
20.3451
20.4048
20.4508
20.4851
20.5085
20.517
20.5431
20.5485
20.5511
20.5496
20.5325
20.5069
20.4749
20.4398
20.3955
20.349
20.2988
20.2462
20.1931
20.1451
20.0859
20.0567
9.65597
8.84843
8.09722
7.41645
6.78907
6.22381
5.72134
5.28235
4.89965
4.56945
4.28237
4.03463
3.81243
3.62098
3.43956
3.2799
3.12104
2.97603
2.84915
2.73486
2.63493
2.54447
2.46518
2.39639
2.33803
2.28992
2.25166
2.22503
2.20426
2.19607
2.1986
2.20972
2.2233
2.25089
2.29002
2.34158
2.40345
2.47597
2.56035
2.65234
2.76049
2.87447
3.00831
3.14841
3.30957
3.47937
3.66804
3.86931
4.08625
4.31863
4.56461
4.82563
5.09977
5.38576
5.68455
5.99168
6.30912
6.63378
6.9712
7.31727
7.66951
8.03016
8.39174
8.75926
9.12692
9.49495
9.86365
10.2273
10.5899
10.9434
11.292
11.631
11.958
12.2726
12.5706
12.8491
13.108
13.3443
13.5654
13.7636
13.9528
14.1221
14.2857
14.4353
14.5818
14.7196
14.8523
14.9812
15.0964
15.2085
15.3027
15.397
15.4691
15.539
15.5936
15.6601
15.7156
15.7883
15.8182
15.9451
4.87199
4.43704
3.99543
3.58247
3.22448
2.91721
2.65501
2.43297
2.2457
2.08869
1.95708
1.84701
1.75407
1.67543
1.60722
1.54702
1.49197
1.44046
1.39178
1.34531
1.30075
1.25801
1.21725
1.17868
1.14251
1.10876
1.07825
1.05004
1.02469
1.00187
0.981724
0.964007
0.948345
0.93549
0.924677
0.917461
0.911593
0.909681
0.907826
0.909019
0.912158
0.917692
0.927523
0.938525
0.955119
0.971549
0.992393
1.01609
1.04298
1.07519
1.11195
1.15312
1.20372
1.25444
1.32129
1.38341
1.46671
1.5435
1.64211
1.73905
1.85283
1.97675
2.1086
2.26277
2.42261
2.60436
2.80345
3.01011
3.24999
3.48372
3.75206
4.01645
4.29725
4.58474
4.86888
5.16302
5.45529
5.74063
6.04223
6.30751
6.61622
6.87196
7.16924
7.42872
7.71322
7.96757
8.24392
8.48888
8.7416
8.98356
9.20111
9.42084
9.61291
9.79766
9.94097
10.129
10.2868
10.4698
10.5541
10.7816
1.86786
1.825
1.75814
1.68141
1.59948
1.51703
1.43731
1.36251
1.29378
1.23145
1.17545
1.12526
1.0803
1.03982
1.00313
0.969541
0.93848
0.909451
0.882068
0.856111
0.831356
0.807797
0.785317
0.763988
0.743762
0.724668
0.706738
0.689884
0.674187
0.659484
0.645844
0.633129
0.621297
0.610315
0.60005
0.590538
0.581631
0.57336
0.565649
0.558409
0.551729
0.545495
0.539797
0.53463
0.529854
0.52583
0.521948
0.519022
0.516274
0.514406
0.512877
0.513147
0.513571
0.514269
0.516689
0.518872
0.524163
0.528262
0.53672
0.543285
0.555018
0.566208
0.580494
0.597583
0.617086
0.640716
0.67215
0.701743
0.749032
0.788088
0.84935
0.904152
0.975804
1.04755
1.12875
1.21599
1.31113
1.40775
1.52739
1.62572
1.77561
1.88307
2.05234
2.18025
2.36546
2.51249
2.71338
2.87535
3.08775
3.26349
3.46916
3.6687
3.86417
4.0601
4.23363
4.45059
4.57544
4.81813
4.94228
5.26425
1.23276
1.19336
1.15113
1.10622
1.06042
1.01496
0.970916
0.929183
0.890406
0.854853
0.82266
0.793623
0.767578
0.744104
0.722916
0.70357
0.685794
0.669236
0.653696
0.638955
0.624895
0.611417
0.598463
0.586007
0.574024
0.562525
0.551489
0.540939
0.530854
0.521254
0.512106
0.503428
0.495171
0.487363
0.479918
0.472893
0.466153
0.45982
0.453662
0.447939
0.442243
0.437061
0.431751
0.427049
0.422104
0.417802
0.413237
0.409246
0.405059
0.401333
0.397546
0.394095
0.390726
0.387567
0.384559
0.3816
0.378724
0.376063
0.372933
0.370676
0.367135
0.364747
0.361948
0.358326
0.357186
0.357464
0.356928
0.35672
0.359178
0.360599
0.361855
0.369032
0.373094
0.373872
0.376415
0.380958
0.392327
0.401713
0.416673
0.430764
0.449898
0.468885
0.495242
0.518218
0.556769
0.585022
0.632463
0.671363
0.728942
0.770426
0.838475
0.901059
0.97081
1.03799
1.12172
1.1894
1.2433
1.33865
1.40597
1.53458
0.886241
0.864788
0.841992
0.818468
0.795026
0.772159
0.750268
0.72943
0.709734
0.691047
0.673324
0.656379
0.64017
0.62456
0.609568
0.595128
0.581308
0.568071
0.55549
0.54352
0.532205
0.521483
0.511364
0.501777
0.49271
0.484097
0.475912
0.468107
0.460648
0.453509
0.446656
0.440079
0.433742
0.427655
0.421778
0.416133
0.410677
0.405442
0.400377
0.395524
0.390822
0.386321
0.381951
0.377768
0.373693
0.369792
0.365976
0.36232
0.35873
0.355284
0.35189
0.348626
0.345406
0.342304
0.339242
0.336292
0.333375
0.330571
0.32779
0.325123
0.322482
0.319918
0.317445
0.314955
0.312639
0.310276
0.308096
0.305913
0.303828
0.301913
0.299969
0.298329
0.296697
0.29511
0.293939
0.292623
0.291891
0.291219
0.290278
0.289591
0.289801
0.289943
0.290868
0.291861
0.294059
0.296338
0.299123
0.303015
0.306909
0.311729
0.316609
0.323469
0.329925
0.337482
0.34606
0.354298
0.362268
0.371941
0.382015
0.4003
0.690891
0.679521
0.667115
0.653751
0.63978
0.62545
0.611098
0.596882
0.583062
0.5697
0.556965
0.544816
0.533335
0.522408
0.512067
0.502168
0.492739
0.483644
0.474938
0.466505
0.45843
0.450615
0.44316
0.435966
0.429137
0.422561
0.416338
0.41034
0.404665
0.399174
0.393965
0.388899
0.384077
0.379362
0.374864
0.370449
0.366235
0.362088
0.358134
0.354238
0.350529
0.34687
0.343394
0.339958
0.336697
0.333466
0.330399
0.32735
0.324454
0.321565
0.318815
0.316065
0.313444
0.310817
0.308311
0.305798
0.303401
0.300994
0.298706
0.296398
0.294215
0.292002
0.289911
0.287785
0.285769
0.283722
0.281774
0.279786
0.277911
0.275958
0.274148
0.272214
0.270436
0.268578
0.266849
0.265121
0.263438
0.261831
0.260305
0.258733
0.257229
0.255658
0.254123
0.252702
0.251338
0.250087
0.248974
0.248003
0.24712
0.246243
0.245533
0.245192
0.244703
0.244194
0.244068
0.243464
0.24334
0.243274
0.243375
0.243623
0.573087
0.566066
0.558204
0.54968
0.540785
0.531663
0.522511
0.51336
0.504344
0.495442
0.486763
0.478255
0.470017
0.461981
0.454242
0.446719
0.439509
0.432516
0.425836
0.41936
0.413183
0.407187
0.401468
0.395903
0.390594
0.385415
0.380476
0.375646
0.371047
0.36654
0.362255
0.358047
0.354052
0.350117
0.346386
0.342698
0.339203
0.335732
0.332445
0.329165
0.326063
0.322951
0.320013
0.317051
0.314261
0.311436
0.308782
0.306083
0.303557
0.300976
0.298568
0.296097
0.293801
0.291432
0.289239
0.286964
0.284867
0.28268
0.280671
0.278563
0.276637
0.274602
0.272753
0.270785
0.269007
0.2671
0.265389
0.263536
0.261888
0.260086
0.258497
0.256739
0.255205
0.253491
0.252008
0.250336
0.248905
0.24727
0.245893
0.244291
0.242965
0.241393
0.240116
0.238571
0.237353
0.23583
0.234678
0.233174
0.232091
0.230601
0.229579
0.228111
0.227153
0.225709
0.224803
0.223394
0.222529
0.221159
0.220554
0.218534
0.500345
0.495633
0.490318
0.484452
0.478237
0.471746
0.465136
0.458421
0.451729
0.445046
0.438486
0.43201
0.425718
0.419548
0.41359
0.407764
0.402159
0.396682
0.391424
0.386285
0.381359
0.376539
0.371927
0.367406
0.363086
0.358842
0.354788
0.350796
0.346987
0.343224
0.339638
0.336085
0.332703
0.329342
0.32615
0.322965
0.319945
0.31692
0.314057
0.311175
0.308455
0.305703
0.303111
0.300476
0.298004
0.295477
0.293117
0.290691
0.288436
0.286106
0.28395
0.28171
0.27965
0.277494
0.275523
0.273445
0.271555
0.269548
0.267733
0.265791
0.264045
0.262161
0.260479
0.258649
0.257026
0.255243
0.253677
0.251938
0.250424
0.248725
0.247261
0.245597
0.244181
0.242551
0.241181
0.239581
0.238256
0.236685
0.235405
0.23386
0.232625
0.231104
0.229915
0.228415
0.227274
0.225794
0.224704
0.223238
0.222204
0.220746
0.219764
0.21832
0.217381
0.215957
0.215056
0.213666
0.212824
0.211458
0.210522
0.20897
0.454709
0.451092
0.447057
0.442592
0.437854
0.432881
0.427801
0.422605
0.417403
0.412166
0.406993
0.401838
0.396794
0.3918
0.386945
0.382157
0.377526
0.372968
0.368574
0.364251
0.360094
0.356002
0.352075
0.348202
0.344491
0.340824
0.337316
0.333841
0.330521
0.327223
0.324078
0.320943
0.317958
0.314971
0.312134
0.309284
0.306582
0.303858
0.301281
0.298671
0.29621
0.293706
0.291353
0.288946
0.286693
0.284376
0.282217
0.279983
0.277911
0.275754
0.273763
0.271677
0.269763
0.267743
0.265901
0.263943
0.262169
0.260268
0.258559
0.256712
0.255065
0.253268
0.251679
0.249929
0.248396
0.246689
0.245211
0.243543
0.242116
0.240486
0.239108
0.237511
0.236182
0.234615
0.233332
0.231794
0.230555
0.229043
0.227848
0.226359
0.225207
0.223739
0.22263
0.221181
0.220115
0.218681
0.217658
0.216238
0.215259
0.213849
0.212914
0.211513
0.210621
0.209224
0.208383
0.207005
0.206205
0.204863
0.203966
0.202438
0.425075
0.422041
0.418693
0.414996
0.411081
0.406961
0.402747
0.398417
0.39407
0.389671
0.385313
0.380946
0.376661
0.372396
0.36824
0.364119
0.360123
0.356169
0.352348
0.348569
0.344926
0.341322
0.337854
0.334418
0.331118
0.327842
0.324702
0.321577
0.318588
0.315604
0.312754
0.309901
0.307182
0.30445
0.301852
0.299232
0.296747
0.29423
0.291849
0.289428
0.287145
0.284813
0.282623
0.280374
0.27827
0.276099
0.274078
0.271979
0.270034
0.268003
0.26613
0.264161
0.262356
0.260444
0.258704
0.256846
0.255166
0.253357
0.251735
0.249973
0.248406
0.246687
0.245174
0.243496
0.242032
0.240393
0.238979
0.237374
0.236008
0.234436
0.233116
0.231574
0.230298
0.228784
0.227551
0.226062
0.224871
0.223405
0.222256
0.220811
0.219703
0.218277
0.217209
0.2158
0.214773
0.213379
0.212393
0.211011
0.210066
0.208694
0.207792
0.206428
0.205568
0.204206
0.203395
0.202053
0.201281
0.199973
0.199111
0.19762
0.405033
0.402296
0.399322
0.396063
0.39263
0.389023
0.385339
0.38155
0.377745
0.373885
0.370056
0.366207
0.362423
0.358641
0.354946
0.351267
0.347691
0.344136
0.340692
0.337272
0.333968
0.330685
0.327522
0.324376
0.321351
0.318337
0.315445
0.312557
0.30979
0.307021
0.304374
0.301716
0.299181
0.296627
0.294196
0.291739
0.289406
0.287038
0.284797
0.282513
0.280358
0.278152
0.276077
0.273943
0.271945
0.269879
0.267953
0.265951
0.264093
0.26215
0.260358
0.25847
0.25674
0.254904
0.253233
0.251446
0.249831
0.24809
0.246529
0.244831
0.243321
0.241664
0.240203
0.238584
0.237171
0.235586
0.23422
0.232667
0.231346
0.229824
0.228545
0.227051
0.225815
0.224347
0.223152
0.221708
0.220554
0.219131
0.218016
0.216613
0.215538
0.214152
0.213116
0.211746
0.210749
0.209393
0.208435
0.20709
0.206171
0.204836
0.203958
0.202629
0.201792
0.200471
0.199666
0.198354
0.197612
0.196289
0.195708
0.19378
0.390882
0.388325
0.385576
0.382583
0.37945
0.376163
0.372814
0.369366
0.365907
0.362391
0.358903
0.355387
0.351929
0.348462
0.345074
0.341689
0.338396
0.335114
0.331932
0.328762
0.325698
0.322645
0.319701
0.316765
0.313939
0.311116
0.308405
0.305692
0.30309
0.30048
0.297983
0.29547
0.293071
0.29065
0.288343
0.286007
0.283788
0.281533
0.279395
0.277214
0.275154
0.273043
0.271056
0.269011
0.267093
0.265109
0.263257
0.261331
0.259541
0.257669
0.255939
0.254117
0.252444
0.250671
0.249051
0.247324
0.245756
0.244071
0.242553
0.240909
0.239439
0.237832
0.236409
0.234836
0.233458
0.231919
0.230584
0.229076
0.227783
0.226303
0.225052
0.223598
0.222388
0.220958
0.219787
0.21838
0.217248
0.215861
0.214767
0.213399
0.212344
0.210991
0.209974
0.208636
0.207658
0.206332
0.205392
0.204076
0.203175
0.201867
0.201006
0.199704
0.198883
0.197588
0.196799
0.195512
0.194784
0.193488
0.192916
0.19102
0.380519
0.378062
0.375447
0.372622
0.369683
0.366608
0.363484
0.360268
0.357046
0.353768
0.350518
0.347236
0.344009
0.340768
0.3376
0.334428
0.331342
0.328257
0.325266
0.322278
0.31939
0.316503
0.31372
0.310936
0.308258
0.305574
0.302997
0.300411
0.297932
0.295438
0.293052
0.290646
0.288348
0.286025
0.283811
0.281565
0.279431
0.277258
0.275199
0.273094
0.271106
0.269066
0.267145
0.265166
0.263309
0.261387
0.259591
0.257723
0.255986
0.254168
0.252486
0.250716
0.249087
0.247363
0.245785
0.244104
0.242573
0.240934
0.23945
0.237848
0.236409
0.234844
0.233448
0.231917
0.230564
0.229065
0.227752
0.226283
0.22501
0.223569
0.222335
0.22092
0.219724
0.218333
0.217174
0.215805
0.214683
0.213335
0.212248
0.210919
0.209869
0.208556
0.207543
0.206243
0.205269
0.203978
0.203045
0.201759
0.20087
0.199586
0.19874
0.197459
0.196652
0.19538
0.194598
0.193355
0.192573
0.191358
0.190812
0.188951
0.372759
0.37036
0.36783
0.365116
0.362309
0.359379
0.35641
0.353357
0.350301
0.347191
0.34411
0.340997
0.337935
0.334857
0.331847
0.328829
0.325893
0.322953
0.320102
0.317249
0.314491
0.311729
0.309067
0.306398
0.303831
0.301253
0.29878
0.29629
0.293906
0.291501
0.289202
0.286877
0.284661
0.282412
0.280273
0.278095
0.27603
0.27392
0.271924
0.269877
0.267948
0.265961
0.264094
0.262164
0.260358
0.25848
0.256732
0.254905
0.253212
0.251432
0.249792
0.248057
0.246468
0.244776
0.243234
0.241583
0.240088
0.238476
0.237025
0.23545
0.234042
0.232501
0.231135
0.229627
0.228302
0.226824
0.225538
0.224089
0.222842
0.22142
0.22021
0.218813
0.21764
0.216267
0.215129
0.213778
0.212675
0.211344
0.210277
0.208964
0.207931
0.206636
0.205637
0.204356
0.203392
0.202124
0.201197
0.199936
0.19905
0.197793
0.196947
0.195698
0.194882
0.193645
0.192856
0.19164
0.190895
0.189694
0.188875
0.187518
0.366872
0.364501
0.362018
0.359374
0.356654
0.353824
0.350962
0.348024
0.345087
0.342099
0.339139
0.336149
0.333209
0.33025
0.327358
0.324455
0.32163
0.318799
0.316053
0.313302
0.310641
0.307975
0.305403
0.302822
0.300338
0.297841
0.295444
0.293028
0.290715
0.288378
0.286145
0.283882
0.281726
0.279535
0.277452
0.275327
0.273314
0.271252
0.269305
0.267304
0.26542
0.263475
0.261651
0.259759
0.257993
0.256152
0.254441
0.252648
0.25099
0.249241
0.247635
0.245928
0.244371
0.242705
0.241194
0.239567
0.238102
0.23651
0.235089
0.233532
0.232153
0.230628
0.229291
0.227797
0.2265
0.225034
0.223776
0.222337
0.221118
0.219704
0.218522
0.217131
0.215986
0.214617
0.213508
0.212159
0.211085
0.209755
0.208716
0.207403
0.206399
0.205101
0.204133
0.202848
0.201914
0.200642
0.199743
0.198481
0.197618
0.196363
0.195537
0.194289
0.193499
0.192253
0.191505
0.190276
0.189561
0.188366
0.187559
0.186198
0.362311
0.359951
0.357497
0.354898
0.352238
0.349477
0.346692
0.343835
0.340983
0.338083
0.335214
0.332313
0.329463
0.326593
0.323788
0.320972
0.318231
0.315482
0.312816
0.310143
0.307558
0.304964
0.302463
0.29995
0.297532
0.2951
0.292763
0.290408
0.288151
0.28587
0.283689
0.281479
0.27937
0.277227
0.275188
0.273109
0.271136
0.269117
0.267207
0.265245
0.263395
0.261487
0.259695
0.257837
0.2561
0.254291
0.252606
0.250843
0.249209
0.247489
0.245904
0.244225
0.242688
0.241047
0.239555
0.237951
0.236503
0.234934
0.233529
0.231993
0.23063
0.229125
0.227802
0.226326
0.225042
0.223594
0.222349
0.220927
0.219719
0.218321
0.21715
0.215774
0.21464
0.213285
0.212186
0.210851
0.209787
0.208469
0.20744
0.206139
0.205145
0.203858
0.202899
0.201625
0.200701
0.199437
0.198549
0.197294
0.196442
0.195194
0.194379
0.193136
0.192358
0.191117
0.19038
0.189157
0.188452
0.187263
0.186472
0.18511
0.35871
0.35635
0.353909
0.351338
0.348717
0.346004
0.343275
0.340478
0.337692
0.334858
0.332059
0.329229
0.32645
0.323651
0.320918
0.31817
0.315498
0.312815
0.310214
0.307603
0.305079
0.302545
0.300101
0.297644
0.295279
0.292897
0.29061
0.288302
0.28609
0.283853
0.281713
0.279543
0.277472
0.275366
0.273361
0.271316
0.269373
0.267386
0.265504
0.263571
0.261747
0.259865
0.258097
0.256264
0.254548
0.252762
0.251098
0.249356
0.24774
0.246041
0.244472
0.242813
0.241289
0.239668
0.238189
0.236604
0.235166
0.233616
0.23222
0.230703
0.229346
0.22786
0.226542
0.225085
0.223806
0.222377
0.221134
0.219731
0.218525
0.217146
0.215975
0.21462
0.213483
0.21215
0.211048
0.209734
0.208666
0.207371
0.206336
0.205059
0.204057
0.202794
0.201827
0.200576
0.199646
0.198403
0.197512
0.196273
0.195422
0.194186
0.193376
0.192143
0.191368
0.190144
0.189393
0.188197
0.187444
0.186276
0.18575
0.183957
0.355938
0.353568
0.35113
0.348574
0.34598
0.343301
0.340612
0.33786
0.335122
0.33234
0.329594
0.326817
0.324093
0.321348
0.318668
0.315973
0.313352
0.310719
0.308167
0.305602
0.303124
0.300631
0.298228
0.295809
0.293481
0.291133
0.28888
0.286602
0.28442
0.282209
0.280096
0.277949
0.275902
0.273817
0.271833
0.269807
0.267884
0.265913
0.264049
0.262131
0.260324
0.258456
0.256703
0.254883
0.253182
0.251407
0.249757
0.248025
0.246424
0.244733
0.243178
0.241527
0.240017
0.238404
0.236937
0.23536
0.233935
0.232393
0.231009
0.229499
0.228154
0.226676
0.225369
0.223921
0.222652
0.221231
0.219999
0.218604
0.217407
0.216037
0.214876
0.213529
0.212402
0.211076
0.209983
0.208678
0.207618
0.206331
0.205305
0.204035
0.203041
0.201788
0.200826
0.199587
0.198659
0.197431
0.196538
0.195317
0.194463
0.193246
0.19243
0.19122
0.190433
0.189235
0.188472
0.187296
0.186575
0.185413
0.184619
0.183305
0.353893
0.351504
0.349058
0.346506
0.343923
0.341262
0.338596
0.335871
0.333162
0.330412
0.327697
0.324953
0.32226
0.319547
0.316895
0.314228
0.311632
0.309022
0.30649
0.303945
0.301484
0.299007
0.296617
0.294209
0.291891
0.289552
0.287306
0.285034
0.282858
0.280652
0.278545
0.276403
0.274363
0.272283
0.270307
0.268286
0.266373
0.264408
0.262555
0.260645
0.258849
0.25699
0.255248
0.253436
0.251747
0.249981
0.248343
0.246621
0.245032
0.243353
0.241811
0.240172
0.238676
0.237075
0.235624
0.234058
0.23265
0.231119
0.229752
0.228253
0.226926
0.225458
0.22417
0.222731
0.221481
0.220068
0.218855
0.217468
0.216291
0.214928
0.213786
0.212445
0.211339
0.210017
0.208946
0.207644
0.206606
0.205321
0.204317
0.203048
0.202077
0.200824
0.199886
0.198645
0.19774
0.196511
0.19564
0.19442
0.193584
0.192371
0.19157
0.190363
0.189596
0.188391
0.187666
0.186475
0.185783
0.184624
0.183842
0.182523
0.352284
0.349875
0.347417
0.34486
0.342278
0.33962
0.336957
0.334234
0.331526
0.328773
0.326051
0.323298
0.320591
0.317862
0.315191
0.312506
0.309889
0.307262
0.30471
0.302151
0.299671
0.297171
0.29476
0.29233
0.289996
0.287643
0.285388
0.283113
0.280939
0.278739
0.276644
0.274517
0.272496
0.270438
0.268488
0.266494
0.264611
0.262677
0.260857
0.25898
0.257218
0.255394
0.25369
0.251916
0.250265
0.248538
0.246938
0.245253
0.243701
0.242056
0.24055
0.238943
0.237481
0.235909
0.234489
0.23295
0.23157
0.230064
0.228723
0.227246
0.225944
0.224496
0.223231
0.221809
0.220581
0.219184
0.217991
0.216618
0.21546
0.214109
0.212985
0.211656
0.210566
0.209255
0.208198
0.206906
0.205882
0.204607
0.203616
0.202356
0.201397
0.200151
0.199225
0.197992
0.197098
0.195876
0.195015
0.193802
0.192974
0.191769
0.190976
0.189777
0.189017
0.187819
0.187101
0.185918
0.185231
0.184079
0.183304
0.181992
0.351052
0.348577
0.346042
0.343426
0.340766
0.338007
0.335234
0.332389
0.329561
0.326685
0.323855
0.320998
0.318208
0.315406
0.312687
0.309962
0.307332
0.304699
0.302166
0.299628
0.297196
0.294767
0.292442
0.29011
0.28788
0.285635
0.283489
0.281321
0.279252
0.277153
0.275153
0.273117
0.271182
0.269204
0.267329
0.265404
0.263585
0.26171
0.259945
0.258117
0.256403
0.25462
0.252954
0.251214
0.249594
0.247894
0.24632
0.244658
0.243128
0.241503
0.240015
0.238424
0.236978
0.23542
0.234014
0.232487
0.23112
0.229624
0.228295
0.226827
0.225535
0.224094
0.222839
0.221423
0.220204
0.218813
0.217628
0.21626
0.21511
0.213764
0.212647
0.211321
0.210239
0.208931
0.207882
0.206592
0.205575
0.204302
0.203317
0.20206
0.201107
0.199863
0.198942
0.197711
0.196823
0.195602
0.194746
0.193535
0.192713
0.191509
0.19072
0.189522
0.188767
0.18757
0.186855
0.185674
0.18499
0.183842
0.183068
0.18176
0.347442
0.344765
0.342105
0.339373
0.336676
0.333952
0.331272
0.328571
0.325922
0.323256
0.320652
0.318036
0.315488
0.312929
0.310443
0.307948
0.305529
0.303099
0.300749
0.298385
0.296103
0.293803
0.291588
0.289351
0.287202
0.285026
0.28294
0.280823
0.278798
0.276736
0.27477
0.272762
0.270852
0.268895
0.267039
0.265131
0.263327
0.261466
0.259713
0.257897
0.256192
0.254418
0.252761
0.251028
0.249416
0.247723
0.246155
0.244499
0.242974
0.241353
0.23987
0.238284
0.236842
0.235287
0.233885
0.232362
0.230998
0.229504
0.228179
0.226713
0.225424
0.223985
0.222733
0.221319
0.220102
0.218712
0.21753
0.216164
0.215016
0.21367
0.212556
0.211231
0.21015
0.208844
0.207796
0.206507
0.205492
0.204219
0.203236
0.201978
0.201027
0.199784
0.198865
0.197633
0.196747
0.195526
0.194672
0.19346
0.192639
0.191435
0.190648
0.18945
0.188697
0.187499
0.186787
0.185606
0.184927
0.183779
0.183015
0.181698
0.506145
0.522214
0.536016
0.579543
0.601278
0.659147
0.730595
0.847122
1.04327
1.88335
0.463617
0.479925
0.487691
0.517105
0.533374
0.579168
0.614387
0.697543
0.778016
1.25939
0.440224
0.450032
0.454959
0.473531
0.484055
0.517445
0.538409
0.598121
0.64038
0.900698
0.425105
0.43105
0.434088
0.445288
0.451782
0.473011
0.486373
0.526608
0.552732
0.69685
0.413415
0.417328
0.41931
0.426501
0.430524
0.443646
0.451865
0.477133
0.493619
0.575919
0.403739
0.406229
0.407561
0.412401
0.415055
0.42358
0.428692
0.444297
0.45443
0.502249
0.396169
0.397548
0.398262
0.40137
0.403063
0.408699
0.411965
0.421868
0.428083
0.456177
0.39032
0.390867
0.391124
0.392925
0.393893
0.397461
0.399492
0.405806
0.409632
0.426328
0.385447
0.38539
0.385355
0.386217
0.386683
0.388795
0.389984
0.393916
0.396238
0.406342
0.38165
0.381093
0.380721
0.380846
0.380932
0.381954
0.382547
0.384815
0.386148
0.392375
0.378603
0.377711
0.377002
0.376571
0.376365
0.376555
0.376704
0.377755
0.378397
0.382188
0.376126
0.375051
0.37403
0.373306
0.372658
0.372294
0.37211
0.372258
0.372404
0.374528
0.374166
0.372796
0.371684
0.370598
0.369773
0.368967
0.368407
0.36796
0.367699
0.368647
0.372536
0.371061
0.369704
0.368522
0.367324
0.366433
0.365344
0.364767
0.363727
0.364102
0.371208
0.369747
0.368105
0.366917
0.365379
0.364427
0.362959
0.362216
0.360592
0.360525
0.370163
0.368765
0.366862
0.365697
0.363881
0.362885
0.361125
0.360249
0.358474
0.357786
0.369339
0.367948
0.365905
0.364688
0.362755
0.361631
0.359777
0.358681
0.356897
0.355778
0.368772
0.367223
0.365221
0.363798
0.361922
0.36055
0.35875
0.357372
0.355617
0.354207
0.368448
0.366762
0.364776
0.3632
0.361331
0.359795
0.357983
0.356439
0.354638
0.353059
0.367065
0.365051
0.362949
0.361052
0.359045
0.357217
0.35525
0.353447
0.351479
0.34967
0.503932
0.535563
0.59949
0.692728
0.834415
1.0943
1.79646
5.24479
25.258
19.3477
0.503031
0.541
0.595872
0.706296
0.843644
1.10227
1.83297
5.33093
25.2699
18.339
0.502494
0.541182
0.603223
0.699935
0.875262
1.18058
2.00816
5.66896
25.4
17.6571
0.500582
0.539625