/*--------------------------------*- C++ -*----------------------------------*\
  =========                 |
  \\      /  F ield         | OpenFOAM: The Open Source CFD Toolbox
   \\    /   O peration     | Website:  https://openfoam.org
    \\  /    A nd           | Version:  8
     \\/     M anipulation  |
\*---------------------------------------------------------------------------*/
FoamFile
{
    version     2.0;
    format      ascii;
    class       volScalarField;
    location    "4.0000146318";
    object      nut;
}
// * * * * * * * * * * * * * * * * * * * * * * * * * * * * * * * * * * * * * //

dimensions      [0 2 -1 0 0 0 0];

internalField   nonuniform List<scalar> 
6800
(
0.0100244
0.0234764
0.0345285
0.0360571
0.0402881
0.0461498
0.0468907
0.0373311
0.0216648
0.0162683
0.009278
0.0253576
0.0352437
0.0381768
0.0436443
0.0474132
0.0325655
0.0195251
0.0140344
0.0127198
0.0118532
0.0299026
0.0364612
0.0395431
0.046213
0.0326944
0.01943
0.0145431
0.0127782
0.0113323
0.0130605
0.0334256
0.0387261
0.0427762
0.0378168
0.0222845
0.0163646
0.0127904
0.0113668
0.0106874
0.0141024
0.0356719
0.039722
0.0423773
0.026251
0.0173761
0.0128802
0.0122183
0.0113423
0.0101575
0.0150279
0.0380614
0.0423961
0.0370517
0.0214787
0.0151669
0.0142084
0.0121112
0.00992428
0.0092374
0.0157541
0.0407211
0.0442304
0.0294552
0.0172801
0.014589
0.0119519
0.0102154
0.00950211
0.00903066
0.0165647
0.0458693
0.0454995
0.0222637
0.0176974
0.0143614
0.012366
0.0108937
0.00951759
0.00870898
0.0171186
0.0497599
0.0400217
0.0212891
0.0166727
0.0128933
0.0106682
0.00936218
0.00858601
0.00821033
0.0179589
0.0590858
0.0397689
0.0200054
0.0171318
0.0125432
0.0112019
0.00983459
0.00897488
0.00837822
0.0575185
0.246402
0.339317
0.364463
0.37211
0.37308
0.377048
0.382904
0.389274
0.392032
0.0551457
0.237328
0.328038
0.354073
0.35826
0.35611
0.356401
0.358787
0.361696
0.364095
0.0509046
0.218165
0.305071
0.332968
0.334084
0.329726
0.326943
0.324317
0.320973
0.320807
0.0458863
0.196381
0.277675
0.303915
0.30213
0.296349
0.286688
0.280368
0.268546
0.254145
0.0406405
0.174771
0.249336
0.264504
0.257669
0.245465
0.23221
0.216316
0.191806
0.155867
0.036146
0.156054
0.211192
0.211049
0.196372
0.180841
0.16073
0.119139
0.100239
0.0718647
0.032233
0.131702
0.162639
0.146481
0.128947
0.093309
0.0704811
0.0601618
0.0596941
0.0515585
0.0304291
0.103062
0.0935271
0.0783286
0.0547669
0.0505355
0.0524906
0.0510208
0.0506671
0.0456093
0.026028
0.0524075
0.0432037
0.0413198
0.042059
0.0444927
0.0488148
0.048579
0.0469026
0.0389639
0.0183976
0.0288344
0.0323302
0.0368534
0.0395449
0.0436633
0.0488102
0.0453883
0.0413763
0.0249443
0.394029
0.394621
0.391892
0.388438
0.385133
0.382235
0.379777
0.377789
0.376233
0.37504
0.374141
0.37347
0.372936
0.372516
0.372227
0.371998
0.371839
0.37184
0.371958
0.372173
0.37245
0.372746
0.373025
0.373258
0.373429
0.373529
0.373558
0.373518
0.373416
0.373259
0.373062
0.372839
0.372601
0.372358
0.372119
0.371887
0.371665
0.371454
0.371252
0.371057
0.370872
0.370692
0.370516
0.370339
0.370157
0.369967
0.369769
0.369562
0.369346
0.369122
0.368891
0.368657
0.368421
0.368185
0.367951
0.36772
0.367494
0.367272
0.367055
0.366844
0.366638
0.366438
0.366244
0.366055
0.365873
0.365698
0.36553
0.365372
0.365222
0.365082
0.364952
0.364831
0.36472
0.364616
0.364518
0.364423
0.364327
0.364227
0.364118
0.363994
0.363853
0.363689
0.3635
0.363286
0.363044
0.362781
0.36249
0.362191
0.361864
0.361552
0.361204
0.36091
0.360552
0.360312
0.359948
0.359793
0.359463
0.359353
0.359073
0.359176
0.366393
0.367109
0.365463
0.362895
0.360379
0.358253
0.356602
0.355406
0.354584
0.354078
0.353814
0.353744
0.353713
0.35375
0.353899
0.35411
0.354431
0.354909
0.355509
0.356192
0.356908
0.357604
0.358249
0.358817
0.359299
0.35969
0.359993
0.360215
0.360363
0.360447
0.360495
0.360518
0.360525
0.360524
0.360519
0.360516
0.360515
0.360519
0.360526
0.360535
0.360558
0.360582
0.360601
0.36061
0.360607
0.360589
0.360555
0.360506
0.360442
0.360365
0.360278
0.360183
0.360081
0.359978
0.359872
0.359764
0.359656
0.359548
0.359443
0.35934
0.359239
0.35914
0.359046
0.358958
0.358875
0.358801
0.358735
0.35868
0.358635
0.358602
0.35858
0.358568
0.358565
0.358569
0.358578
0.358587
0.358593
0.35859
0.358574
0.358538
0.358478
0.35839
0.358272
0.358123
0.357941
0.357734
0.357496
0.357247
0.356966
0.3567
0.356394
0.356146
0.355828
0.355634
0.35531
0.355209
0.354902
0.354824
0.354935
0.354524
0.326753
0.325571
0.323465
0.320794
0.318488
0.316844
0.315861
0.315421
0.315349
0.315601
0.316078
0.316734
0.317564
0.318558
0.319761
0.321093
0.322619
0.324354
0.326169
0.328011
0.329788
0.33144
0.332943
0.334287
0.335481
0.336531
0.337452
0.338254
0.338955
0.339575
0.340172
0.34073
0.341251
0.341741
0.342204
0.342646
0.343069
0.343475
0.343867
0.344242
0.344589
0.34491
0.345207
0.345478
0.345723
0.34594
0.346131
0.346299
0.346444
0.34657
0.346681
0.346781
0.346869
0.346955
0.347024
0.347084
0.347139
0.347193
0.347248
0.347297
0.347341
0.347387
0.347438
0.347495
0.347559
0.347633
0.347716
0.347812
0.347921
0.348045
0.348181
0.348328
0.348485
0.348649
0.348819
0.348988
0.349151
0.349301
0.349433
0.349538
0.349611
0.349647
0.349645
0.349606
0.349528
0.349422
0.34928
0.349126
0.348936
0.348763
0.348542
0.348383
0.348143
0.348034
0.347777
0.347753
0.347521
0.347495
0.347725
0.347323
0.257282
0.258876
0.26124
0.262127
0.263208
0.264764
0.266686
0.268805
0.27102
0.273331
0.27561
0.277936
0.280164
0.282449
0.284775
0.286893
0.2891
0.291636
0.294051
0.29683
0.299491
0.301909
0.304068
0.305988
0.307702
0.309232
0.310607
0.311836
0.312961
0.313954
0.314807
0.315574
0.316286
0.316965
0.317622
0.318267
0.318901
0.319531
0.320156
0.320774
0.321381
0.321969
0.322533
0.32307
0.323577
0.324054
0.324503
0.324925
0.325326
0.325707
0.326073
0.326427
0.326774
0.327111
0.327454
0.3278
0.328146
0.328496
0.328839
0.329198
0.329569
0.329947
0.330329
0.330715
0.331105
0.331499
0.331898
0.332316
0.332744
0.333184
0.333632
0.334086
0.334545
0.335004
0.335463
0.335913
0.336349
0.336759
0.337136
0.33747
0.337757
0.337992
0.338174
0.338304
0.33838
0.338418
0.338406
0.338378
0.338302
0.338243
0.338121
0.338064
0.337909
0.337894
0.337711
0.337773
0.337611
0.337673
0.337986
0.33774
0.154277
0.156259
0.159137
0.162645
0.166923
0.17235
0.177953
0.183171
0.188087
0.192934
0.197448
0.201974
0.206271
0.210688
0.215174
0.218956
0.2231
0.228266
0.231401
0.237019
0.241547
0.245468
0.248958
0.252116
0.255018
0.257699
0.260194
0.262511
0.264684
0.266728
0.268722
0.270647
0.27251
0.274324
0.276084
0.277808
0.279481
0.281118
0.282723
0.284291
0.285815
0.287278
0.288678
0.29001
0.291272
0.292468
0.293602
0.294684
0.295718
0.296714
0.297676
0.298611
0.299524
0.300415
0.301289
0.302148
0.302992
0.303822
0.30464
0.305439
0.306224
0.306998
0.307763
0.308524
0.309278
0.310029
0.310775
0.311508
0.31223
0.312942
0.313654
0.314386
0.315138
0.315899
0.316662
0.317415
0.318149
0.318846
0.3195
0.320097
0.320632
0.321103
0.321507
0.321853
0.32214
0.32239
0.322586
0.322775
0.322913
0.323074
0.323157
0.323305
0.32333
0.323496
0.323468
0.323691
0.323669
0.32388
0.324297
0.324278
0.0731548
0.0758611
0.0787843
0.0817058
0.0845643
0.0884252
0.0919078
0.0956302
0.0995612
0.104329
0.109109
0.114238
0.119416
0.12604
0.132157
0.138426
0.144626
0.150829
0.155655
0.160659
0.16562
0.170364
0.174825
0.179025
0.183032
0.186852
0.19052
0.194002
0.197377
0.20052
0.203793
0.206892
0.209881
0.212836
0.215728
0.218615
0.221431
0.224224
0.226973
0.229652
0.232248
0.234727
0.23712
0.239411
0.241594
0.243686
0.245701
0.247649
0.249539
0.251381
0.253182
0.254946
0.256677
0.258376
0.260046
0.261685
0.263296
0.264876
0.266427
0.267949
0.26944
0.270906
0.272339
0.273752
0.275127
0.276491
0.277844
0.279191
0.28053
0.281841
0.283087
0.284407
0.285825
0.287243
0.288638
0.289996
0.291306
0.292553
0.293727
0.294818
0.295821
0.296739
0.297576
0.298328
0.299009
0.29965
0.300228
0.3008
0.301299
0.301812
0.302208
0.302655
0.302934
0.303348
0.303529
0.303963
0.304121
0.304542
0.305065
0.305538
0.0520179
0.052205
0.0522836
0.0523236
0.0525348
0.0528773
0.0535907
0.0542659
0.0554845
0.0568909
0.0576897
0.0593981
0.0617603
0.0647234
0.067677
0.0707491
0.0737834
0.0769369
0.0804261
0.0842598
0.0880248
0.0915065
0.0950008
0.0985961
0.102325
0.106091
0.10992
0.113709
0.117478
0.12119
0.124943
0.128743
0.132606
0.136521
0.140434
0.144384
0.148251
0.152169
0.155901
0.159454
0.16285
0.166068
0.169416
0.172543
0.175522
0.178485
0.181425
0.184325
0.187194
0.190032
0.192843
0.195623
0.198374
0.201088
0.203769
0.206405
0.209001
0.211549
0.214044
0.216483
0.218854
0.221207
0.2234
0.225652
0.227619
0.229782
0.231874
0.233898
0.235838
0.237902
0.239383
0.241513
0.244224
0.246616
0.248849
0.250941
0.252919
0.254789
0.256554
0.258208
0.259756
0.261198
0.262562
0.263832
0.265065
0.266249
0.267413
0.268599
0.269675
0.270742
0.271647
0.27258
0.273287
0.274123
0.274677
0.275497
0.275957
0.276788
0.277407
0.27851
0.0451495
0.0442314
0.0431251
0.0420246
0.0409915
0.0400842
0.0393537
0.038879
0.0386642
0.0385966
0.038529
0.038643
0.0386366
0.0385623
0.0386112
0.0387948
0.0391773
0.0395303
0.0399519
0.0402257
0.0409715
0.0411663
0.0418202
0.0425203
0.0435586
0.0446923
0.0460502
0.0474261
0.04888
0.0504067
0.052171
0.0540879
0.0562326
0.0585364
0.0610761
0.0637359
0.0666289
0.0695192
0.0727245
0.0761129
0.0797975
0.0835459
0.0873974
0.0912606
0.0951674
0.0990638
0.102987
0.106903
0.110825
0.114735
0.11863
0.122499
0.126339
0.13013
0.133886
0.137562
0.141216
0.14475
0.148146
0.151417
0.154569
0.157708
0.160773
0.163838
0.166905
0.169887
0.172952
0.175886
0.178823
0.182027
0.18496
0.188242
0.191261
0.194249
0.197223
0.199959
0.202633
0.205214
0.207711
0.210086
0.212365
0.214537
0.216639
0.218531
0.220894
0.222914
0.224909
0.226857
0.22847
0.229992
0.231329
0.232696
0.233777
0.235014
0.23595
0.237192
0.237902
0.239385
0.239668
0.242129
0.03764
0.0360343
0.034537
0.0331567
0.0317612
0.030443
0.0292421
0.0281976
0.0273101
0.0265707
0.0259923
0.0255182
0.0251226
0.0248666
0.0244342
0.0240309
0.0234156
0.0228159
0.0223155
0.0218652
0.0214965
0.0211517
0.0208696
0.0206312
0.0204573
0.0203333
0.0202722
0.0202891
0.020324
0.0204461
0.0207256
0.0209505
0.0211714
0.0215122
0.0220673
0.0226845
0.0233794
0.0241536
0.0250387
0.0259657
0.0270627
0.02821
0.029575
0.0309985
0.032645
0.0343729
0.036287
0.0383323
0.0405249
0.0428881
0.0453765
0.0480345
0.050818
0.0537366
0.0567852
0.0599347
0.0631893
0.0665507
0.0701069
0.0738084
0.0776135
0.081505
0.0853985
0.089375
0.0933687
0.0973807
0.101452
0.105477
0.109557
0.113568
0.117614
0.121612
0.125559
0.12942
0.133179
0.136734
0.140121
0.143282
0.146379
0.149234
0.152163
0.154836
0.157618
0.160242
0.162938
0.165586
0.168265
0.170694
0.17305
0.175566
0.177448
0.179615
0.181583
0.183747
0.185631
0.187812
0.189666
0.19204
0.193245
0.197011
0.0238501
0.0226205
0.0211211
0.0195861
0.0182835
0.0171905
0.0162819
0.0155369
0.0149361
0.0144656
0.0141054
0.0138453
0.0136672
0.0135606
0.0134935
0.013449
0.0134004
0.0133374
0.0132603
0.0131678
0.0130619
0.0129453
0.0128237
0.0127018
0.0125831
0.0124686
0.0123754
0.0122831
0.0122045
0.0121419
0.0120923
0.0120484
0.0120035
0.0119878
0.0119691
0.0119984
0.0120112
0.0120426
0.0121426
0.0121455
0.0122274
0.0123283
0.0124978
0.0126441
0.0128683
0.0130545
0.0132985
0.0135799
0.0138996
0.0142907
0.0147356
0.0152292
0.0158511
0.0164427
0.0172688
0.0179835
0.0190086
0.0198946
0.0210945
0.0222305
0.0236056
0.0250827
0.0266666
0.0285172
0.0304381
0.0326132
0.0350264
0.0374814
0.0404248
0.0431971
0.0465288
0.0497142
0.0532358
0.0567915
0.0603793
0.0641256
0.0679402
0.0716901
0.0758073
0.0793288
0.0837124
0.0871718
0.0915216
0.0951696
0.0994974
0.103149
0.107571
0.111103
0.1152
0.118805
0.122243
0.125589
0.128745
0.131392
0.133772
0.136686
0.139343
0.142443
0.14368
0.146442
0.0129406
0.0129869
0.0128332
0.0126153
0.0123504
0.0120671
0.0117873
0.0115278
0.0112988
0.0111036
0.0109435
0.0108144
0.0107132
0.0106337
0.010571
0.0105189
0.0104732
0.0104298
0.0103856
0.0103397
0.0102904
0.0102394
0.0101858
0.0101321
0.0100779
0.0100249
0.00997406
0.0099245
0.00987834
0.00983363
0.00979177
0.00975261
0.00971401
0.0096795
0.00964434
0.00961382
0.00958226
0.00955488
0.00952646
0.00950154
0.00947426
0.00945645
0.0094339
0.00942585
0.00940729
0.00940985
0.00939452
0.00940613
0.00939925
0.00942024
0.0094224
0.0094722
0.00949465
0.00951245
0.0095787
0.00960944
0.00969876
0.0097491
0.00986939
0.00993077
0.0101094
0.0102041
0.0104207
0.0105965
0.0108709
0.0111661
0.0116038
0.011982
0.012683
0.0131716
0.014168
0.0148784
0.0160947
0.017078
0.0183823
0.01973
0.0211173
0.0227567
0.0244861
0.0261706
0.028488
0.0302457
0.0330037
0.0350041
0.0381978
0.0403034
0.0439773
0.0461354
0.0499687
0.0524015
0.0556517
0.058788
0.0618607
0.0642213
0.0672339
0.070172
0.0709394
0.0749032
0.0763151
0.0822367
0.010627
0.010572
0.0104885
0.0103659
0.0102236
0.0100705
0.00991657
0.00977254
0.00964541
0.00953668
0.0094482
0.00937734
0.0093232
0.00928124
0.00924962
0.00922394
0.00920286
0.00918324
0.00916454
0.00914514
0.00912512
0.00910407
0.00908227
0.00905976
0.00903682
0.00901361
0.00899009
0.00896627
0.00894219
0.00891765
0.00889264
0.0088672
0.00884114
0.00881535
0.00878849
0.00876307
0.00873576
0.00871171
0.00868362
0.00866218
0.00863239
0.00861529
0.00858469
0.00857281
0.00854347
0.00853574
0.00850976
0.00850339
0.00848212
0.00847485
0.00845912
0.00845358
0.00844375
0.00843969
0.00843545
0.00843235
0.00843517
0.00843296
0.0084405
0.00844793
0.0084451
0.00847142
0.00846158
0.00846822
0.00853872
0.00853979
0.00855233
0.00847288
0.00854175
0.0086403
0.00861702
0.00893469
0.00894207
0.00879259
0.00855239
0.00849843
0.00857732
0.00869282
0.0088631
0.00915542
0.00942245
0.00980248
0.0103454
0.010667
0.0116184
0.011988
0.0129912
0.0136839
0.0148882
0.0151963
0.0167268
0.0178386
0.0188248
0.0201999
0.0217586
0.0225708
0.0227471
0.0243529
0.025909
0.0276642
0.00945857
0.0094379
0.00941254
0.00938348
0.00935604
0.00933231
0.00931468
0.00929727
0.0092803
0.00926225
0.00924367
0.0092221
0.00919779
0.00916867
0.00913583
0.00909835
0.00905822
0.0090152
0.00897145
0.0089267
0.00888263
0.0088387
0.00879594
0.00875374
0.0087126
0.00867215
0.00863252
0.00859374
0.00855569
0.00851877
0.00848274
0.00844812
0.00841461
0.00838272
0.00835209
0.0083232
0.00829554
0.00826963
0.00824478
0.00822156
0.00819917
0.00817823
0.00815775
0.00813869
0.00811957
0.00810207
0.00808399
0.00806776
0.00805066
0.00803545
0.00801941
0.00800509
0.0079902
0.00797673
0.00796307
0.00795041
0.007938
0.00792608
0.00791483
0.00790361
0.0078933
0.00788242
0.00787366
0.00786175
0.00785565
0.00784287
0.00783905
0.0078252
0.0078198
0.00780918
0.00780092
0.00779575
0.00778723
0.007772
0.00776924
0.00775427
0.00775808
0.00776644
0.00774284
0.00773809
0.00776509
0.0077981
0.00785052
0.0078885
0.00795753
0.00803607
0.00807675
0.00819853
0.00825762
0.00835694
0.00838633
0.00858551
0.00861091
0.00878973
0.00892644
0.00905654
0.00915168
0.00923555
0.00953107
0.00963161
0.00878951
0.0087666
0.00873862
0.00870494
0.00866856
0.00862908
0.0085885
0.00854599
0.00850398
0.00846164
0.00842161
0.00838287
0.00834783
0.00831487
0.00828591
0.00825867
0.00823464
0.00821109
0.0081893
0.00816646
0.00814403
0.00811939
0.00809445
0.00806692
0.00803924
0.00800929
0.00797997
0.00794913
0.00791986
0.00788983
0.00786214
0.00783425
0.00780911
0.00778401
0.0077618
0.0077396
0.00772018
0.0077006
0.00768357
0.00766612
0.00765098
0.00763517
0.00762141
0.00760679
0.00759404
0.00758031
0.00756835
0.00755537
0.00754412
0.00753191
0.0075214
0.00751001
0.00750037
0.00748986
0.00748121
0.00747163
0.00746395
0.00745538
0.00744857
0.0074409
0.00743509
0.00742804
0.00742311
0.0074167
0.00741245
0.0074068
0.00740323
0.00739838
0.00739559
0.00739063
0.00738762
0.00738044
0.00737322
0.00736479
0.00735308
0.00734422
0.00732996
0.00732049
0.00731162
0.00730215
0.00728869
0.00728116
0.007267
0.00726764
0.00726855
0.00727264
0.00727836
0.007306
0.00730263
0.00731016
0.00732292
0.00733954
0.00736024
0.00735633
0.00739578
0.00737579
0.00741113
0.00741295
0.00736627
0.00738861
0.00825336
0.00824994
0.00824036
0.00822619
0.0082095
0.00818971
0.00816838
0.0081443
0.00811905
0.00809136
0.00806302
0.00803258
0.00800197
0.00796957
0.00793749
0.00790394
0.00787126
0.00783754
0.00780531
0.00777252
0.00774181
0.0077109
0.0076825
0.00765405
0.00762829
0.00760242
0.00757923
0.00755574
0.00753481
0.00751335
0.00749436
0.00747457
0.00745719
0.00743881
0.0074228
0.00740561
0.00739081
0.00737466
0.00736095
0.00734577
0.0073331
0.00731887
0.00730723
0.00729391
0.00728329
0.00727087
0.00726123
0.00724966
0.00724091
0.0072301
0.00722211
0.00721195
0.0072046
0.00719498
0.00718814
0.00717896
0.00717256
0.00716376
0.00715776
0.00714932
0.00714372
0.00713565
0.00713046
0.00712277
0.007118
0.00711072
0.00710635
0.00709947
0.00709551
0.00708899
0.00708535
0.00707914
0.00707567
0.00706972
0.00706633
0.00706059
0.00705732
0.00705169
0.00704859
0.00704315
0.00704011
0.00703487
0.00703201
0.0070269
0.00702505
0.00701998
0.00701905
0.00701419
0.00701432
0.00700856
0.00700906
0.00700308
0.00700371
0.00699795
0.00699751
0.00699286
0.00698923
0.00698516
0.00700184
0.0069656
0.00779807
0.00779544
0.00778745
0.00777465
0.0077594
0.00774119
0.00772188
0.00770033
0.00767836
0.00765472
0.00763141
0.00760706
0.00758373
0.0075598
0.00753727
0.0075142
0.00749258
0.00747022
0.0074492
0.00742722
0.0074066
0.00738496
0.00736489
0.00734391
0.00732483
0.00730499
0.00728734
0.00726899
0.00725299
0.00723621
0.00722179
0.00720639
0.0071933
0.00717897
0.00716689
0.00715334
0.00714203
0.00712906
0.00711837
0.0071059
0.0070958
0.0070838
0.00707433
0.00706285
0.00705406
0.00704314
0.00703507
0.00702474
0.00701738
0.00700762
0.00700094
0.0069917
0.00698563
0.00697686
0.00697131
0.00696296
0.00695783
0.00694987
0.0069451
0.00693749
0.00693305
0.00692576
0.00692163
0.00691464
0.00691081
0.00690411
0.00690055
0.00689411
0.00689081
0.00688459
0.00688149
0.00687544
0.00687246
0.00686652
0.00686357
0.0068577
0.00685473
0.00684887
0.00684583
0.00683999
0.00683694
0.00683112
0.0068281
0.00682244
0.00681972
0.00681423
0.00681201
0.00680672
0.0068052
0.00679964
0.00679857
0.00679305
0.00679158
0.00678639
0.0067841
0.00677985
0.00677955
0.00677576
0.00675322
0.00678277
0.00746068
0.00746188
0.0074595
0.00745278
0.00744373
0.00743168
0.0074184
0.00740279
0.00738661
0.00736862
0.00735066
0.00733133
0.00731251
0.00729262
0.00727363
0.00725376
0.00723511
0.00721572
0.0071978
0.00717922
0.0071623
0.00714471
0.00712891
0.00711234
0.00709765
0.00708206
0.00706839
0.0070537
0.00704097
0.00702709
0.00701523
0.0070021
0.00699107
0.00697865
0.00696841
0.00695666
0.00694717
0.00693604
0.00692725
0.0069167
0.00690856
0.00689854
0.006891
0.00688143
0.00687445
0.0068653
0.00685882
0.00685003
0.00684402
0.00683556
0.00682998
0.00682182
0.00681664
0.00680877
0.00680396
0.00679636
0.0067919
0.00678457
0.00678045
0.00677337
0.00676956
0.00676272
0.0067592
0.00675259
0.00674934
0.00674294
0.00673995
0.00673374
0.00673097
0.00672493
0.00672236
0.00671646
0.00671406
0.0067083
0.00670604
0.00670039
0.00669824
0.0066927
0.00669063
0.00668518
0.00668317
0.00667782
0.00667584
0.0066706
0.00666865
0.00666349
0.0066616
0.0066565
0.00665471
0.00664963
0.00664791
0.00664289
0.00664122
0.00663627
0.00663457
0.00662997
0.00662811
0.00662389
0.00662096
0.00661641
0.00720834
0.00721098
0.00721064
0.00720633
0.00720001
0.007191
0.00718105
0.00716907
0.00715678
0.00714288
0.00712915
0.00711413
0.00709968
0.00708416
0.00706953
0.00705396
0.0070395
0.00702417
0.00701012
0.00699521
0.00698173
0.00696739
0.00695462
0.00694094
0.00692896
0.006916
0.00690483
0.00689259
0.00688221
0.00687064
0.00686097
0.00684999
0.00684098
0.00683052
0.00682209
0.00681209
0.0068042
0.00679462
0.00678723
0.00677804
0.00677112
0.00676228
0.00675583
0.00674733
0.00674131
0.00673314
0.00672755
0.00671968
0.00671449
0.00670691
0.00670212
0.00669481
0.00669038
0.00668333
0.00667924
0.00667242
0.00666864
0.00666202
0.00665852
0.00665207
0.00664883
0.00664253
0.00663951
0.00663334
0.0066305
0.00662444
0.00662178
0.00661582
0.00661331
0.00660743
0.00660506
0.00659926
0.006597
0.00659128
0.00658913
0.00658348
0.00658143
0.00657586
0.00657388
0.0065684
0.00656648
0.00656108
0.00655922
0.00655391
0.00655209
0.00654688
0.00654512
0.00653999
0.00653829
0.00653325
0.00653161
0.00652663
0.00652509
0.00652014
0.00651864
0.00651398
0.0065123
0.00650801
0.00650551
0.0065008
0.00701965
0.00702347
0.007025
0.00702304
0.00701938
0.00701316
0.0070061
0.00699702
0.00698764
0.00697664
0.0069658
0.00695363
0.006942
0.00692924
0.0069173
0.00690437
0.00689248
0.00687967
0.00686808
0.00685557
0.00684443
0.00683235
0.00682174
0.00681016
0.00680014
0.00678907
0.00677964
0.00676909
0.00676024
0.00675019
0.00674192
0.00673233
0.0067246
0.00671545
0.00670822
0.00669948
0.00669272
0.00668434
0.00667801
0.00666995
0.00666402
0.00665625
0.0066507
0.00664319
0.00663799
0.00663072
0.00662585
0.0066188
0.00661424
0.00660739
0.00660313
0.00659647
0.00659248
0.00658599
0.00658226
0.00657593
0.00657244
0.00656626
0.006563
0.00655695
0.0065539
0.00654797
0.00654512
0.0065393
0.00653664
0.00653092
0.00652842
0.00652279
0.00652045
0.0065149
0.0065127
0.00650723
0.00650515
0.00649975
0.00649777
0.00649243
0.00649055
0.00648527
0.00648346
0.00647825
0.00647651
0.00647136
0.00646967
0.00646458
0.00646295
0.00645793
0.00645633
0.00645138
0.00644984
0.00644493
0.00644346
0.0064386
0.00643715
0.00643247
0.00643092
0.00642644
0.00642481
0.00642082
0.00641916
0.00641337
0.00687611
0.00688048
0.00688291
0.00688213
0.00687994
0.00687535
0.0068701
0.00686294
0.00685562
0.00684671
0.00683806
0.00682806
0.00681863
0.00680803
0.00679825
0.0067874
0.00677758
0.00676674
0.0067571
0.00674645
0.00673713
0.0067268
0.00671789
0.00670793
0.00669948
0.00668993
0.00668195
0.00667279
0.00666528
0.00665652
0.00664945
0.00664106
0.00663442
0.00662638
0.00662013
0.00661241
0.00660654
0.00659911
0.00659359
0.00658642
0.00658123
0.0065743
0.00656941
0.00656269
0.0065581
0.00655157
0.00654725
0.00654089
0.00653683
0.00653064
0.00652681
0.00652077
0.00651715
0.00651126
0.00650782
0.00650207
0.0064988
0.00649316
0.00649006
0.00648452
0.00648157
0.00647613
0.00647333
0.00646797
0.0064653
0.00646002
0.00645749
0.00645228
0.00644987
0.00644472
0.00644243
0.00643735
0.00643516
0.00643015
0.00642805
0.0064231
0.00642108
0.00641618
0.00641424
0.0064094
0.00640752
0.00640273
0.00640093
0.00639616
0.00639446
0.00638969
0.00638811
0.00638332
0.00638185
0.00637706
0.00637569
0.00637091
0.00636956
0.00636498
0.00636349
0.00635909
0.00635753
0.00635372
0.00635187
0.00634609
0.00676655
0.00677101
0.00677392
0.00677394
0.00677283
0.00676947
0.00676561
0.00675989
0.00675412
0.00674676
0.00673973
0.00673134
0.00672357
0.00671458
0.00670646
0.00669719
0.00668899
0.00667969
0.00667159
0.0066624
0.00665454
0.00664555
0.00663801
0.00662929
0.0066221
0.00661368
0.00660686
0.00659875
0.0065923
0.0065845
0.00657839
0.00657088
0.00656512
0.00655788
0.00655242
0.00654543
0.00654027
0.00653351
0.00652862
0.00652206
0.00651743
0.00651105
0.00650667
0.00650046
0.00649632
0.00649025
0.00648633
0.00648041
0.00647669
0.00647091
0.00646737
0.00646173
0.00645835
0.00645285
0.00644961
0.00644425
0.00644112
0.0064359
0.00643288
0.00642779
0.00642487
0.00641991
0.00641707
0.00641222
0.00640947
0.00640473
0.00640205
0.00639742
0.0063948
0.00639028
0.00638769
0.00638329
0.00638073
0.00637644
0.00637389
0.00636973
0.00636717
0.00636314
0.00636057
0.00635665
0.00635408
0.00635025
0.00634773
0.0063439
0.00634154
0.00633757
0.00633552
0.00633127
0.00632962
0.00632507
0.00632377
0.00631909
0.00631777
0.00631341
0.00631165
0.00630876
0.00630302
0.0063031
0.00630237
0.00629707
0.00668419
0.00668859
0.00669171
0.00669219
0.00669176
0.00668921
0.00668628
0.00668158
0.00667689
0.00667067
0.00666482
0.00665762
0.00665106
0.00664327
0.00663635
0.00662826
0.00662121
0.00661302
0.00660602
0.00659786
0.00659104
0.00658302
0.00657645
0.00656862
0.00656234
0.00655473
0.00654876
0.00654139
0.00653574
0.00652859
0.00652324
0.00651632
0.00651126
0.00650455
0.00649976
0.00649324
0.0064887
0.00648235
0.00647805
0.00647186
0.00646778
0.00646173
0.00645787
0.00645193
0.00644828
0.00644245
0.006439
0.00643325
0.00642999
0.00642433
0.00642125
0.00641568
0.00641275
0.00640727
0.00640448
0.00639909
0.00639642
0.00639113
0.00638856
0.00638338
0.00638089
0.00637582
0.0063734
0.00636843
0.00636609
0.00636121
0.00635894
0.00635415
0.00635193
0.00634724
0.00634506
0.00634047
0.00633831
0.00633383
0.00633168
0.00632731
0.00632514
0.0063209
0.0063187
0.00631461
0.00631236
0.0063084
0.0063061
0.00630228
0.00629995
0.00629621
0.00629395
0.00629013
0.00628812
0.0062841
0.00628227
0.00627847
0.00627614
0.0062729
0.00627012
0.00626805
0.00626413
0.00626414
0.0062451
0.00627209
0.00662134
0.0066255
0.00662859
0.0066293
0.00662926
0.00662727
0.00662499
0.00662103
0.00661711
0.00661172
0.00660668
0.00660034
0.00659461
0.00658769
0.00658159
0.00657435
0.00656812
0.00656076
0.00655455
0.0065472
0.00654112
0.00653386
0.00652798
0.00652085
0.00651521
0.00650824
0.00650286
0.00649605
0.00649094
0.00648431
0.00647946
0.00647299
0.00646839
0.00646207
0.00645772
0.00645155
0.00644743
0.00644138
0.00643748
0.00643156
0.00642786
0.00642204
0.00641854
0.00641281
0.00640951
0.00640385
0.00640074
0.00639515
0.00639223
0.00638668
0.00638395
0.00637843
0.00637588
0.00637039
0.00636803
0.00636256
0.00636036
0.00635491
0.00635287
0.00634744
0.00634555
0.00634014
0.00633838
0.00633299
0.00633138
0.00632598
0.00632451
0.00631911
0.00631777
0.00631236
0.00631115
0.00630573
0.00630465
0.00629921
0.00629825
0.00629279
0.00629195
0.00628646
0.00628574
0.00628023
0.00627961
0.00627408
0.00627357
0.00626801
0.00626762
0.00626201
0.00626176
0.00625606
0.006256
0.00625018
0.00625031
0.0062444
0.00624463
0.00623855
0.00623921
0.00623377
0.00623529
0.00623125
0.00621157
0.0062369
0.00657324
0.00657713
0.00658013
0.00658091
0.00658109
0.00657941
0.00657751
0.00657398
0.00657056
0.00656569
0.00656121
0.00655544
0.0065503
0.00654396
0.00653846
0.0065318
0.00652614
0.00651934
0.00651367
0.00650685
0.00650128
0.00649453
0.00648912
0.00648248
0.00647728
0.00647078
0.0064658
0.00645945
0.0064547
0.00644849
0.00644397
0.00643791
0.00643361
0.00642769
0.0064236
0.0064178
0.00641391
0.00640822
0.00640452
0.00639893
0.00639542
0.00638992
0.00638657
0.00638115
0.00637797
0.00637262
0.00636959
0.0063643
0.00636143
0.00635619
0.00635348
0.00634827
0.00634571
0.00634053
0.00633813
0.00633295
0.00633072
0.00632554
0.00632347
0.00631828
0.00631637
0.00631117
0.00630941
0.0063042
0.00630258
0.00629735
0.00629587
0.00629063
0.00628929
0.00628402
0.00628281
0.00627752
0.00627643
0.00627111
0.00627015
0.00626479
0.00626396
0.00625857
0.00625785
0.00625242
0.00625183
0.00624634
0.00624589
0.00624033
0.00624005
0.00623436
0.0062343
0.00622845
0.00622863
0.00622263
0.00622303
0.00621689
0.00621742
0.00621118
0.00621225
0.00620644
0.00620636
0.00620251
0.0062005
0.00619508
0.00653409
0.00653774
0.00654062
0.00654138
0.00654166
0.00654014
0.00653851
0.00653526
0.0065322
0.0065277
0.00652365
0.00651829
0.00651361
0.00650771
0.00650267
0.00649645
0.00649125
0.00648489
0.00647968
0.00647329
0.00646816
0.00646182
0.00645683
0.00645059
0.00644578
0.00643966
0.00643504
0.00642905
0.00642463
0.00641876
0.00641453
0.0064088
0.00640475
0.00639913
0.00639526
0.00638975
0.00638605
0.00638063
0.00637709
0.00637175
0.00636838
0.00636311
0.00635988
0.00635467
0.0063516
0.00634644
0.00634351
0.0063384
0.00633561
0.00633054
0.00632787
0.00632285
0.0063203
0.00631532
0.00631288
0.00630795
0.00630561
0.00630071
0.00629848
0.00629361
0.00629148
0.00628665
0.00628461
0.0062798
0.00627786
0.00627308
0.00627122
0.00626646
0.00626469
0.00625996
0.00625826
0.00625355
0.00625192
0.00624723
0.00624567
0.00624101
0.0062395
0.00623487
0.00623341
0.00622881
0.00622742
0.0062228
0.00622154
0.00621681
0.00621581
0.00621082
0.00621022
0.00620484
0.00620474
0.00619893
0.0061993
0.00619318
0.00619371
0.00618793
0.00618787
0.00618311
0.00617964
0.00617619
0.00619193
0.00615712
0.00650193
0.00650535
0.00650813
0.00650889
0.00650929
0.00650795
0.00650656
0.0065036
0.00650088
0.00649673
0.00649308
0.00648812
0.00648386
0.00647837
0.00647376
0.00646795
0.00646317
0.0064572
0.00645239
0.00644636
0.0064416
0.00643558
0.00643093
0.00642497
0.00642046
0.00641458
0.00641023
0.00640444
0.00640024
0.00639454
0.0063905
0.00638489
0.00638101
0.00637549
0.00637175
0.00636631
0.00636272
0.00635736
0.00635392
0.00634861
0.00634532
0.00634007
0.00633693
0.00633172
0.00632873
0.00632354
0.0063207
0.00631554
0.00631285
0.00630772
0.00630516
0.00630006
0.00629762
0.00629256
0.00629022
0.00628522
0.00628297
0.00627803
0.00627585
0.00627098
0.00626887
0.00626406
0.00626202
0.00625726
0.00625531
0.00625059
0.00624871
0.00624402
0.00624222
0.00623757
0.00623583
0.00623122
0.00622954
0.00622497
0.00622334
0.00621881
0.00621723
0.00621274
0.0062112
0.00620676
0.00620525
0.00620085
0.00619938
0.00619501
0.00619361
0.00618919
0.00618799
0.00618335
0.00618254
0.00617755
0.00617707
0.00617208
0.00617138
0.00616685
0.00616548
0.00616185
0.00616201
0.00615858
0.00613905
0.0061654
0.00647853
0.00648166
0.00648424
0.00648492
0.00648533
0.00648406
0.0064828
0.00648
0.00647747
0.00647354
0.0064701
0.00646536
0.00646131
0.00645602
0.00645158
0.00644594
0.00644129
0.00643543
0.0064307
0.00642472
0.00642
0.00641399
0.00640934
0.00640333
0.00639877
0.00639279
0.00638836
0.00638243
0.00637815
0.0063723
0.00636818
0.0063624
0.00635845
0.00635277
0.00634899
0.0063434
0.0063398
0.00633429
0.00633086
0.00632544
0.00632218
0.00631684
0.00631373
0.00630844
0.00630547
0.00630023
0.00629743
0.00629224
0.00628959
0.00628445
0.00628194
0.00627686
0.00627449
0.00626947
0.00626721
0.00626225
0.00626011
0.0062552
0.00625316
0.00624831
0.00624637
0.00624157
0.00623972
0.00623497
0.00623321
0.00622849
0.00622682
0.00622213
0.00622054
0.00621589
0.00621436
0.00620975
0.00620829
0.00620372
0.0062023
0.00619778
0.0061964
0.00619193
0.00619058
0.00618618
0.00618483
0.0061805
0.00617916
0.00617491
0.00617356
0.00616937