/*--------------------------------*- C++ -*----------------------------------*\
  =========                 |
  \\      /  F ield         | OpenFOAM: The Open Source CFD Toolbox
   \\    /   O peration     | Website:  https://openfoam.org
    \\  /    A nd           | Version:  8
     \\/     M anipulation  |
\*---------------------------------------------------------------------------*/
FoamFile
{
    version     2.0;
    format      ascii;
    class       surfaceScalarField;
    location    "4.0000146318";
    object      phi;
}
// * * * * * * * * * * * * * * * * * * * * * * * * * * * * * * * * * * * * * //

dimensions      [1 0 -1 0 0 0 0];

internalField   nonuniform List<scalar> 
13330
(
0.189389
-0.0951123
-0.0943109
0.41647
-0.645866
0.418794
0.620368
-0.881727
0.67783
0.801903
-1.01838
0.836859
0.963952
-1.10288
0.940839
1.10929
-1.15432
1.00899
1.24118
-1.18532
1.05342
1.36289
-1.20388
1.08217
1.47771
-1.21481
1.09999
-1.22182
1.1095
1.59004
0.240483
-0.335615
0.454541
-0.85995
0.641202
-1.06839
0.805875
-1.18306
0.950207
-1.24721
1.07785
-1.28196
1.19261
-1.30008
1.29738
-1.30865
1.39442
-1.31185
-1.3124
1.48499
0.244242
-0.579891
0.455869
-1.07159
0.629036
-1.24157
0.777418
-1.33144
0.904685
-1.37448
1.01584
-1.39312
1.11484
-1.39908
1.20471
-1.39853
1.28771
-1.39485
-1.38986
1.36517
0.236671
-0.816576
0.436601
-1.27154
0.594151
-1.39913
0.725929
-1.46323
0.836848
-1.48541
0.932655
-1.48893
1.0176
-1.48403
1.09489
-1.47582
1.16673
-1.4667
-1.45757
1.23444
0.222689
-1.03928
0.404136
-1.45298
0.544048
-1.53905
0.659147
-1.57833
0.754261
-1.58053
0.835904
-1.57058
0.908451
-1.55659
0.974898
-1.54228
1.03715
-1.52896
-1.51667
1.09624
0.203901
-1.24319
0.363226
-1.61232
0.484519
-1.66035
0.582811
-1.67664
0.66274
-1.66047
0.731416
-1.63927
0.792757
-1.61794
0.849337
-1.59887
0.902656
-1.58229
-1.56739
0.953367
0.181951
-1.42514
0.317577
-1.74794
0.419867
-1.76265
0.501276
-1.75806
0.566755
-1.72596
0.623289
-1.69582
0.674051
-1.66872
0.721099
-1.64594
0.765531
-1.62674
-1.60954
0.807661
0.158069
-1.58322
0.2693
-1.85919
0.352922
-1.84628
0.417617
-1.82277
0.469305
-1.77767
0.514109
-1.74065
0.554466
-1.70909
0.591859
-1.68335
0.62711
-1.662
-1.64271
0.66026
0.133247
-1.71648
0.220376
-1.94632
0.285624
-1.91154
0.333735
-1.8709
0.372161
-1.81612
0.405433
-1.77393
0.435205
-1.73889
0.462609
-1.71077
0.488232
-1.68765
-1.66647
0.511972
0.108306
-1.82479
0.171847
-2.00986
0.218937
-1.95864
0.251002
-1.90299
0.276565
-1.8417
0.298073
-1.79548
0.316957
-1.75779
0.333917
-1.72777
0.349487
-1.70323
0.363418
-1.68045
-0.0957277
0.0957514
-0.172773
0.0770557
-0.237704
0.0649364
-0.292853
0.0551587
-0.337411
0.0445691
-0.369609
0.0322081
-0.387495
0.0179026
-0.389859
0.0023704
-0.37729
-0.0125642
-0.0240061
-0.353286
-0.0812841
0.177087
-0.149394
0.145189
-0.205011
0.120572
-0.249466
0.0996373
-0.282172
0.077304
-0.30084
0.0509124
-0.302397
0.019495
-0.285431
-0.014578
-0.252121
-0.0458693
-0.0695081
-0.206632
-0.062108
0.239242
-0.112281
0.195381
-0.149664
0.157972
-0.173169
0.123166
-0.181042
0.0852038
-0.169593
0.0395047
-0.134585
-0.0154778
-0.0798983
-0.0692476
-0.0105938
-0.115178
-0.148615
0.0685036
-0.0397708
0.27907
-0.0679097
0.223556
-0.0804336
0.170514
-0.0724507
0.115208
-0.0379349
0.0507168
0.0271639
-0.0255487
0.113812
-0.102096
0.210377
-0.1658
0.313293
-0.21809
-0.255835
0.420497
-0.0185632
0.297678
-0.022086
0.227094
-0.00105497
0.149506
0.0556971
0.0584839
0.151466
-0.0450228
0.270977
-0.145026
0.398614
-0.229708
0.530979
-0.298152
0.665439
-0.352559
-0.392332
0.801937
-0.000960756
0.298636
0.0237752
0.20238
0.0927674
0.0805235
0.212358
-0.0610843
0.361102
-0.193746
0.518729
-0.302625
0.679141
-0.390102
0.83979
-0.458796
0.998316
-0.511073
-0.548673
1.15465
0.0112259
0.287446
0.0735797
0.140018
0.208572
-0.0544606
0.382043
-0.234543
0.563875
-0.375561
0.74586
-0.48459
0.923253
-0.567479
1.09379
-0.629315
1.25734
-0.674626
-0.706729
1.4154
0.0170256
0.270415
0.148133
0.00893169
0.34274
-0.24905
0.543934
-0.435722
0.739978
-0.571591
0.925819
-0.670417
1.10028
-0.741926
1.26442
-0.793451
1.41999
-0.830186
-0.85551
1.56877
0.0569078
0.213521
0.255767
-0.189901
0.469324
-0.462591
0.67446
-0.640842
0.865425
-0.762545
1.04177
-0.846745
1.20485
-0.904999
1.35658
-0.945172
1.499
-0.972608
-0.990779
1.63428
0.119217
0.348118
0.563364
0.759388
0.937688
1.09994
1.24837
1.38537
1.51275
1.63147
-0.279223
-0.0740703
-0.209105
-0.0701161
-0.144918
-0.0641832
-0.0858856
-0.0590287
-0.0306564
-0.0552271
0.0214353
-0.0520909
0.0703568
-0.0489215
0.116425
-0.0460693
0.160235
-0.0438112
0.202155
-0.0419214
0.24242
-0.0402661
0.281191
-0.0387724
0.318586
-0.0373972
0.3547
-0.036115
0.389607
-0.034908
0.423368
-0.0337626
0.456038
-0.0326708
0.487661
-0.0316233
0.518271
-0.0306104
0.547894
-0.0296225
0.576547
-0.0286527
0.604245
-0.0276977
0.631003
-0.0267575
0.656837
-0.0258342
0.681767
-0.0249303
0.705814
-0.0240483
0.729004
-0.0231904
0.751361
-0.022358
0.772911
-0.0215519
0.793682
-0.0207727
0.813701
-0.020021
0.832996
-0.0192969
0.851594
-0.0186002
0.869522
-0.0179304
0.886807
-0.0172869
0.903473
-0.0166689
0.919547
-0.0160756
0.935051
-0.0155064
0.950009
-0.0149603
0.964444
-0.0144367
0.978376
-0.0139344
0.991827
-0.0134523
1.00481
-0.0129892
1.01736
-0.0125442
1.02947
-0.0121163
1.04117
-0.0117046
1.05248
-0.0113084
1.06341
-0.0109271
1.07397
-0.0105601
1.08417
-0.010207
1.09404
-0.00986716
1.10358
-0.0095403
1.1128
-0.00922595
1.12173
-0.0089237
1.13036
-0.00863313
1.13871
-0.0083538
1.1468
-0.00808531
1.15462
-0.00782723
1.1622
-0.00757916
1.16954
-0.00734067
1.17666
-0.00711131
1.18355
-0.00689067
1.19023
-0.00667839
1.1967
-0.0064741
1.20298
-0.00627744
1.20907
-0.00608802
1.21497
-0.00590548
1.2207
-0.00572947
1.22626
-0.00555972
1.23166
-0.00539594
1.2369
-0.00523793
1.24198
-0.00508563
1.24692
-0.00493901
1.25172
-0.00479798
1.25639
-0.00466236
1.26092
-0.0045319
1.26533
-0.00440635
1.26961
-0.00428541
1.27378
-0.00416876
1.27784
-0.00405608
1.28179
-0.00394706
1.28563
-0.00384142
1.28937
-0.00373893
1.29301
-0.00363942
1.29655
-0.00354277
1.3
-0.00344901
1.30336
-0.00335814
1.30663
-0.00327023
1.30982
-0.00318521
1.31292
-0.00310299
1.31595
-0.00302318
1.31889
-0.00294545
1.32176
-0.00286889
1.32455
-0.00279275
1.32727
-0.00271541
1.3299
-0.00263523
1.33245
-0.00254948
1.33491
-0.00245653
1.33726
-0.00235314
-0.00213556
-0.13819
-0.142523
-0.0771015
-0.131196
-0.0207124
-0.120559
0.0320235
-0.111754
0.081102
-0.104299
0.127167
-0.0981526
0.17111
-0.0928624
0.213271
-0.0882312
0.253723
-0.0842654
0.292618
-0.0808198
0.330088
-0.0777395
0.366237
-0.0749259
0.401155
-0.0723178
0.434917
-0.0698803
0.467588
-0.0675819
0.499202
-0.0653783
0.529783
-0.0632538
0.559368
-0.0612099
0.588001
-0.0592432
0.615714
-0.0573364
0.64253
-0.055468
0.66846
-0.0536275
0.693515
-0.051813
0.717709
-0.0500277
0.741055
-0.0482776
0.763574
-0.0465686
0.785287
-0.0449055
0.806217
-0.0432915
0.82639
-0.0417287
0.845831
-0.0402179
0.864565
-0.0387594
0.882617
-0.0373536
0.900012
-0.0360001
0.916774
-0.0346984
0.93293
-0.0334476
0.948502
-0.0322466
0.963515
-0.0310938
0.977992
-0.0299878
0.991954
-0.028927
1.00542
-0.0279099
1.01842
-0.0269345
1.03096
-0.0259986
1.04307
-0.0251001
1.05476
-0.0242372
1.06604
-0.0234078
1.07695
-0.0226102
1.08748
-0.0218429
1.09765
-0.0211046
1.10748
-0.0203943
1.11699
-0.0197109
1.12617
-0.0190536
1.13505
-0.0184215
1.14364
-0.0178138
1.15194
-0.0172296
1.15998
-0.0166681
1.16775
-0.0161285
1.17527
-0.0156101
1.18256
-0.015112
1.18961
-0.0146335
1.19644
-0.0141738
1.20307
-0.0137319
1.20948
-0.013307
1.2157
-0.0128985
1.22173
-0.0125054
1.22758
-0.0121272
1.23326
-0.0117631
1.23877
-0.0114122
1.24411
-0.011074
1.2493
-0.0107479
1.25434
-0.010433
1.25923
-0.0101287
1.26398
-0.00983514
1.2686
-0.00955263
1.27308
-0.00928106
1.27744
-0.00902005
1.28168
-0.00876908
1.28581
-0.00852761
1.28982
-0.00829508
1.29372
-0.00807089
1.29752
-0.00785444
1.30122
-0.00764513
1.30483
-0.00744242
1.30833
-0.00724583
1.31175
-0.00705498
1.31508
-0.00686959
1.31832
-0.00668963
1.32148
-0.00651513
1.32456
-0.00634632
1.32756
-0.0061831
1.33048
-0.00602535
1.33333
-0.00587229
1.33611
-0.0057233
1.33882
-0.00557656
1.34146
-0.00543062
1.34403
-0.00528237
1.34652
-0.00512871
1.34894
-0.00496405
1.35126
-0.00478163
1.35347
-0.00456044
-0.00428713
0.116217
-0.19025
0.158353
-0.173323
0.1995
-0.161692
0.239831
-0.152072
0.278904
-0.143363
0.316638
-0.13588
0.353266
-0.129487
0.388901
-0.123864
0.423486
-0.11885
0.457008
-0.114343
0.489487
-0.110219
0.520951
-0.106392
0.551436
-0.102804
0.580977
-0.0994234
0.609615
-0.0962211
0.637366
-0.0931302
0.664242
-0.0901314
0.690266
-0.0872343
0.715459
-0.0844366
0.739834
-0.0817127
0.763399
-0.0790331
0.78616
-0.0763898
0.808131
-0.0737842
0.829325
-0.0712231
0.849762
-0.0687158
0.869462
-0.0662708
0.888448
-0.0638946
0.906745
-0.061591
0.924374
-0.0593617
0.941359
-0.0572064
0.957721
-0.0551256
0.973484
-0.0531205
0.98867
-0.0511907
1.0033
-0.0493354
1.0174
-0.0475531
1.03099
-0.0458422
1.0441
-0.0442003
1.05673
-0.0426249
1.06891
-0.041114
1.08066
-0.0396651
1.092
-0.0382753
1.10294
-0.0369414
1.11349
-0.0356607
1.12368
-0.0344306
1.13352
-0.0332484
1.14302
-0.0321116
1.15219
-0.0310182
1.16105
-0.0299666
1.16961
-0.0289552
1.17788
-0.0279827
1.18587
-0.0270478
1.1936
-0.0261494
1.20107
-0.0252861
1.2083
-0.0244567
1.21529
-0.02366
1.22205
-0.0228947
1.2286
-0.0221599
1.23494
-0.0214542
1.24109
-0.0207767
1.24704
-0.0201262
1.25281
-0.0195012
1.2584
-0.0189005
1.26383
-0.0183231
1.26909
-0.0177677
1.2742
-0.0172334
1.27915
-0.0167191
1.28396
-0.0162237
1.28864
-0.0157464
1.29318
-0.0152863
1.29759
-0.0148418
1.30187
-0.0144117
1.30603
-0.0139968
1.31008
-0.0135981
1.31402
-0.0132153
1.31785
-0.0128476
1.32157
-0.0124942
1.3252
-0.0121542
1.32874
-0.0118266
1.33218
-0.0115107
1.33553
-0.0112056
1.3388
-0.0109105
1.34198
-0.0106246
1.34508
-0.0103473
1.34811
-0.0100781
1.35106
-0.00981647
1.35393
-0.00956255
1.35674
-0.00931642
1.35947
-0.00907865
1.36214
-0.00884907
1.36474
-0.00862753
1.36728
-0.00841281
1.36976
-0.00820403
1.37219
-0.00799849
1.37455
-0.00779412
1.37685
-0.00758646
1.3791
-0.00737124
1.38127
-0.00714044
1.38338
-0.00688454
1.38539
-0.00657556
-0.00622047
0.440213
-0.209966
0.461047
-0.194145
0.485048
-0.185678
0.511223
-0.178233
0.538367
-0.170496
0.565803
-0.163308
0.593242
-0.156922
0.620488
-0.151107
0.647359
-0.14572
0.673737
-0.140721
0.699547
-0.13603
0.724744
-0.131589
0.749304
-0.127365
0.773215
-0.123335
0.796474
-0.11948
0.819092
-0.11575
0.84108
-0.11212
0.862421
-0.108576
0.883089
-0.105105
0.903065
-0.10169
0.922349
-0.0983177
0.940953
-0.0949945
0.958893
-0.0917254
0.976188
-0.0885192
0.992857
-0.0853873
1.00892
-0.082339
1.02441
-0.0793811
1.03933
-0.0765165
1.05371
-0.0737456
1.06757
-0.0710669
1.08092
-0.0684819
1.09379
-0.0659924
1.10619
-0.0635963
1.11814
-0.0612923
1.12966
-0.0590782
1.14077
-0.0569525
1.15147
-0.054912
1.1618
-0.0529533
1.17175
-0.0510743
1.18136
-0.0492713
1.19062
-0.0475405
1.19955
-0.0458778
1.20817
-0.0442805
1.21648
-0.0427461
1.2245
-0.0412713
1.23224
-0.0398531
1.2397
-0.0384896
1.24691
-0.037179
1.25388
-0.0359195
1.2606
-0.0347094
1.2671
-0.0335471
1.27338
-0.0324311
1.27945
-0.0313596
1.28532
-0.030331
1.29101
-0.0293437
1.29651
-0.0283957
1.30183
-0.0274858
1.30699
-0.0266126
1.31199
-0.0257747
1.31683
-0.0249705
1.32153
-0.0241982
1.32608
-0.0234561
1.3305
-0.0227431
1.33479
-0.0220574
1.33896
-0.0213981
1.343
-0.0207635
1.34693
-0.0201524
1.35075
-0.0195638
1.35446
-0.0189973
1.35807
-0.0184501
1.36158
-0.0179199
1.365
-0.0174093
1.36832
-0.0169201
1.37156
-0.0164513
1.37471
-0.0160016
1.37779
-0.0155693
1.38079
-0.0151531
1.38372
-0.0147519
1.38657
-0.0143646
1.38936
-0.0139903
1.39208
-0.0136279
1.39473
-0.0132768
1.39732
-0.0129361
1.39985
-0.0126054
1.40232
-0.0122841
1.40473
-0.0119723
1.40709
-0.0116704
1.40939
-0.0113795
1.41164
-0.0110993
1.41385
-0.0108295
1.416
-0.0105684
1.41811
-0.0103147
1.42018
-0.0100652
1.42221
-0.00981719
1.42419
-0.00956526
1.42612
-0.00930442
1.428
-0.00902486
1.42984
-0.00871568
1.4316
-0.00834304
-0.00792237
0.800889
-0.208922
0.805002
-0.198246
0.813655
-0.194315
0.825515
-0.190081
0.839609
-0.184579
0.855167
-0.178858
0.871665
-0.173414
0.888774
-0.168211
0.906257
-0.163199
0.923923
-0.158385
0.941619
-0.153725
0.95923
-0.149199
0.976673
-0.144808
0.993878
-0.14054
1.01079
-0.136394
1.02738
-0.132343
1.04359
-0.128325
1.05933
-0.124316
1.07456
-0.12034
1.08929
-0.116418
1.10352
-0.112557
1.11729
-0.108761
1.13059
-0.10503
1.14344
-0.101373
1.15586
-0.0978036
1.16784
-0.0943307
1.17942
-0.0909608
1.1906
-0.087697
1.20139
-0.0845399
1.21181
-0.081487
1.22186
-0.0785396
1.23156
-0.0756983
1.24092
-0.0729605
1.24995
-0.0703263
1.25867
-0.0677933
1.26707
-0.0653598
1.27518
-0.063022
1.28299
-0.0607758
1.29053
-0.0586184
1.2978
-0.056545
1.30481
-0.0545519
1.31157
-0.0526349
1.31808
-0.0507927
1.32435
-0.0490239
1.3304
-0.0473238
1.33623
-0.0456896
1.34186
-0.04412
1.34729
-0.0426128
1.35254
-0.0411658
1.3576
-0.039777
1.3625
-0.0384443
1.36723
-0.0371657
1.37181
-0.0359391
1.37624
-0.0347621
1.38053
-0.0336327
1.38468
-0.0325487
1.3887
-0.0315084
1.3926
-0.0305106
1.39638
-0.0295535
1.40004
-0.0286353
1.4036
-0.0277535
1.40705
-0.0269064
1.4104
-0.0260929
1.41365
-0.0253107
1.41681
-0.0245591
1.41989
-0.0238361
1.42287
-0.0231402
1.42578
-0.0224709
1.42861
-0.0218286
1.43137
-0.0212092
1.43406
-0.0206084
1.43669
-0.0200321
1.43925
-0.0194822
1.44176
-0.018956
1.44421
-0.0184509
1.4466
-0.0179648
1.44895
-0.017496
1.45124
-0.0170436
1.45348
-0.0166064
1.45568
-0.0161835
1.45783
-0.015774
1.45993
-0.0153773
1.46199
-0.0149926
1.464
-0.0146194
1.46598
-0.0142572
1.46791
-0.013906
1.46981
-0.0135666
1.47167
-0.0132411
1.4735
-0.0129283
1.4753
-0.0126275
1.47707
-0.0123367
1.47881
-0.0120545
1.48053
-0.0117772
1.48221
-0.0115017
1.48387
-0.0112222
1.4855
-0.0109337
1.4871
-0.010625
1.48867
-0.0102852
1.4902
-0.00987542
-0.00941481
1.14521
-0.199473
1.14174
-0.194761
1.14174
-0.194297
1.14396
-0.192288
1.14814
-0.18875
1.15396
-0.184668
1.16104
-0.180486
1.16909
-0.176251
1.17785
-0.17196
1.18713
-0.167661
1.19678
-0.163367
1.20668
-0.159097
1.21674
-0.154863
1.22686
-0.150664
1.23695
-0.146486
1.24691
-0.142295
1.25666
-0.138086
1.26621
-0.133865
1.27554
-0.129672
1.28466
-0.125535
1.29356
-0.121459
1.30224
-0.117443
1.3107
-0.113491
1.31894
-0.109617
1.32696
-0.10583
1.33476
-0.102136
1.34234
-0.0985434
1.3497
-0.0950562
1.35683
-0.0916764
1.36375
-0.0884026
1.37044
-0.0852355
1.37692
-0.0821785
1.38318
-0.0792298
1.38924
-0.0763896
1.3951
-0.0736552
1.40076
-0.0710243
1.40623
-0.0684931
1.41151
-0.0660564
1.41659
-0.0637103
1.4215
-0.0614513
1.42622
-0.0592786
1.43077
-0.05719
1.43516
-0.0551841
1.43939
-0.0532589
1.44347
-0.0514099
1.44741
-0.0496349
1.45122
-0.0479319
1.45491
-0.046298
1.45847
-0.0447304
1.46192
-0.0432267
1.46525
-0.0417845
1.46849
-0.0404012
1.47162
-0.0390746
1.47466
-0.037802
1.47761
-0.0365807
1.48047
-0.0354082
1.48324
-0.0342825
1.48593
-0.0332029
1.48855
-0.0321677
1.49109
-0.0311749
1.49355
-0.0302217
1.49595
-0.0293058
1.49829
-0.0284264
1.50056
-0.0275808
1.50277
-0.0267693
1.50492
-0.02599
1.50702
-0.025242
1.50908
-0.0245241
1.51109
-0.023837
1.51306
-0.0231775
1.51499
-0.0225415
1.51689
-0.021934
1.51877
-0.0213529
1.52061
-0.0207948
1.52241
-0.0202577
1.52419
-0.0197398
1.52593
-0.0192395
1.52765
-0.0187566
1.52933
-0.01829
1.53099
-0.0178389
1.53262
-0.0174026
1.53422
-0.0169806
1.53581
-0.0165722
1.53736
-0.0161771
1.5389
-0.0157949
1.54042
-0.0154252
1.54193
-0.0150691
1.54342
-0.0147291
1.54489
-0.0144023
1.54635
-0.0140882
1.5478
-0.0137843
1.54924
-0.0134898
1.55067
-0.0132011
1.55208
-0.0129148
1.55348
-0.0126254
1.55488
-0.0123281
1.55627
-0.0120112
1.55765
-0.0116649
1.55902
-0.0112461
-0.0107754
1.40106
-0.185129
1.393
-0.18669
1.38836
-0.189644
1.3859
-0.189814
1.3854
-0.188245
1.38666
-0.185922
1.38933
-0.183143
1.39306
-0.179972
1.39759
-0.176487
1.40273
-0.172801
1.40833
-0.168963
1.41423
-0.16499
1.42028
-0.160915
1.42639
-0.156768
1.43246
-0.152563
1.43848
-0.148311
1.44442
-0.144029
1.45028
-0.139725
1.45603
-0.135425
1.46164
-0.131152
1.46711
-0.12693
1.47244
-0.12277
1.47762
-0.118678
1.48266
-0.114661
1.48756
-0.110728
1.49231
-0.106886
1.4969
-0.103143
1.50135
-0.0995037
1.50564
-0.0959726
1.50979
-0.0925494
1.51379
-0.0892373
1.51764
-0.0860388
1.52136
-0.0829502
1.52494
-0.0799729
1.52839
-0.0771051
1.5317
-0.0743446
1.5349
-0.0716879
1.53797
-0.0691305
1.54092
-0.0666711
1.54378
-0.0643078
1.54654
-0.0620388
1.5492
-0.0598591
1.55178
-0.0577651
1.55427
-0.0557556
1.55669
-0.0538269
1.55903
-0.051976
1.56129
-0.0501997
1.56349
-0.0484957
1.56562
-0.046861
1.56768
-0.0452931
1.56968
-0.0437893
1.57163
-0.0423471
1.57352
-0.0409642
1.57535
-0.0396379
1.57713
-0.0383656
1.57887
-0.0371441
1.58056
-0.035971
1.5822
-0.0348454
1.5838
-0.0337663
1.58536
-0.0327328
1.58688
-0.0317422
1.58836
-0.0307922
1.58982
-0.0298819
1.59125
-0.0290089
1.59265
-0.0281731
1.59404
-0.0273726
1.5954
-0.0266063
1.59675
-0.025872
1.59808
-0.025172
1.59941
-0.0245035
1.60073
-0.0238595
1.60204
-0.0232419
1.60334
-0.0226489
1.60462
-0.0220789
1.60589
-0.0215298
1.60716
-0.0210007
1.60841
-0.0204906
1.60965
-0.0199991
1.61089
-0.0195254
1.61212
-0.0190678
1.61334
-0.0186267
1.61456
-0.0182014
1.61578
-0.0177917
1.61701
-0.0173973
1.61823
-0.0170177
1.61946
-0.0166523
1.62069
-0.016301
1.62193
-0.015965
1.62317
-0.0156401
1.62441
-0.0153286
1.62565
-0.0150278
1.6269
-0.0147375
1.62816
-0.0144553
1.62942
-0.0141771
1.63069
-0.0138972
1.63198
-0.0136122
1.63328
-0.0133099
1.63459
-0.0129826
1.63593
-0.012586
-0.0121378
1.54988
-0.166227
1.53692
-0.173724
1.52788
-0.180585
1.52161
-0.183535
1.51772
-0.18434
1.51589
-0.184085
1.51578
-0.183028
1.51708
-0.181264
1.51953
-0.178924
1.52288
-0.176148
1.52693
-0.173015
1.53153
-0.169581
1.53652
-0.16591
1.54181
-0.162054
1.5473
-0.158051
1.55291
-0.153927
1.55859
-0.14971
1.56429
-0.145425
1.56997
-0.141105
1.57559
-0.136773
1.58112
-0.132462
1.58654
-0.128193
1.59183
-0.12397
1.59697
-0.119803
1.60194
-0.115704
1.60673
-0.111683
1.61134
-0.107751
1.61575
-0.103918
1.61997
-0.100188
1.62398
-0.0965649
1.62779
-0.0930492
1.63139
-0.0896428
1.63479
-0.0863483
1.63798
-0.083167
1.64097
-0.0800985
1.64376
-0.0771436
1.64637
-0.0743011
1.64881
-0.0715696
1.65108
-0.0689474
1.6532
-0.0664313
1.65518
-0.0640191
1.65702
-0.0617069
1.65875
-0.0594922
1.66036
-0.0573732
1.66188
-0.0553455
1.6633
-0.0534045
1.66465
-0.0515466
1.66592
-0.049769
1.66712
-0.0480682
1.66827
-0.0464412
1.66936
-0.0448849
1.67041
-0.0433966
1.67142
-0.041973
1.67239
-0.0406117
1.67333
-0.0393094
1.67425
-0.0380635
1.67515
-0.0368709
1.67603
-0.0357279
1.6769
-0.0346375
1.67777
-0.033598
1.67863
-0.0326042
1.67949
-0.0316535
1.68035
-0.0307442
1.68122
-0.0298745
1.68209
-0.029044
1.68297
-0.0282498
1.68386
-0.0274911
1.68475
-0.0267655
1.68565
-0.0260748
1.68656
-0.0254129
1.68748
-0.0247724
1.68839
-0.0241572
1.68931
-0.0235674
1.69024
-0.0230026
1.69117
-0.0224599
1.69211
-0.0219389
1.69306
-0.0214376
1.69401
-0.020955
1.69498
-0.0204933
1.69596
-0.0200493
1.69696
-0.0196249
1.69798
-0.0192186
1.69902
-0.0188289
1.70008
-0.0184569
1.70116
-0.0181009
1.70227
-0.0177584
1.7034
-0.0174298
1.70455
-0.0171158
1.70572
-0.0168124
1.70692
-0.0165245
1.70814
-0.0162459
1.70938
-0.0159802
1.71066
-0.0157267
1.71196
-0.0154793
1.71329
-0.0152312
1.71466
-0.0149813
1.71607
-0.014717
1.71752
-0.0144338
1.71903
-0.014087
-0.0136807
1.61313
-0.145075
1.59719
-0.157783
1.58509
-0.168475
1.57623
-0.174663
1.57006
-0.178168
1.5661
-0.180113
1.56395
-0.180872
1.56331
-0.180623
1.56394
-0.179546
1.56561
-0.177809
1.56813
-0.175538
1.57138
-0.172827
1.57523
-0.169758
1.57957
-0.166397
1.58432
-0.1628
1.5894
-0.159011
1.59476
-0.15507
1.60035
-0.151012
1.60611
-0.14687
1.61201
-0.142676
1.61801
-0.13846
1.62406
-0.134245
1.63013
-0.130045
1.6362
-0.125875
1.64224
-0.12175
1.64824
-0.117682
1.65417
-0.113684
1.66002
-0.109767
1.66577
-0.105937
1.6714
-0.102197
1.6769
-0.0985518
1.68226
-0.0950054
1.68747
-0.0915596
1.69251
-0.0882166
1.69739
-0.084978
1.70209
-0.0818455
1.70661
-0.0788188
1.71093
-0.0758974
1.71506
-0.0730795
1.71899
-0.0703638
1.72272
-0.0677507
1.72625
-0.0652383
1.72958
-0.0628251
1.73271
-0.0605099
1.73566
-0.0582894
1.73841
-0.0561602
1.74098
-0.0541194
1.74337
-0.0521648
1.7456
-0.0502935
1.74766
-0.0485042
1.74957
-0.0467935
1.75133
-0.0451587
1.75295
-0.0435999
1.75445
-0.0421123
1.75584
-0.0406941
1.75711
-0.0393434
1.7583
-0.0380603
1.75942
-0.0368426
1.76046
-0.0356835
1.76145
-0.03458
1.76237
-0.0335313
1.76326
-0.0325363
1.7641
-0.031592
1.76493
-0.0306964
1.76573
-0.0298478
1.76653
-0.0290429
1.76732
-0.0282803
1.76811
-0.0275562
1.7689
-0.0268694
1.7697
-0.0262139
1.77052
-0.0255862
1.77135
-0.0249872
1.7722
-0.024416
1.77307
-0.0238727
1.77396
-0.0233542
1.77489
-0.0228603
1.77584
-0.0223879
1.77682
-0.0219362
1.77783
-0.0215075
1.77888
-0.0210975
1.77997
-0.0207094
1.78109
-0.02034
1.78225
-0.0199882
1.78345
-0.0196542
1.78468
-0.0193356
1.78595
-0.0190292
1.78726
-0.0187377
1.78861
-0.0184612
1.78999
-0.0181961
1.79141
-0.0179461
1.79287
-0.0177023
1.79436
-0.0174718
1.79589
-0.0172526
1.79745
-0.0170404
1.79905
-0.0168347
1.80071
-0.016637
1.80242
-0.0164227
1.80418
-0.0161933
1.80601
-0.0159211
-0.0156081
1.60919
-0.122791
1.5911
-0.139684
1.57601
-0.153373
1.56444
-0.16309
1.55598
-0.169697
1.55002
-0.174145
1.54612
-0.176964
1.54395
-0.17845
1.54324
-0.17883
1.54375
-0.178311
1.54527
-0.177061
1.54766
-0.175214
1.55078
-0.172879
1.55453
-0.170145
1.55881
-0.167082
1.56355
-0.163752
1.56868
-0.160204
1.57415
-0.156484
1.57991
-0.15263
1.58591
-0.148679
1.59211
-0.144663
1.59847
-0.140609
1.60497
-0.13654
1.61156
-0.132473
1.61823
-0.128424
1.62496
-0.124412
1.63172
-0.120448
1.6385
-0.116545
1.64527
-0.112712
1.65203
-0.108954
1.65875
-0.105278
1.66544
-0.10169
1.67206
-0.098191
1.67863
-0.094786
1.68513
-0.0914773
1.69155
-0.0882657
1.69788
-0.0851528
1.70412
-0.0821395
1.71026
-0.0792263
1.71631
-0.0764103
1.72224
-0.0736914
1.72807
-0.0710691
1.73378
-0.0685417
1.73938
-0.0661082
1.74485
-0.0637652
1.7502
-0.0615111
1.75542
-0.059343
1.76051
-0.0572574
1.76547
-0.055253
1.77029
-0.0533278
1.77498
-0.05148
1.77952
-0.0497071
1.78393
-0.0480061
1.78819
-0.046375
1.79231
-0.0448138
1.79628
-0.0433199
1.80011
-0.0418921
1.8038
-0.0405273
1.80733
-0.0392211
1.81073
-0.0379718
1.81397
-0.0367786
1.81708
-0.0356411
1.82004
-0.0345566
1.82287
-0.0335243
1.82557
-0.0325429
1.82814
-0.0316095
1.83058
-0.0307238
1.83291
-0.0298825
1.83512
-0.0290854
1.83724
-0.0283281
1.83926
-0.027609
1.84121
-0.026929
1.84308
-0.0262864
1.84489
-0.0256819
1.84665
-0.0251132
1.84837
-0.0245796
1.85006
-0.0240788
1.85173
-0.0236083
1.85339
-0.0231697
1.85505
-0.0227571
1.85672
-0.0223729
1.85839
-0.0220131
1.86008
-0.021676
1.86179
-0.0213606
1.86352
-0.0210646
1.86527
-0.0207852
1.86706
-0.0205249
1.86888
-0.0202814
1.87074
-0.0200514
1.87263
-0.0198384
1.87456
-0.0196342
1.87653
-0.0194425
1.87854
-0.0192609
1.88059
-0.0190873
1.88268
-0.0189218
1.88481
-0.0187702
1.88701
-0.0186226
1.8893
-0.0184884
1.89173
-0.0183481
-0.0182079
1.99347
-0.104467
-2.0118
1.97379
-0.120002
1.95491
-0.134487
1.93738
-0.145556
1.92142
-0.153734
1.90703
-0.159755
1.89414
-0.164072
1.88266
-0.166959
1.87247
-0.168638
1.86346
-0.169304
1.85553
-0.16913
1.84858
-0.168256
1.84249
-0.166798
1.8372
-0.164853
1.83262
-0.162501
1.82868
-0.159811
1.82531
-0.156841
1.82247
-0.153642
1.8201
-0.150259
1.81815
-0.146732
1.81658
-0.143097
1.81535
-0.139384
1.81443
-0.135619
1.81378
-0.131825
1.81337
-0.128021
1.81318
-0.124224
1.81318
-0.120451
1.81335
-0.116716
1.81367
-0.113029
1.81411
-0.109399
1.81467
-0.105834
1.81532
-0.102339
1.81605
-0.0989215
1.81684
-0.0955841
1.81769
-0.0923304
1.81859
-0.0891636
1.81952
-0.0860869
1.82048
-0.0831011
1.82146
-0.0802061
1.82245
-0.0774027
1.82345
-0.0746899
1.82444
-0.072067
1.82544
-0.0695348
1.82642
-0.0670901
1.82738
-0.0647325
1.82833
-0.0624603
1.82925
-0.0602695
1.83015
-0.05816
1.83103
-0.0561292
1.83188
-0.054175
1.83269
-0.0522954
1.83347
-0.0504883
1.83421
-0.0487516
1.83492
-0.047083
1.83559
-0.0454819
1.83621
-0.0439459
1.83679
-0.0424734
1.83733
-0.0410613
1.83781
-0.0397069
1.83825
-0.0384082
1.83864
-0.0371626
1.83896
-0.0359701
1.83924
-0.0348286
1.83945
-0.033736
1.8396
-0.0326902
1.83968
-0.0316891
1.83969
-0.0307319
1.83962
-0.0298156
1.83948
-0.0289401
1.83925
-0.0281018
1.83894
-0.0273
1.83855
-0.0265344
1.83807
-0.0258045
1.8375
-0.0251114
1.83684
-0.0244533
1.83609
-0.0238304
1.83525
-0.0232405
1.83432
-0.0226825
1.83331
-0.0221576
1.83222
-0.0216605
1.83104
-0.0211952
1.82978
-0.0207567
1.82845
-0.0203453
1.82705
-0.01996
1.82559
-0.0196002
1.82407
-0.0192633
1.8225
-0.0189534
1.82088
-0.0186662
1.81923
-0.0184026
1.81756
-0.0181652
1.81587
-0.0179455
1.81418
-0.0177496
1.81249
-0.0175752
1.81082
-0.0174145
1.80916
-0.0172661
1.80753
-0.0171419
1.80595
-0.0170382
1.80444
-0.0169763
1.80306
-0.0169664
-0.0170796
2.01215
-0.0862311
-2.03039
1.99448
-0.102323
1.97724
-0.117245
1.96117
-0.129486
1.94645
-0.139008
1.93304
-0.146337
1.92087
-0.151895
1.90987
-0.155955
1.89996
-0.158732
1.89108
-0.160419
1.88314
-0.161187
1.87606
-0.16118
1.86978
-0.160516
1.86422
-0.159298
1.85933
-0.157611
1.85505
-0.155528
1.85132
-0.153113
1.84809
-0.15042
1.84533
-0.147498
1.84299
-0.144391
1.84103
-0.141137
1.83941
-0.137768
1.8381
-0.134314
1.83708
-0.130802
1.83631
-0.12725
1.83576
-0.123679
1.83541
-0.120108
1.83525
-0.116553
1.83525
-0.113025
1.83538
-0.109536
1.83564
-0.106094
1.83601
-0.102707
1.83647
-0.0993836
1.83701
-0.0961282
1.83762
-0.0929436
1.83829
-0.0898356
1.83901
-0.0868077
1.83977
-0.0838615
1.84056
-0.0809991
1.84138
-0.0782212
1.84221
-0.0755271
1.84306
-0.0729177
1.84392
-0.0703926
1.84477
-0.0679514
1.84563
-0.0655932
1.84649
-0.0633161
1.84733
-0.0611192
1.84817
-0.0590002
1.849
-0.0569574
1.84981
-0.0549895
1.85061
-0.0530945
1.85139
-0.0512707
1.85215
-0.0495161
1.8529
-0.0478289
1.85362
-0.0462078
1.85433
-0.0446509
1.85501
-0.0431564
1.85567
-0.0417217
1.85631
-0.0403446
1.85692
-0.0390228
1.85751
-0.0377546
1.85808
-0.0365386
1.85863
-0.0353732
1.85915
-0.0342563
1.85964
-0.0331859
1.86012
-0.0321602
1.86056
-0.0311774
1.86098
-0.0302356
1.86138
-0.0293334
1.86174
-0.0284684
1.86208
-0.0276399
1.8624
-0.0268473
1.86268
-0.0260898
1.86294
-0.025367
1.86316
-0.0246778
1.86336
-0.0240216
1.86351
-0.0233969
1.86363
-0.0228029
1.86372
-0.0222386
1.86376
-0.0217018
1.86376
-0.0211933
1.86371
-0.0207101
1.86362
-0.0202525
1.86348
-0.0198182
1.86328
-0.0194082
1.86304
-0.0190209
1.86275
-0.0186578
1.8624
-0.0183177
1.862
-0.0180021
1.86154
-0.0177097
1.86104
-0.0174374
1.86048
-0.0171922
1.85987
-0.0169699
1.85923
-0.0167665
1.85855
-0.0165884
1.85785
-0.0164418
1.85712
-0.0163159
1.85638
-0.0162348
1.85565
-0.0162289
-0.0164138
2.02324
-0.0685799
-2.04089
2.00671
-0.0857907
1.99074
-0.101277
1.97566
-0.114409
1.96168
-0.125019
1.9488
-0.133456
1.937
-0.140094
1.92624
-0.145199
1.91649
-0.148976
1.90768
-0.15161
1.89975
-0.153264
1.89265
-0.15408
1.88631
-0.154178
1.88068
-0.153662
1.87569
-0.152621
1.87129
-0.15113
1.86743
-0.149258
1.86407
-0.147061
1.86116
-0.144594
1.85867
-0.141901
1.85655
-0.139023
1.85478
-0.135995
1.85331
-0.132851
1.85212
-0.129615
1.85119
-0.126315
1.85048
-0.122974
1.84998
-0.119607
1.84965
-0.116232
1.84949
-0.112865
1.84947
-0.109518
1.84958
-0.106202
1.8498
-0.102927
1.85011
-0.0997001
1.85051
-0.0965287
1.85098
-0.0934179
1.85152
-0.0903729
1.85211
-0.0873978
1.85274
-0.0844961
1.85341
-0.0816695
1.85411
-0.0789208
1.85483
-0.0762505
1.85557
-0.0736591
1.85633
-0.0711467
1.85709
-0.0687135
1.85785
-0.0663596
1.85862
-0.0640826
1.85938
-0.0618822
1.86014
-0.0597582
1.86089
-0.0577087
1.86163
-0.0557319
1.86236
-0.0538263
1.86308
-0.0519904
1.86378
-0.0502225
1.86447
-0.0485209
1.86515
-0.0468845
1.86581
-0.0453115
1.86645
-0.0438001
1.86708
-0.0423481
1.86769
-0.0409536
1.86828
-0.0396145
1.86885
-0.0383291
1.86941
-0.0370957
1.86995
-0.0359127
1.87047
-0.0347784
1.87098
-0.0336907
1.87147
-0.032648
1.87194
-0.0316488
1.87239
-0.0306909
1.87283
-0.029773
1.87326
-0.0288933
1.87367
-0.0280507
1.87407
-0.0272448
1.87445
-0.0264744
1.87482
-0.0257385
1.87518
-0.0250361
1.87553
-0.0243666
1.87586
-0.0237286
1.87618
-0.0231212
1.87648
-0.0225435
1.87678
-0.0219939
1.87706
-0.0214718
1.87732
-0.0209759
1.87757
-0.0205055
1.87782
-0.0200589
1.87804
-0.0196367
1.87826
-0.0192377
1.87847
-0.018862
1.87866
-0.0185103
1.87884
-0.0181825
1.87901
-0.017877
1.87916
-0.0175938
1.87931
-0.0173361
1.87944
-0.0171009
1.87956
-0.0168883
1.87967
-0.016703
1.87978
-0.0165479
1.87988
-0.0164207
1.87999
-0.016336
1.88007
-0.0163132
-0.0163957
2.02829
-0.0518452
-2.04502
2.0127
-0.0701993
1.9978
-0.0863797
1.98367
-0.100282
1.97049
-0.11183
1.95829
-0.121258
1.94708
-0.128875
1.93681
-0.13493
1.92746
-0.139622
1.91897
-0.143124
1.9113
-0.145596
1.9044
-0.147176
1.89821
-0.147985
1.89267
-0.148127
1.88774
-0.147693
1.88337
-0.146763
1.87952
-0.145406
1.87614
-0.143683
1.87319
-0.14165
1.87064
-0.139354
1.86845
-0.136838
1.8666
-0.134141
1.86504
-0.131296
1.86376
-0.128333
1.86272
-0.12528
1.8619
-0.122158
1.86128
-0.118991
1.86085
-0.115796
1.86057
-0.112589
1.86043
-0.109383
1.86042
-0.106194
1.86052
-0.10303
1.86072
-0.0999009
1.86101
-0.0968152
1.86137
-0.0937798
1.86179
-0.0907996
1.86227
-0.0878795
1.8628
-0.0850242
1.86337
-0.0822371
1.86396
-0.0795205
1.86459
-0.0768761
1.86523
-0.0743052
1.86589
-0.0718082
1.86656
-0.0693859
1.86724
-0.0670381
1.86792
-0.0647647
1.8686
-0.0625654
1.86928
-0.0604392
1.86996
-0.0583853
1.87063
-0.0564021
1.87129
-0.0544884
1.87194
-0.0526429
1.87258
-0.0508642
1.87321
-0.0491509
1.87383
-0.0475017
1.87443
-0.0459152
1.87502
-0.0443895
1.87559
-0.0429229
1.87615
-0.0415135
1.8767
-0.0401596
1.87723
-0.0388592
1.87774
-0.0376107
1.87824
-0.0364126
1.87873
-0.0352633
1.8792
-0.0341608
1.87965
-0.0331037
1.88009
-0.0320903
1.88052
-0.0311188
1.88094
-0.0301876
1.88134
-0.0292954
1.88173