/*--------------------------------*- C++ -*----------------------------------*\
  =========                 |
  \\      /  F ield         | OpenFOAM: The Open Source CFD Toolbox
   \\    /   O peration     | Website:  https://openfoam.org
    \\  /    A nd           | Version:  8
     \\/     M anipulation  |
\*---------------------------------------------------------------------------*/
FoamFile
{
    version     2.0;
    format      ascii;
    class       volScalarField;
    location    "4.0000146318";
    object      rho;
}
// * * * * * * * * * * * * * * * * * * * * * * * * * * * * * * * * * * * * * //

dimensions      [1 -3 0 0 0 0 0];

internalField   nonuniform List<scalar> 
6800
(
0.590147
0.590333
0.590409
0.590494
0.59063
0.590818
0.59096
0.591083
0.591164
0.591215
0.590084
0.590287
0.590356
0.59052
0.590741
0.59089
0.591
0.591093
0.591162
0.591229
0.589654
0.590119
0.590294
0.590551
0.590729
0.590863
0.590974
0.591067
0.59115
0.591218
0.5891
0.589915
0.590196
0.590436
0.590645
0.590803
0.590922
0.591022
0.591111
0.591191
0.588495
0.589677
0.589957
0.590302
0.590547
0.590713
0.590846
0.590966
0.59107
0.59116
0.587876
0.589381
0.589733
0.590144
0.590412
0.590611
0.590769
0.590906
0.59102
0.591128
0.587294
0.589102
0.589476
0.589979
0.590284
0.590514
0.590683
0.59084
0.590975
0.591104
0.586783
0.588828
0.589263
0.589831
0.590169
0.590411
0.590615
0.590794
0.590949
0.591085
0.586381
0.588609
0.589075
0.589722
0.590062
0.59034
0.590568
0.590764
0.59093
0.591073
0.586105
0.588446
0.58897
0.589643
0.589994
0.590301
0.590548
0.590756
0.590931
0.59108
0.590484
0.590369
0.590311
0.590305
0.590319
0.590347
0.590387
0.590439
0.590505
0.590582
0.590462
0.590352
0.590301
0.590296
0.590311
0.590341
0.590383
0.590438
0.59051
0.590594
0.590394
0.590313
0.590278
0.59028
0.5903
0.590334
0.590385
0.59045
0.590534
0.590633
0.590325
0.590272
0.590253
0.590265
0.590294
0.590339
0.590402
0.590488
0.590591
0.590703
0.590255
0.590234
0.59024
0.590267
0.590311
0.590374
0.590457
0.590549
0.590656
0.59077
0.590184
0.590211
0.590248
0.590304
0.590376
0.590459
0.590535
0.590617
0.590724
0.590826
0.590146
0.590206
0.590292
0.590394
0.590491
0.590552
0.590611
0.590683
0.590791
0.590885
0.590111
0.590239
0.590374
0.590512
0.590564
0.590605
0.590659
0.59074
0.590849
0.590978
0.590075
0.590245
0.590475
0.590546
0.59058
0.590627
0.590705
0.590833
0.590955
0.591112
0.590084
0.590283
0.590468
0.590521
0.590578
0.590676
0.590831
0.590973
0.591112
0.591229
0.590679
0.590781
0.590863
0.590932
0.590993
0.591048
0.591099
0.591146
0.591189
0.591229
0.591267
0.591303
0.591336
0.591367
0.591396
0.591423
0.591448
0.591471
0.591491
0.59151
0.591527
0.591542
0.591554
0.591565
0.591574
0.591581
0.591588
0.591593
0.591597
0.591601
0.591604
0.591606
0.591608
0.59161
0.591612
0.591614
0.591616
0.591618
0.591621
0.591624
0.591628
0.591633
0.591638
0.591643
0.591649
0.591655
0.591661
0.591667
0.591673
0.591679
0.591685
0.59169
0.591696
0.5917
0.591705
0.591709
0.591713
0.591716
0.591719
0.591722
0.591724
0.591727
0.591729
0.591731
0.591733
0.591734
0.591736
0.591738
0.59174
0.591741
0.591743
0.591745
0.591746
0.591748
0.59175
0.591752
0.591754
0.591755
0.591757
0.591758
0.591759
0.59176
0.59176
0.591761
0.591761
0.59176
0.59176
0.591759
0.591758
0.591757
0.591756
0.591755
0.591754
0.591753
0.591753
0.591753
0.591753
0.591754
0.591756
0.591757
0.590689
0.590793
0.590874
0.590943
0.591003
0.591057
0.591106
0.591152
0.591194
0.591233
0.59127
0.591305
0.591338
0.591368
0.591397
0.591424
0.591448
0.591471
0.591492
0.59151
0.591526
0.591541
0.591553
0.591563
0.591572
0.59158
0.591586
0.591591
0.591596
0.5916
0.591603
0.591605
0.591608
0.59161
0.591612
0.591614
0.591616
0.591619
0.591622
0.591626
0.59163
0.591634
0.59164
0.591645
0.591651
0.591657
0.591663
0.591669
0.591675
0.59168
0.591686
0.591691
0.591696
0.5917
0.591705
0.591708
0.591712
0.591715
0.591718
0.591721
0.591723
0.591726
0.591728
0.59173
0.591732
0.591733
0.591735
0.591737
0.591738
0.59174
0.591742
0.591744
0.591745
0.591747
0.591749
0.591751
0.591753
0.591754
0.591756
0.591757
0.591758
0.591759
0.591759
0.591759
0.591759
0.591759
0.591758
0.591757
0.591756
0.591755
0.591754
0.591754
0.591753
0.591752
0.591752
0.591752
0.591753
0.591753
0.591755
0.591757
0.590721
0.590821
0.590901
0.590968
0.591027
0.591079
0.591126
0.59117
0.59121
0.591247
0.591282
0.591316
0.591347
0.591377
0.591404
0.59143
0.591454
0.591476
0.591496
0.591513
0.591529
0.591543
0.591554
0.591565
0.591573
0.591581
0.591587
0.591593
0.591598
0.591602
0.591605
0.591609
0.591611
0.591613
0.591616
0.591618
0.591621
0.591624
0.591627
0.591631
0.591635
0.59164
0.591645
0.59165
0.591656
0.591661
0.591667
0.591672
0.591678
0.591683
0.591688
0.591693
0.591697
0.591701
0.591705
0.591709
0.591712
0.591715
0.591718
0.59172
0.591723
0.591725
0.591727
0.591729
0.59173
0.591732
0.591734
0.591735
0.591737
0.591739
0.59174
0.591742
0.591744
0.591746
0.591748
0.591749
0.591751
0.591752
0.591754
0.591755
0.591756
0.591757
0.591757
0.591757
0.591757
0.591757
0.591756
0.591755
0.591755
0.591754
0.591753
0.591752
0.591752
0.591751
0.591751
0.591751
0.591752
0.591753
0.591755
0.591756
0.590763
0.59085
0.590929
0.590995
0.591053
0.591104
0.591151
0.591194
0.591233
0.591269
0.591303
0.591338
0.591368
0.591396
0.591422
0.591447
0.591469
0.59149
0.591508
0.591525
0.59154
0.591553
0.591564
0.591574
0.591583
0.591591
0.591598
0.591603
0.591609
0.591614
0.591618
0.591621
0.591624
0.591626
0.591629
0.591631
0.591634
0.591636
0.59164
0.591643
0.591647
0.591651
0.591656
0.591661
0.591666
0.591671
0.591675
0.59168
0.591685
0.591689
0.591694
0.591698
0.591702
0.591706
0.591709
0.591712
0.591715
0.591718
0.59172
0.591722
0.591724
0.591726
0.591728
0.59173
0.591731
0.591733
0.591735
0.591736
0.591738
0.591739
0.591741
0.591742
0.591744
0.591746
0.591747
0.591749
0.59175
0.591752
0.591753
0.591754
0.591755
0.591755
0.591756
0.591756
0.591756
0.591756
0.591755
0.591755
0.591754
0.591754
0.591753
0.591752
0.591752
0.591752
0.591752
0.591752
0.591753
0.591753
0.591755
0.591757
0.59079
0.590866
0.590948
0.591019
0.591079
0.591134
0.591184
0.591229
0.59127
0.591307
0.591341
0.591376
0.591407
0.591435
0.591459
0.591484
0.591504
0.591524
0.59154
0.591555
0.591569
0.591582
0.591592
0.591602
0.59161
0.591617
0.591624
0.59163
0.591636
0.591641
0.591645
0.591649
0.591652
0.591654
0.591657
0.591659
0.591661
0.591664
0.591666
0.591669
0.591673
0.591676
0.59168
0.591683
0.591687
0.591691
0.591695
0.591698
0.591702
0.591706
0.591709
0.591712
0.591715
0.591718
0.591721
0.591723
0.591725
0.591728
0.59173
0.591731
0.591733
0.591735
0.591736
0.591737
0.591739
0.59174
0.591741
0.591743
0.591744
0.591745
0.591746
0.591748
0.591749
0.59175
0.591752
0.591753
0.591754
0.591755
0.591756
0.591757
0.591757
0.591758
0.591758
0.591758
0.591758
0.591758
0.591758
0.591757
0.591757
0.591757
0.591756
0.591756
0.591756
0.591756
0.591756
0.591756
0.591757
0.591757
0.591759
0.59176
0.590821
0.590901
0.590997
0.59108
0.591147
0.591206
0.591259
0.591307
0.59135
0.591388
0.591423
0.591454
0.591483
0.591509
0.591535
0.591558
0.591578
0.591596
0.591612
0.591624
0.591638
0.591648
0.591656
0.591663
0.59167
0.591677
0.591683
0.591688
0.591693
0.591697
0.591701
0.591705
0.591707
0.591709
0.59171
0.591711
0.591712
0.591713
0.591715
0.591716
0.591718
0.59172
0.591722
0.591724
0.591726
0.591728
0.59173
0.591732
0.591735
0.591737
0.591739
0.591741
0.591742
0.591744
0.591746
0.591747
0.591749
0.59175
0.591752
0.591753
0.591754
0.591755
0.591756
0.591756
0.591757
0.591758
0.591758
0.591759
0.59176
0.591761
0.591761
0.591762
0.591763
0.591764
0.591764
0.591765
0.591766
0.591766
0.591767
0.591767
0.591767
0.591767
0.591767
0.591767
0.591767
0.591767
0.591767
0.591767
0.591766
0.591766
0.591766
0.591766
0.591765
0.591765
0.591765
0.591766
0.591766
0.591767
0.591768
0.591769
0.590863
0.59095
0.591065
0.591161
0.591237
0.591303
0.591364
0.591418
0.591467
0.591509
0.591548
0.591582
0.591613
0.59164
0.591664
0.591685
0.591704
0.59172
0.591733
0.591745
0.591755
0.591764
0.591772
0.591779
0.591785
0.59179
0.591794
0.591797
0.591799
0.591801
0.591802
0.591803
0.591804
0.591804
0.591803
0.591803
0.591802
0.5918
0.591799
0.591798
0.591797
0.591796
0.591796
0.591795
0.591794
0.591794
0.591794
0.591794
0.591794
0.591794
0.591794
0.591794
0.591793
0.591793
0.591793
0.591792
0.591792
0.591793
0.591793
0.591793
0.591793
0.591793
0.591793
0.591793
0.591793
0.591792
0.591792
0.591792
0.591792
0.591791
0.591791
0.591791
0.591791
0.591791
0.59179
0.59179
0.59179
0.591789
0.591789
0.591789
0.591788
0.591788
0.591788
0.591787
0.591787
0.591786
0.591786
0.591786
0.591785
0.591785
0.591784
0.591784
0.591784
0.591783
0.591783
0.591783
0.591783
0.591784
0.591784
0.591785
0.590953
0.591031
0.591146
0.591247
0.59133
0.591403
0.591469
0.59153
0.591584
0.591633
0.591677
0.591717
0.591753
0.591784
0.591813
0.591837
0.591859
0.591878
0.591893
0.591907
0.591918
0.591928
0.591936
0.591943
0.591948
0.591952
0.591955
0.591957
0.591959
0.591959
0.591958
0.591956
0.591954
0.591953
0.59195
0.591947
0.591943
0.591939
0.591934
0.59193
0.591925
0.591921
0.591916
0.591912
0.591908
0.591904
0.5919
0.591896
0.591893
0.59189
0.591886
0.591883
0.591879
0.591875
0.591872
0.591868
0.591866
0.591864
0.591863
0.591862
0.59186
0.591859
0.591857
0.591855
0.591853
0.591852
0.59185
0.591848
0.591846
0.591844
0.591843
0.591841
0.59184
0.591838
0.591836
0.591834
0.591833
0.591832
0.59183
0.591829
0.591827
0.591826
0.591825
0.591824
0.591822
0.591821
0.59182
0.59182
0.591819
0.591818
0.591817
0.591816
0.591815
0.591814
0.591813
0.591812
0.591812
0.591812
0.591811
0.591811
0.59109
0.591155
0.591257
0.591354
0.591437
0.59151
0.591575
0.591635
0.591689
0.591738
0.591783
0.591823
0.591859
0.591892
0.591921
0.591947
0.59197
0.591991
0.592009
0.592024
0.592039
0.592051
0.592062
0.592071
0.592078
0.592085
0.592091
0.592096
0.5921
0.592102
0.592104
0.592105
0.592105
0.592105
0.592104
0.592102
0.5921
0.592097
0.592093
0.592089
0.592085
0.59208
0.592075
0.59207
0.592065
0.592059
0.592053
0.592047
0.592041
0.592034
0.592028
0.592021
0.592014
0.592007
0.591998
0.591991
0.591982
0.591977
0.591977
0.591975
0.591971
0.591966
0.591961
0.591956
0.591952
0.591947
0.591943
0.591938
0.591934
0.591929
0.591925
0.591921
0.591916
0.591912
0.591908
0.591904
0.5919
0.591897
0.591893
0.59189
0.591887
0.591885
0.591882
0.59188
0.591878
0.591875
0.591873
0.591871
0.591869
0.591867
0.591866
0.591864
0.591862
0.591861
0.591859
0.591858
0.591857
0.591855
0.591854
0.591853
0.591227
0.591282
0.591364
0.591447
0.591523
0.591591
0.591653
0.591709
0.591761
0.591808
0.591851
0.59189
0.591925
0.591957
0.591986
0.592012
0.592035
0.592055
0.592073
0.592089
0.592103
0.592115
0.592127
0.592136
0.592145
0.592152
0.592158
0.592164
0.592169
0.592172
0.592175
0.592178
0.592179
0.59218
0.592182
0.592183
0.592182
0.592181
0.592179
0.592178
0.592175
0.592173
0.592171
0.592169
0.592166
0.592163
0.59216
0.592157
0.592154
0.59215
0.592146
0.592143
0.59214
0.592135
0.59213
0.592126
0.592122
0.592118
0.592115
0.592111
0.592106
0.592101
0.592096
0.592091
0.592086
0.592081
0.592075
0.592069
0.592063
0.592056
0.592049
0.592042
0.592035
0.592028
0.59202
0.592014
0.592007
0.592
0.591994
0.591988
0.591983
0.591978
0.591972
0.591968
0.591963
0.591959
0.591955
0.591951
0.591947
0.591943
0.59194
0.591936
0.591933
0.59193
0.591927
0.591925
0.591922
0.591919
0.591917
0.591914
0.591319
0.591381
0.591452
0.591524
0.591592
0.591654
0.591712
0.591765
0.591814
0.591859
0.5919
0.591938
0.591973
0.592004
0.592032
0.592056
0.592078
0.592097
0.592114
0.59213
0.592143
0.592156
0.592167
0.592176
0.592185
0.592194
0.5922
0.592205
0.59221
0.592214
0.592217
0.592219
0.592219
0.592221
0.592221
0.592221
0.59222
0.59222
0.592218
0.592216
0.592215
0.592214
0.592212
0.592211
0.592209
0.592207
0.592204
0.592202
0.592199
0.592197
0.592196
0.592194
0.592192
0.59219
0.592188
0.592186
0.592184
0.592182
0.59218
0.592178
0.592176
0.592173
0.592171
0.592169
0.592167
0.592165
0.592162
0.592159
0.592156
0.592153
0.592149
0.592145
0.592141
0.592136
0.592132
0.592127
0.592122
0.592117
0.592111
0.592106
0.5921
0.592095
0.592088
0.592083
0.592076
0.59207
0.592064
0.592058
0.592052
0.592047
0.592041
0.592036
0.592031
0.592026
0.592022
0.592017
0.592013
0.592009
0.592005
0.591999
0.591379
0.591447
0.591517
0.591585
0.591648
0.591707
0.59176
0.59181
0.591857
0.5919
0.591939
0.591975
0.592007
0.592036
0.592061
0.592084
0.592103
0.592121
0.592137
0.592151
0.592164
0.592175
0.592186
0.592195
0.592204
0.592211
0.592217
0.592222
0.592227
0.592229
0.592232
0.592233
0.592233
0.592234
0.592235
0.592235
0.592234
0.592234
0.592232
0.592231
0.59223
0.592228
0.592228
0.592225
0.592224
0.592222
0.592219
0.592217
0.592216
0.592214
0.592213
0.592211
0.59221
0.592208
0.592207
0.592206
0.592204
0.592203
0.592202
0.5922
0.592199
0.592198
0.592196
0.592195
0.592194
0.592193
0.592192
0.59219
0.592189
0.592188
0.592186
0.592185
0.592183
0.592182
0.59218
0.592178
0.592176
0.592174
0.592171
0.592169
0.592166
0.592164
0.592161
0.592158
0.592155
0.592152
0.592148
0.592145
0.592141
0.592138
0.592134
0.592131
0.592127
0.592123
0.59212
0.592116
0.592113
0.592109
0.592105
0.5921
0.591427
0.591488
0.591554
0.591616
0.591673
0.591727
0.591779
0.591827
0.591872
0.591914
0.591953
0.591988
0.592019
0.592047
0.592071
0.592093
0.592111
0.592128
0.592143
0.592157
0.592169
0.592181
0.592191
0.592202
0.592208
0.592215
0.592223
0.592228
0.592233
0.592236
0.592239
0.59224
0.592241
0.592242
0.592242
0.592242
0.592242
0.592242
0.592241
0.592239
0.592238
0.592236
0.592236
0.592234
0.592233
0.592232
0.592229
0.592227
0.592225
0.592224
0.592222
0.592221
0.59222
0.592218
0.592217
0.592215
0.592214
0.592212
0.592211
0.59221
0.592208
0.592207
0.592206
0.592204
0.592203
0.592202
0.592201
0.592199
0.592198
0.592197
0.592196
0.592194
0.592193
0.592192
0.592191
0.59219
0.592189
0.592188
0.592187
0.592185
0.592184
0.592183
0.592182
0.592181
0.59218
0.592179
0.592178
0.592177
0.592176
0.592175
0.592173
0.592172
0.59217
0.592169
0.592167
0.592165
0.592164
0.592162
0.59216
0.592157
0.591475
0.591531
0.591593
0.591651
0.591705
0.591756
0.591804
0.59185
0.591892
0.591932
0.591969
0.592002
0.592032
0.592058
0.592081
0.592102
0.59212
0.592136
0.59215
0.592163
0.592175
0.592186
0.592196
0.592205
0.592213
0.592221
0.592226
0.592232
0.592236
0.59224
0.592242
0.592244
0.592245
0.592245
0.592245
0.592245
0.592245
0.592245
0.592244
0.592243
0.592242
0.592241
0.59224
0.592239
0.592238
0.592236
0.592234
0.592233
0.592231
0.59223
0.592229
0.592227
0.592226
0.592225
0.592223
0.592222
0.592221
0.59222
0.592218
0.592217
0.592216
0.592214
0.592213
0.592212
0.592211
0.59221
0.592209
0.592208
0.592207
0.592206
0.592205
0.592204
0.592203
0.592202
0.592201
0.5922
0.592199
0.592198
0.592197
0.592196
0.592196
0.592195
0.592194
0.592193
0.592192
0.592192
0.592191
0.59219
0.592189
0.592188
0.592187
0.592186
0.592185
0.592184
0.592183
0.592182
0.59218
0.592179
0.592178
0.592177
0.591528
0.591577
0.591634
0.591688
0.591737
0.591784
0.591828
0.59187
0.59191
0.591948
0.591983
0.592015
0.592043
0.592068
0.59209
0.59211
0.592127
0.592142
0.592155
0.592167
0.592179
0.592189
0.592199
0.592207
0.592215
0.592222
0.592228
0.592233
0.592237
0.592241
0.592243
0.592245
0.592246
0.592246
0.592247
0.592247
0.592247
0.592247
0.592246
0.592246
0.592245
0.592244
0.592243
0.592242
0.592241
0.592239
0.592237
0.592236
0.592234
0.592233
0.592232
0.592231
0.59223
0.592228
0.592228
0.592227
0.592225
0.592225
0.592223
0.592222
0.592221
0.592219
0.592218
0.592217
0.592215
0.592215
0.592214
0.592213
0.592212
0.592211
0.59221
0.592209
0.592208
0.592207
0.592206
0.592205
0.592205
0.592204
0.592203
0.592202
0.592202
0.592201
0.5922
0.592199
0.592198
0.592198
0.592197
0.592196
0.592196
0.592195
0.592194
0.592193
0.592191
0.592191
0.592189
0.592188
0.592187
0.592186
0.592185
0.592185
0.591584
0.591626
0.591678
0.591726
0.59177
0.591812
0.591853
0.591892
0.591929
0.591964
0.591997
0.592027
0.592053
0.592077
0.592098
0.592116
0.592132
0.592146
0.592159
0.59217
0.592181
0.592191
0.5922
0.592209
0.592216
0.592223
0.592229
0.592234
0.592238
0.592241
0.592243
0.592245
0.592246
0.592247
0.592247
0.592247
0.592247
0.592247
0.592247
0.592246
0.592245
0.592244
0.592243
0.592242
0.592241
0.59224
0.592239
0.592238
0.592236
0.592235
0.592234
0.592233
0.592232
0.592231
0.59223
0.592229
0.592228
0.592227
0.592226
0.592225
0.592224
0.592223
0.592222
0.592221
0.59222
0.592219
0.592218
0.592217
0.592216
0.592216
0.592215
0.592213
0.592212
0.592211
0.59221
0.592209
0.592208
0.592207
0.592206
0.592206
0.592205
0.592204
0.592203
0.592203
0.592202
0.592201
0.592201
0.5922
0.592199
0.592199
0.592198
0.592197
0.592196
0.592195
0.592194
0.592193
0.592192
0.592191
0.59219
0.592189
0.591641
0.591677
0.591724
0.591767
0.591807
0.591845
0.591882
0.591917
0.591951
0.591983
0.592013
0.59204
0.592065
0.592087
0.592107
0.592124
0.592139
0.592153
0.592165
0.592176
0.592186
0.592195
0.592203
0.592211
0.592218
0.592224
0.592229
0.592234
0.592237
0.59224
0.592243
0.592244
0.592246
0.592246
0.592247
0.592247
0.592247
0.592247
0.592247
0.592246
0.592245
0.592245
0.592244
0.592243
0.592242
0.592241
0.59224
0.592238
0.592237
0.592236
0.592235
0.592234
0.592233
0.592232
0.592231
0.59223
0.592229
0.592228
0.592227
0.592226
0.592225
0.592224
0.592224
0.592223
0.592222
0.592221
0.59222
0.592219
0.592219
0.592218
0.592217
0.592216
0.592215
0.592213
0.592211
0.59221
0.592209
0.592208
0.592207
0.592206
0.592205
0.592204
0.592204
0.592203
0.592202
0.592202
0.592201
0.592201
0.5922
0.592199
0.592199
0.592198
0.592197
0.592197
0.592196
0.592195
0.592195
0.592194
0.592194
0.592193
0.591693
0.591725
0.591766
0.591806
0.591841
0.591875
0.591908
0.59194
0.591971
0.592
0.592027
0.592052
0.592075
0.592096
0.592114
0.59213
0.592144
0.592157
0.592168
0.592178
0.592187
0.592196
0.592204
0.592211
0.592218
0.592223
0.592228
0.592233
0.592236
0.592239
0.592241
0.592243
0.592244
0.592245
0.592246
0.592246
0.592246
0.592246
0.592245
0.592245
0.592244
0.592244
0.592243
0.592242
0.592241
0.59224
0.592239
0.592238
0.592237
0.592236
0.592235
0.592234
0.592233
0.592232
0.592231
0.59223
0.592229
0.592228
0.592228
0.592227
0.592226
0.592225
0.592224
0.592224
0.592223
0.592221
0.59222
0.592219
0.592218
0.592217
0.592217
0.592216
0.592215
0.592214
0.592213
0.592212
0.592211
0.592211
0.59221
0.592209
0.592208
0.592208
0.592207
0.592206
0.592206
0.592205
0.592205
0.592204
0.592203
0.592203
0.592202
0.592201
0.592201
0.5922
0.592199
0.592198
0.592197
0.592197
0.592196
0.592196
0.591741
0.591769
0.591807
0.591843
0.591875
0.591906
0.591936
0.591965
0.591992
0.592018
0.592043
0.592065
0.592086
0.592105
0.592122
0.592137
0.59215
0.592162
0.592173
0.592182
0.592191
0.592199
0.592206
0.592213
0.592219
0.592224
0.592228
0.592232
0.592235
0.592238
0.59224
0.592242
0.592243
0.592244
0.592244
0.592245
0.592245
0.592245
0.592244
0.592244
0.592243
0.592243
0.592242
0.592242
0.592241
0.59224
0.592239
0.592238
0.592237
0.592236
0.592235
0.592234
0.592233
0.592232
0.592231
0.59223
0.592229
0.592228
0.592227
0.592226
0.592225
0.592225
0.592224
0.592223
0.592222
0.592222
0.592221
0.59222
0.59222
0.592219
0.592218
0.592217
0.592217
0.592216
0.592215
0.592214
0.592213
0.592211
0.592211
0.592209
0.592208
0.592208
0.592207
0.592206
0.592206
0.592205
0.592205
0.592204
0.592204
0.592203
0.592203
0.592202
0.592202
0.592201
0.592201
0.5922
0.5922
0.592199
0.592199
0.592198
0.591789
0.591814
0.591847
0.591879
0.591907
0.591934
0.591961
0.591987
0.592011
0.592035
0.592057
0.592078
0.592096
0.592114
0.592129
0.592142
0.592155
0.592166
0.592175
0.592184
0.592192
0.592199
0.592206
0.592212
0.592218
0.592223
0.592227
0.59223
0.592233
0.592236
0.592238
0.592239
0.592241
0.592241
0.592242
0.592242
0.592242
0.592242
0.592242
0.592242
0.592241
0.592241
0.59224
0.592239
0.592239
0.592238
0.592237
0.592236
0.592235
0.592234
0.592234
0.592233
0.592232
0.592231
0.59223
0.592229
0.592228
0.592227
0.592226
0.592226
0.592225
0.592224
0.592223
0.592222
0.592222
0.592221
0.59222
0.59222
0.592219
0.592218
0.592218
0.592217
0.592216
0.592215
0.592214
0.592213
0.592212
0.592211
0.59221
0.59221
0.592209
0.592208
0.592208
0.592207
0.592207
0.592206
0.592206
0.592205
0.592205
0.592204
0.592204
0.592203
0.592203
0.592203
0.592202
0.592202
0.592201
0.592201
0.5922
0.5922
0.591833
0.591855
0.591884
0.591913
0.591939
0.591963
0.591987
0.59201
0.592032
0.592053
0.592072
0.59209
0.592107
0.592122
0.592136
0.592148
0.59216
0.59217
0.592179
0.592187
0.592194
0.592201
0.592207
0.592213
0.592218
0.592222
0.592226
0.592229
0.592232
0.592234
0.592236
0.592237
0.592238
0.592239
0.59224
0.59224
0.59224
0.59224
0.59224
0.59224
0.592239
0.592239
0.592238
0.592238
0.592237
0.592236
0.592235
0.592235
0.592234
0.592233
0.592232
0.592231
0.59223
0.592229
0.592228
0.592227
0.592227
0.592226
0.592225
0.592224
0.592224
0.592223
0.592222
0.592222
0.592221
0.59222
0.59222
0.592219
0.592219
0.592218
0.592217
0.592216
0.592215
0.592214
0.592213
0.592212
0.592212
0.592211
0.59221
0.59221
0.592209
0.592209
0.592208
0.592208
0.592207
0.592207
0.592207
0.592206
0.592206
0.592205
0.592205
0.592205
0.592204
0.592204
0.592204
0.592203
0.592203
0.592202
0.592202
0.592202
0.591879
0.591897
0.591923
0.591947
0.591969
0.59199
0.592011
0.592031
0.59205
0.592069
0.592086
0.592102
0.592117
0.59213
0.592143
0.592154
0.592164
0.592173
0.592181
0.592188
0.592195
0.592201
0.592207
0.592212
0.592216
0.59222
0.592224
0.592227
0.592229
0.592231
0.592233
0.592234
0.592235
0.592236
0.592236
0.592236
0.592237
0.592237
0.592237
0.592236
0.592236
0.592236
0.592235
0.592235
0.592234
0.592233
0.592233
0.592232
0.592231
0.592231
0.59223
0.592229
0.592228
0.592227
0.592226
0.592226
0.592225
0.592224
0.592224
0.592223
0.592222
0.592221
0.592221
0.59222
0.59222
0.592219
0.592218
0.592218
0.592217
0.592217
0.592216
0.592215
0.592214
0.592214
0.592213
0.592212
0.592212
0.592211
0.592211
0.59221
0.59221
0.592209
0.592209
0.592208
0.592208
0.592208
0.592207
0.592207
0.592207
0.592206
0.592206
0.592206
0.592205
0.592205
0.592205
0.592204
0.592204
0.592204
0.592203
0.592203
0.59192
0.591935
0.591957
0.591978
0.591997
0.592016
0.592034
0.592052
0.592069
0.592085
0.5921
0.592114
0.592127
0.592139
0.59215
0.59216
0.592169
0.592177
0.592184
0.592191
0.592197
0.592202
0.592207
0.592211
0.592215
0.592219
0.592222
0.592225
0.592227
0.592228
0.59223
0.592231
0.592232
0.592233
0.592233
0.592233
0.592233
0.592234
0.592234
0.592233
0.592233
0.592233
0.592232
0.592232
0.592231
0.592231
0.59223
0.592229
0.592229
0.592228
0.592228
0.592227
0.592226
0.592225
0.592225
0.592224
0.592223
0.592222
0.592222
0.592221
0.592221
0.59222
0.592219
0.592218
0.592218
0.592217
0.592216
0.592216
0.592215
0.592214
0.592214
0.592213
0.592213
0.592212
0.592212
0.592212
0.592211
0.592211
0.59221
0.59221
0.59221
0.592209
0.592209
0.592208
0.592208
0.592208
0.592208
0.592207
0.592207
0.592207
0.592206
0.592206
0.592206
0.592206
0.592205
0.592205
0.592205
0.592204
0.592204
0.592204
0.591962
0.591975
0.591993
0.592011
0.592027
0.592043
0.592058
0.592073
0.592087
0.592101
0.592114
0.592126
0.592137
0.592147
0.592157
0.592165
0.592173
0.59218
0.592186
0.592192
0.592197
0.592202
0.592206
0.59221
0.592213
0.592217
0.592219
0.592221
0.592223
0.592225
0.592226
0.592227
0.592228
0.592229
0.592229
0.592229
0.59223
0.59223
0.59223
0.59223
0.592229
0.592229
0.592229
0.592228
0.592228
0.592227
0.592227
0.592226
0.592226
0.592225
0.592225
0.592224
0.592223
0.592223
0.592222
0.592222
0.592221
0.592221
0.59222
0.59222
0.592219
0.592219
0.592218
0.592218
0.592217
0.592217
0.592216
0.592215
0.592215
0.592214
0.592213
0.592213
0.592212
0.592212
0.592212
0.592211
0.592211
0.592211
0.59221
0.59221
0.59221
0.592209
0.592209
0.592209
0.592209
0.592208
0.592208
0.592208
0.592207
0.592207
0.592207
0.592207
0.592207
0.592206
0.592206
0.592206
0.592206
0.592205
0.592205
0.592205
0.592001
0.592012
0.592027
0.592042
0.592055
0.592069
0.592081
0.592094
0.592106
0.592117
0.592128
0.592138
0.592147
0.592156
0.592164
0.592171
0.592178
0.592184
0.592189
0.592194
0.592199
0.592203
0.592206
0.592209
0.592212
0.592215
0.592217
0.592219
0.59222
0.592222
0.592223
0.592224
0.592225
0.592225
0.592225
0.592226
0.592226
0.592226
0.592226
0.592226
0.592226
0.592226
0.592225
0.592225
0.592225
0.592224
0.592224
0.592223
0.592223
0.592222
0.592222
0.592221
0.592221
0.59222
0.59222
0.592219
0.592219
0.592218
0.592218
0.592218
0.592217
0.592217
0.592216
0.592216
0.592216
0.592215
0.592214
0.592214
0.592213
0.592213
0.592212
0.592212
0.592212
0.592211
0.592211
0.592211
0.59221
0.59221
0.59221
0.59221
0.592209
0.592209
0.592209
0.592209
0.592208
0.592208
0.592208
0.592208
0.592208
0.592207
0.592207
0.592207
0.592207
0.592207
0.592206
0.592206
0.592206
0.592206
0.592206
0.592205
0.592042
0.59205
0.592062
0.592074
0.592084
0.592095
0.592105
0.592114
0.592124
0.592133
0.592141
0.592149
0.592157
0.592164
0.59217
0.592176
0.592182
0.592187
0.592191
0.592195
0.592199
0.592202
0.592205
0.592208
0.59221
0.592212
0.592214
0.592216
0.592217
0.592218
0.592219
0.59222
0.592221
0.592221
0.592222
0.592222
0.592222
0.592222
0.592222
0.592222
0.592222
0.592222
0.592222
0.592222
0.592221
0.592221
0.592221
0.59222
0.59222
0.59222
0.592219
0.592219
0.592218
0.592218
0.592218
0.592217
0.592217
0.592217
0.592216
0.592216
0.592215
0.592215
0.592215
0.592214
0.592214
0.592213
0.592213
0.592213
0.592212
0.592212
0.592212
0.592211
0.592211
0.592211
0.592211
0.592211
0.59221
0.59221
0.59221
0.59221
0.59221
0.592209
0.592209
0.592209
0.592209
0.592209
0.592208
0.592208
0.592208
0.592208
0.592208
0.592208
0.592207
0.592207
0.592207
0.592207
0.592207
0.592206
0.592206
0.592206
0.592078
0.592084
0.592094
0.592103
0.592111
0.59212
0.592128
0.592135
0.592143
0.592149
0.592156
0.592162
0.592167
0.592173
0.592178
0.592182
0.592187
0.592191
0.592194
0.592198
0.592201
0.592204
0.592206
0.592208
0.59221
0.592212
0.592213
0.592214
0.592215
0.592216
0.592217
0.592218
0.592218
0.592219
0.592219
0.592219
0.592219
0.592219
0.592219
0.592219
0.592219
0.592219
0.592219
0.592219
0.592219
0.592218
0.592218
0.592218
0.592217
0.592217
0.592216
0.592216
0.592216
0.592215
0.592215
0.592215
0.592214
0.592214
0.592214
0.592213
0.592213
0.592212
0.592212
0.592212
0.592212
0.592211
0.592211
0.592211
0.592211
0.592211
0.592211
0.59221
0.59221
0.59221
0.59221
0.59221
0.59221
0.592209
0.592209
0.592209
0.592209
0.592209
0.592209
0.592209
0.592208
0.592208
0.592208
0.592208
0.592208
0.592208
0.592208
0.592208
0.592207
0.592207
0.592207
0.592207
0.592207
0.592207
0.592207
0.592206
0.592114
0.592119
0.592126
0.592133
0.592139
0.592145
0.592151
0.592156
0.592161
0.592166
0.59217
0.592174
0.592178
0.592182
0.592185
0.592189
0.592192
0.592195
0.592198
0.5922
0.592202
0.592205
0.592206
0.592208
0.592209
0.592211
0.592212
0.592212
0.592213
0.592214
0.592214
0.592215
0.592215
0.592215
0.592215
0.592215
0.592215
0.592215
0.592215
0.592215
0.592215
0.592215
0.592215
0.592215
0.592214
0.592214
0.592214
0.592214
0.592213
0.592213
0.592213
0.592213
0.592212
0.592212
0.592212
0.592211
0.592211
0.592211
0.592211
0.59221
0.59221
0.59221
0.59221
0.59221
0.59221
0.592209
0.592209
0.592209
0.592209
0.592209
0.592209
0.592209
0.592209
0.592208
0.592208
0.592208
0.592208
0.592208
0.592208
0.592208
0.592208
0.592208
0.592208
0.592207
0.592207
0.592207
0.592207
0.592207
0.592207
0.592207
0.592207
0.592207
0.592207
0.592207
0.592206
0.592206
0.592206
0.592206
0.592206
0.592206
0.592152
0.592152
0.592157
0.592161
0.592167
0.592172
0.592175
0.592178
0.592181
0.592183
0.592185
0.592187
0.592189
0.592191
0.592193
0.592195
0.592197
0.592199
0.5922
0.592202
0.592203
0.592205
0.592206
0.592206
0.592208
0.592208
0.592209
0.59221
0.59221
0.59221
0.59221
0.59221
0.59221
0.59221
0.59221
0.59221
0.59221
0.59221
0.59221
0.59221
0.59221
0.59221
0.59221
0.59221
0.59221
0.592209
0.592209
0.592209
0.592209
0.592209
0.592209
0.592208
0.592208
0.592208
0.592208
0.592208
0.592208
0.592208
0.592208
0.592208
0.592208
0.592208
0.592208
0.592208
0.592208
0.592208
0.592207
0.592207
0.592207
0.592207
0.592207
0.592207
0.592207
0.592207
0.592207
0.592207
0.592207
0.592207
0.592207
0.592207
0.592207
0.592207
0.592206
0.592206
0.592206
0.592206
0.592206
0.592206
0.592206
0.592206
0.592206
0.592206
0.592206
0.592206
0.592206
0.592206
0.592206
0.592206
0.592206
0.592205
0.592191
0.592193
0.592194
0.592196
0.592197
0.592199
0.592201
0.592202
0.592203
0.592203
0.592203
0.592203
0.592203
0.592204
0.592204
0.592204
0.592205
0.592205
0.592205
0.592206
0.592206
0.592206
0.592207
0.592207
0.592207
0.592207
0.592207
0.592207
0.592207
0.592207
0.592207
0.592207
0.592207
0.592207
0.592206
0.592206
0.592206
0.592206
0.592206
0.592206
0.592206
0.592206
0.592206
0.592205
0.592205
0.592205
0.592205
0.592205
0.592205
0.592205
0.592205
0.592205
0.592205
0.592205
0.592205
0.592205
0.592205
0.592205
0.592205
0.592205
0.592205
0.592205
0.592205
0.592205
0.592205
0.592205
0.592205
0.592205
0.592205
0.592205
0.592205
0.592205
0.592205
0.592205
0.592205
0.592205
0.592205
0.592205
0.592205
0.592205
0.592205
0.592205
0.592205
0.592205
0.592205
0.592205
0.592205
0.592205
0.592205
0.592205
0.592205
0.592205
0.592205
0.592205
0.592205
0.592205
0.592205
0.592205
0.592205
0.592205
0.591202
0.591193
0.591201
0.591221
0.591241
0.591265
0.591282
0.5913
0.591308
0.591269
0.591299
0.591287
0.591287
0.591299
0.591318
0.591338
0.591346
0.591355
0.591358
0.591334
0.591396
0.59138
0.591374
0.591377
0.591386
0.591402
0.591414
0.591414
0.591412
0.591394
0.591477
0.591459
0.59145
0.591449
0.591453
0.591462
0.591474
0.591478
0.591471
0.591452
0.591554
0.591536
0.591525
0.59152
0.59152
0.591522
0.591529
0.591536
0.591534
0.591514
0.591618
0.591602
0.59159
0.591584
0.591581
0.591582
0.591584
0.59159
0.591593
0.591576
0.591681
0.591664
0.591653
0.591645
0.591641
0.591639
0.591639
0.591639
0.591644
0.591635
0.591735
0.591719
0.591708
0.591701
0.591696
0.591693
0.591692
0.591692
0.591693
0.59169
0.591787
0.591773
0.591761
0.591753
0.591748
0.591744
0.591742
0.591741
0.591741
0.591739
0.591832
0.59182
0.591809
0.591801