/*--------------------------------*- C++ -*----------------------------------*\
  =========                 |
  \\      /  F ield         | OpenFOAM: The Open Source CFD Toolbox
   \\    /   O peration     | Website:  https://openfoam.org
    \\  /    A nd           | Version:  8
     \\/     M anipulation  |
\*---------------------------------------------------------------------------*/
FoamFile
{
    version     2.0;
    format      ascii;
    class       volVectorField;
    location    "4.0000146318";
    object      U;
}
// * * * * * * * * * * * * * * * * * * * * * * * * * * * * * * * * * * * * * //

dimensions      [0 1 -1 0 0 0 0];

internalField   nonuniform List<vector> 
6800
(
(1.43385 3.88665 -1.04357e-14)
(21.1729 -3.43941 2.86572e-15)
(31.8448 -4.63799 2.83262e-15)
(38.7902 -4.57026 -2.87539e-15)
(43.4999 -4.17964 1.94435e-15)
(46.6919 -3.68974 2.58216e-15)
(48.8539 -3.20354 -4.08565e-15)
(50.3315 -2.7583 3.70385e-15)
(51.3599 -2.34171 -2.65048e-15)
(52.0501 -1.9981 5.20398e-16)
(11.2247 1.13895 1.44917e-14)
(28.0923 -5.64796 -4.04451e-15)
(37.9368 -5.45045 -9.43092e-16)
(43.8972 -4.79678 2.01461e-15)
(47.6582 -4.07498 -1.9301e-15)
(50.0441 -3.37056 -4.63627e-17)
(51.5572 -2.76236 5.823e-18)
(52.5077 -2.26706 -1.13198e-15)
(53.1016 -1.87338 1.98023e-16)
(53.4266 -1.64572 2.62839e-15)
(18.4774 -1.02676 2.57627e-15)
(34.3849 -7.71639 -7.26373e-16)
(43.27 -5.97171 1.96017e-15)
(48.196 -4.80538 -4.5318e-15)
(51.023 -3.79794 9.23936e-16)
(52.6631 -2.92641 -2.88273e-15)
(53.5875 -2.23368 2.63854e-15)
(54.0715 -1.71033 -3.16388e-16)
(54.2974 -1.31762 3.44431e-15)
(54.3426 -1.07994 -5.43734e-15)
(26.1403 -2.52372 4.24082e-15)
(40.5722 -9.28154 -9.92163e-16)
(48.1257 -6.03933 -1.87993e-16)
(51.8936 -4.54624 6.02911e-16)
(53.8043 -3.3193 -1.89921e-15)
(54.749 -2.33605 1.84412e-15)
(55.1448 -1.60339 -3.1238e-15)
(55.2419 -1.07118 4.59162e-15)
(55.1874 -0.678686 -3.23211e-15)
(55.0338 -0.427559 4.00552e-15)
(33.7445 -2.88124 4.12687e-18)
(46.5028 -10.0726 1.94312e-15)
(52.5216 -5.5245 7.83569e-16)
(55.0983 -3.95195 3.59537e-15)
(56.1331 -2.58633 -1.9409e-15)
(56.438 -1.56638 6.21071e-16)
(56.3832 -0.838726 7.8481e-16)
(56.1727 -0.319042 2.43133e-15)
(55.9064 0.0596961 -3.36245e-15)
(55.6056 0.310209 1.45962e-15)
(40.9384 -2.08822 -1.94528e-15)
(52.0255 -9.98395 -9.62347e-16)
(56.435 -4.37904 -4.99749e-17)
(57.8647 -2.98276 -1.31451e-15)
(58.0804 -1.55971 -1.71013e-16)
(57.8263 -0.586119 1.00047e-15)
(57.402 0.0928366 -1.37819e-15)
(56.9492 0.574795 1.60268e-15)
(56.5162 0.921541 -1.80861e-15)
(56.0959 1.15544 -3.72657e-16)
(47.4535 -0.230398 2.76804e-16)
(57.0006 -8.97617 1.04488e-15)
(59.8106 -2.60331 7.74824e-16)
(60.2004 -1.6204 -1.14022e-15)
(59.6815 -0.214973 -1.59673e-16)
(58.9632 0.625508 1.49643e-15)
(58.2427 1.21747 -6.26288e-16)
(57.596 1.63321 9.76791e-16)
(57.0273 1.92131 -2.00559e-15)
(56.5034 2.12191 3.60628e-20)
(53.078 2.56366 6.95148e-16)
(61.3035 -7.10789 -1.78832e-16)
(62.5929 -0.262426 -8.37566e-16)
(62.0853 0.126811 -1.4326e-15)
(60.9439 1.44498 2.51622e-15)
(59.8583 2.07179 -1.76911e-15)
(58.9037 2.54181 3.58003e-16)
(58.1024 2.85856 -1.40171e-15)
(57.4204 3.05794 -6.19367e-16)
(56.8047 3.21036 -7.97908e-16)
(57.6625 6.09701 8.38456e-17)
(64.8237 -4.44614 1.32686e-16)
(64.7279 2.55088 -7.01637e-16)
(63.4891 2.22497 5.47155e-16)
(61.8507 3.38053 4.51945e-16)
(60.4939 3.74022 -6.32577e-16)
(59.36 4.05058 3.02258e-16)
(58.4355 4.23686 5.17488e-16)
(57.6654 4.31723 5.31715e-16)
(56.9689 4.40834 6.24561e-16)
(61.128 10.1579 -2.31586e-16)
(67.4718 -1.10043 -7.28258e-17)
(66.1665 5.7007 -1.64847e-16)
(64.3806 4.61499 1.66648e-16)
(62.381 5.55318 -5.15316e-16)
(60.8367 5.59019 -9.84887e-17)
(59.5732 5.71383 -4.55505e-17)
(58.5608 5.73543 4.53733e-16)
(57.7279 5.67215 2.14866e-16)
(56.9654 5.69155 -9.86248e-16)
(-3.34464 1.69326 1.74597e-15)
(-5.33015 1.18993 -4.9596e-16)
(-7.19334 0.878331 -2.32078e-16)
(-8.60895 0.644792 3.72454e-16)
(-9.50623 0.42368 -7.76466e-17)
(-9.9578 0.194235 5.28553e-16)
(-10.0007 -0.047127 1.78197e-16)
(-9.66594 -0.289398 -2.89932e-16)
(-8.9924 -0.510472 5.80018e-16)
(-8.03265 -0.667535 -1.98766e-16)
(-3.35354 4.29969 -8.90937e-16)
(-4.98105 3.28242 8.13806e-16)
(-6.53087 2.47486 1.65974e-16)
(-7.63053 1.82604 8.69671e-16)
(-8.2202 1.20134 -3.38263e-16)
(-8.35061 0.536868 -1.01403e-16)
(-8.03663 -0.185347 -1.03963e-15)
(-7.28259 -0.922145 7.2894e-16)
(-6.16771 -1.57337 2.35647e-16)
(-4.76619 -2.00454 1.06183e-15)
(-3.4748 6.53842 -2.11271e-15)
(-4.53297 5.07496 -1.02863e-16)
(-5.47536 3.83655 1.77053e-15)
(-5.94043 2.80109 -2.82552e-15)
(-5.8733 1.79774 7.26165e-18)
(-5.27745 0.716381 -3.55282e-16)
(-4.09659 -0.485009 2.99161e-15)
(-2.41158 -1.70884 -1.91698e-15)
(-0.561259 -2.72822 4.64081e-15)
(1.63373 -3.33297 -1.96246e-15)
(-3.70993 8.1697 -2.34916e-15)
(-4.06429 6.36212 2.26102e-15)
(-4.1555 4.77545 -3.82122e-15)
(-3.67503 3.39703 4.5625e-15)
(-2.51671 2.03497 1.09864e-15)
(-0.530315 0.497444 -5.57675e-16)
(2.26853 -1.17731 -2.01414e-15)
(4.89399 -2.57932 1.34817e-15)
(7.38816 -3.64738 9.79082e-16)
(10.066 -4.13925 -3.82182e-15)
(-4.00832 9.07377 9.29291e-15)
(-3.60252 7.00221 5.99201e-17)
(-2.56866 5.11504 1.75503e-15)
(-0.616781 3.3168 -9.97703e-15)
(2.48396 1.47245 5.49244e-15)
(6.42743 -0.412451 9.99079e-16)
(10.1183 -2.00687 7.75653e-16)
(13.4451 -3.21519 1.22436e-15)
(16.3947 -4.11561 3.03668e-16)
(19.5017 -4.42142 5.44432e-15)
(-4.32126 9.29763 7.10154e-15)
(-3.03926 6.85957 2.34906e-15)
(-0.345114 4.59032 2.22504e-15)
(3.92865 2.34837 -8.83966e-15)
(9.31215 0.182206 7.39046e-15)
(14.2573 -1.53402 -4.72488e-15)
(18.6166 -2.83461 -7.21653e-15)
(22.4077 -3.73179 1.82458e-15)
(25.6072 -4.30232 -4.8089e-15)
(28.7923 -4.33001 1.71984e-15)
(-4.63224 8.91744 5.90311e-15)
(-2.12359 5.86334 4.66705e-15)
(3.26211 3.14135 -6.89312e-15)
(10.504 0.521868 1.5052e-14)
(16.9734 -1.35772 2.69492e-15)
(22.4861 -2.65189 -7.4209e-15)
(27.0782 -3.47925 4.2932e-15)
(30.8298 -3.9669 -6.5741e-16)
(33.8236 -4.21493 2.67346e-15)
(36.6187 -4.02144 1.23991e-15)
(-5.04991 8.15039 -9.93509e-15)
(-0.300915 4.2192 -2.15127e-14)
(9.69604 0.680184 6.10501e-15)
(18.1388 -1.45561 5.15557e-16)
(24.9497 -2.70054 -3.21665e-15)
(30.3432 -3.40908 -2.67872e-15)
(34.5347 -3.78632 4.13447e-16)
(37.7902 -3.92659 -1.64954e-15)
(40.3015 -3.9143 -1.75413e-15)
(42.5427 -3.57637 4.99892e-15)
(-5.02876 6.79015 1.11953e-14)
(6.34293 1.11183 6.77109e-15)
(17.4093 -1.72029 2.85157e-15)
(25.8802 -3.0085 -1.12291e-15)
(32.2385 -3.593 2.97594e-17)
(36.9867 -3.79259 2.04806e-15)
(40.5293 -3.78088 4.60967e-15)
(43.1801 -3.64703 -2.86463e-15)
(45.1571 -3.45052 -3.12429e-15)
(46.8337 -3.03815 3.31755e-15)
(-3.8708 5.37471 -9.17614e-15)
(13.9565 -1.30902 -2.98234e-16)
(24.978 -3.45952 -3.65346e-15)
(32.7883 -4.02488 -9.68726e-17)
(38.3844 -4.04921 4.86912e-16)
(42.3841 -3.85351 -3.33336e-16)
(45.2378 -3.562 -2.2761e-16)
(47.2803 -3.23646 -2.16865e-15)
(48.7368 -2.90309 -3.21198e-15)
(49.8604 -2.47052 9.42004e-16)
(-6.79162 -0.726731 1.27155e-16)
(-5.22471 -0.692043 2.05623e-17)
(-3.77829 -0.632524 -2.02329e-16)
(-2.45346 -0.580351 1.51933e-16)
(-1.22942 -0.54221 6.83587e-17)
(-0.067338 -0.510757 -3.26333e-16)
(1.03326 -0.478349 -1.67292e-16)
(2.05538 -0.449277 2.4795e-16)
(3.03195 -0.42659 -1.50409e-16)
(3.96586 -0.407952 -4.4538e-17)
(4.86309 -0.391818 1.52292e-16)
(5.72799 -0.377381 -6.14857e-17)
(6.56342 -0.364158 3.77268e-16)
(7.37158 -0.351868 -1.92751e-16)
(8.15419 -0.340327 -4.40404e-16)
(8.91264 -0.32941 5.82227e-16)
(9.64816 -0.319018 -2.47586e-16)
(10.3618 -0.309034 -1.29998e-16)
(11.0543 -0.299366 1.33177e-16)
(11.7263 -0.28994 -3.11933e-17)
(12.3782 -0.280705 -3.22599e-17)
(13.0102 -0.271638 9.17949e-17)
(13.6226 -0.262739 -1.54859e-16)
(14.2157 -0.254025 4.13089e-16)
(14.7898 -0.245513 2.04734e-17)
(15.3454 -0.237223 -4.3991e-16)
(15.8828 -0.229171 3.22166e-16)
(16.4027 -0.221366 7.17429e-17)
(16.9055 -0.213817 -1.51861e-18)
(17.3917 -0.20653 -2.47249e-16)
(17.8619 -0.199507 1.50607e-16)
(18.3167 -0.19275 -2.45798e-16)
(18.7567 -0.186253 2.23323e-16)
(19.1823 -0.180011 -2.93711e-16)
(19.5942 -0.174016 4.27837e-16)
(19.9928 -0.168262 -2.65815e-16)
(20.3787 -0.162739 -1.1585e-16)
(20.7524 -0.157441 3.77175e-16)
(21.1144 -0.152361 -9.324e-17)
(21.4652 -0.147492 -7.58535e-18)
(21.8051 -0.142824 -1.8325e-16)
(22.1347 -0.138345 6.71125e-17)
(22.4543 -0.134044 -3.57517e-17)
(22.7644 -0.129913 -1.90537e-17)
(23.0652 -0.125941 2.29079e-16)
(23.3572 -0.122121 -9.85175e-17)
(23.6407 -0.118447 1.55341e-16)
(23.916 -0.114912 -2.68438e-16)
(24.1835 -0.111512 4.04372e-17)
(24.4433 -0.108243 3.09254e-17)
(24.6958 -0.105099 -1.77686e-18)
(24.9413 -0.102076 -6.71919e-17)
(25.1801 -0.0991697 7.96028e-17)
(25.4123 -0.0963771 3.34354e-17)
(25.6383 -0.0936936 -1.68714e-17)
(25.8584 -0.0911151 -6.78248e-17)
(26.0726 -0.0886375 1.33522e-17)
(26.2813 -0.0862567 -6.98468e-17)
(26.4847 -0.0839687 4.39197e-17)
(26.6829 -0.0817692 1.06795e-16)
(26.8763 -0.0796546 -9.7239e-17)
(27.0649 -0.0776212 3.50849e-18)
(27.2489 -0.0756657 -3.42724e-17)
(27.4285 -0.0737849 1.00186e-17)
(27.604 -0.0719755 6.17115e-17)
(27.7753 -0.070234 5.81018e-17)
(27.9428 -0.0685571 -1.45955e-16)
(28.1064 -0.0669417 4.32733e-17)
(28.2664 -0.0653851 1.10017e-17)
(28.423 -0.0638852 -3.68658e-17)
(28.5761 -0.0624401 -6.86301e-17)
(28.7259 -0.061049 1.45194e-16)
(28.8726 -0.0597107 -4.23475e-17)
(29.0163 -0.0584239 3.20356e-17)
(29.1571 -0.0571866 -2.89459e-17)
(29.295 -0.0559968 -4.49795e-17)
(29.4303 -0.0548521 1.29774e-17)
(29.563 -0.0537497 4.47843e-17)
(29.6933 -0.0526868 -6.68459e-17)
(29.8211 -0.0516606 8.31891e-17)
(29.9467 -0.0506684 2.37342e-18)
(30.07 -0.0497079 -1.32096e-17)
(30.1911 -0.0487773 -3.14102e-17)
(30.3102 -0.0478753 4.80914e-17)
(30.4272 -0.0470011 -3.99938e-17)
(30.5423 -0.0461551 3.43403e-17)
(30.6554 -0.0453371 -5.00927e-17)
(30.7667 -0.0445477 -6.02544e-18)
(30.8762 -0.0437857 3.2904e-17)
(30.984 -0.04305 2.0895e-18)
(31.0901 -0.0423367 -1.21465e-17)
(31.1945 -0.0416424 -5.20296e-19)
(31.2974 -0.0409581 -1.90656e-18)
(31.3986 -0.0402768 -4.42999e-18)
(31.4982 -0.0395827 2.48864e-18)
(31.5962 -0.03886 -1.56178e-18)
(31.6924 -0.0380825 5.80652e-18)
(31.7865 -0.0372281 4.03706e-18)
(31.8786 -0.036255 -7.44548e-19)
(31.9898 -0.0342424 1.20513e-18)
(-3.39486 -2.09591 -5.09943e-16)
(-2.10129 -1.94925 -3.62672e-16)
(-0.848829 -1.78542 -1.60241e-15)
(0.331128 -1.64432 1.32323e-15)
(1.42234 -1.53258 -1.8871e-15)
(2.44285 -1.44231 1.37497e-15)
(3.41623 -1.36005 -9.14158e-16)
(4.34801 -1.28702 -6.55914e-16)
(5.24615 -1.22673 1.44233e-15)
(6.11165 -1.1757 4.93217e-16)
(6.94672 -1.13086 2.69137e-16)
(7.75382 -1.09039 -1.02091e-15)
(8.53487 -1.05319 3.68699e-16)
(9.29159 -1.01858 -4.09865e-16)
(10.0253 -0.986061 -1.05085e-15)
(10.7369 -0.955134 2.41005e-15)
(11.4272 -0.925585 1.65033e-16)
(12.0968 -0.897311 -1.53913e-16)
(12.7464 -0.870112 -4.97031e-16)
(13.3768 -0.843669 -1.5489e-16)
(13.9883 -0.81768 -1.03359e-15)
(14.5814 -0.792012 1.0034e-15)
(15.1561 -0.766653 -1.26392e-15)
(15.7128 -0.74167 2.40862e-15)
(16.2516 -0.717154 -1.1272e-15)
(16.773 -0.693198 3.27186e-16)
(17.2774 -0.669874 -4.07393e-16)
(17.7652 -0.647232 4.52392e-16)
(18.2369 -0.625304 4.15313e-16)
(18.693 -0.60411 -9.58362e-17)
(19.134 -0.583663 -8.46242e-16)
(19.5606 -0.563967 -1.19886e-16)
(19.9731 -0.545015 4.10463e-16)
(20.3721 -0.526795 1.5481e-16)
(20.758 -0.509293 -9.03192e-16)
(21.1315 -0.492491 7.53688e-16)
(21.493 -0.476368 2.05497e-16)
(21.8429 -0.460902 -3.13803e-16)
(22.1818 -0.446073 1.449e-16)
(22.5101 -0.431858 -2.29822e-16)
(22.8282 -0.418227 -2.26188e-16)
(23.1365 -0.405152 7.32836e-16)
(23.4354 -0.392602 -3.79731e-16)
(23.7253 -0.380549 1.36026e-16)
(24.0066 -0.368965 -7.96619e-16)
(24.2796 -0.357824 5.96757e-16)
(24.5446 -0.347106 2.39714e-16)
(24.8019 -0.336792 -5.27843e-16)
(25.0518 -0.326869 -3.32087e-16)
(25.2946 -0.317323 2.86785e-16)
(25.5306 -0.308141 1.8117e-16)
(25.76 -0.299311 1.15978e-18)
(25.9831 -0.290823 5.55693e-16)
(26.2001 -0.282664 -7.61264e-16)
(26.4113 -0.274823 5.17556e-16)
(26.6169 -0.267289 -3.94412e-16)
(26.8172 -0.260051 -1.95359e-16)
(27.0122 -0.253099 8.53327e-16)
(27.2023 -0.246421 -1.45384e-16)
(27.3877 -0.240005 -2.33745e-16)
(27.5684 -0.233839 2.06227e-16)
(27.7448 -0.227912 -2.80337e-16)
(27.917 -0.222213 -2.10517e-16)
(28.0851 -0.216734 1.97172e-16)
(28.2493 -0.211462 -1.04887e-16)
(28.4097 -0.206389 -2.34782e-16)
(28.5665 -0.201503 4.42002e-16)
(28.7199 -0.196796 -8.06175e-17)
(28.8699 -0.192259 -1.41981e-16)
(29.0166 -0.187882 -1.97516e-16)
(29.1602 -0.183658 2.69477e-17)
(29.3008 -0.179588 1.78708e-16)
(29.4384 -0.175674 1.51961e-16)
(29.5732 -0.171915 7.33062e-17)
(29.7054 -0.168304 -2.08265e-17)
(29.8349 -0.164835 -3.20489e-16)
(29.962 -0.161501 2.57687e-16)
(30.0867 -0.158292 1.85078e-16)
(30.2091 -0.155201 -1.6064e-16)
(30.3294 -0.152219 -2.33576e-16)
(30.4474 -0.149335 9.98672e-18)
(30.5635 -0.146544 7.90626e-17)
(30.6775 -0.143838 -3.90111e-17)
(30.7896 -0.141211 5.60898e-18)
(30.8999 -0.138661 -9.29499e-18)
(31.0083 -0.136188 9.7438e-18)
(31.115 -0.133791 -9.02518e-17)
(31.2199 -0.131474 2.07654e-16)
(31.3232 -0.129234 -9.22751e-17)
(31.4249 -0.127071 -7.20213e-17)
(31.5251 -0.124973 4.11364e-17)
(31.6237 -0.122931 2.2823e-17)
(31.7209 -0.12092 1.77982e-17)
(31.8166 -0.118919 -2.38364e-17)
(31.9108 -0.116881 1.36731e-17)
(32.0035 -0.114763 -8.57738e-17)
(32.0945 -0.112486 3.66754e-17)
(32.1836 -0.10997 -1.23445e-17)
(32.2714 -0.106976 2.4682e-18)
(32.3762 -0.102408 -1.91845e-17)
(2.79187 -3.24206 -4.96141e-15)
(3.58689 -2.95647 1.05794e-15)
(4.46523 -2.73674 2.01534e-15)
(5.33606 -2.55313 1.97615e-15)
(6.18147 -2.39142 -1.45201e-15)
(7.00212 -2.25616 -4.12953e-15)
(7.80222 -2.14169 4.27487e-15)
(8.58357 -2.04214 7.23374e-16)
(9.34666 -1.95554 -1.28933e-15)
(10.09 -1.87932 -6.47505e-16)
(10.8126 -1.81073 7.61942e-16)
(11.5148 -1.74785 3.19388e-15)
(12.1969 -1.68948 -1.2212e-15)
(12.8599 -1.63489 -2.53745e-15)
(13.5041 -1.58326 3.43666e-15)
(14.1297 -1.53369 -1.51902e-15)
(14.7375 -1.48606 -1.18765e-15)
(15.3278 -1.44045 4.0041e-16)
(15.901 -1.39663 -6.08132e-16)
(16.457 -1.35406 1.40806e-15)
(16.9961 -1.31218 -2.02124e-15)
(17.5182 -1.27083 1.97295e-16)
(18.0236 -1.22999 -7.48042e-16)
(18.5126 -1.18978 1.65323e-15)
(18.9854 -1.15035 -3.92256e-16)
(19.4427 -1.11184 1.18434e-15)
(19.8848 -1.07438 -4.37568e-16)
(20.3121 -1.03802 -1.11888e-15)
(20.7253 -1.00281 -5.47265e-16)
(21.1247 -0.968745 -8.44844e-17)
(21.5109 -0.935842 5.66241e-16)
(21.8842 -0.904141 7.9235e-16)
(22.2452 -0.873639 -1.36753e-15)
(22.5944 -0.844322 9.81071e-16)
(22.9322 -0.816168 3.8168e-16)
(23.259 -0.78915 -7.5094e-16)
(23.5754 -0.763232 1.5606e-15)
(23.8816 -0.738375 -1.36064e-15)
(24.1782 -0.714549 2.5167e-16)
(24.4655 -0.691718 -5.04515e-16)
(24.7439 -0.669832 2.37703e-16)
(25.0137 -0.648837 -2.2781e-16)
(25.2753 -0.628689 3.58133e-16)
(25.5289 -0.609344 1.61451e-16)
(25.775 -0.590757 -2.96751e-16)
(26.0137 -0.572887 8.93553e-16)
(26.2454 -0.555702 -5.57159e-16)
(26.4704 -0.539175 -5.53464e-16)
(26.6888 -0.523281 8.41962e-16)
(26.9011 -0.507998 -9.10468e-16)
(27.1073 -0.493306 -1.4925e-17)
(27.3078 -0.479185 1.57008e-15)
(27.5028 -0.465617 -2.05056e-15)
(27.6925 -0.452582 1.67935e-15)
(27.8771 -0.440064 -1.12977e-15)
(28.0569 -0.42804 1.54092e-16)
(28.2319 -0.416494 7.15292e-16)
(28.4026 -0.405408 -3.76829e-16)
(28.5689 -0.394765 -1.78267e-16)
(28.7311 -0.384547 2.55529e-16)
(28.8894 -0.374733 -8.35076e-18)
(29.0439 -0.365302 -2.10242e-16)
(29.1947 -0.356238 -2.42695e-16)
(29.342 -0.347524 3.02386e-17)
(29.486 -0.339143 2.92038e-16)
(29.6268 -0.331078 -1.46421e-16)
(29.7644 -0.323314 3.8486e-16)
(29.899 -0.315836 -1.9266e-16)
(30.0308 -0.30863 -2.23197e-17)
(30.1597 -0.301673 -4.65669e-16)
(30.286 -0.294949 4.32818e-16)
(30.4096 -0.288467 2.24439e-16)
(30.5307 -0.282237 5.62461e-17)
(30.6494 -0.276255 -2.9815e-16)
(30.7658 -0.270511 2.34196e-16)
(30.8801 -0.264993 -8.65971e-17)
(30.9922 -0.259689 -1.99182e-17)
(31.1023 -0.254584 -3.19264e-16)
(31.2104 -0.249666 2.5065e-16)
(31.3166 -0.244921 7.21906e-17)
(31.421 -0.240336 -2.3539e-16)
(31.5237 -0.2359 8.31507e-17)
(31.6246 -0.2316 8.13958e-17)
(31.7239 -0.227428 -1.75067e-16)
(31.8216 -0.223379 -3.40874e-18)
(31.9177 -0.219451 3.19524e-16)
(32.0122 -0.215646 6.61786e-17)
(32.1053 -0.211971 -6.57296e-17)
(32.197 -0.208422 -1.72414e-16)
(32.2873 -0.204997 -2.37877e-17)
(32.3764 -0.201678 -6.86923e-17)
(32.4641 -0.198449 3.32756e-17)
(32.5506 -0.195268 1.25653e-16)
(32.6359 -0.192103 -5.03491e-17)
(32.7199 -0.18888 4.30853e-17)
(32.8026 -0.185529 -7.08856e-17)
(32.8839 -0.181919 7.25024e-17)
(32.9636 -0.177895 -2.96038e-17)
(33.0424 -0.173004 -1.31696e-17)
(33.1364 -0.167187 1.4561e-17)
(10.8273 -3.88583 1.82283e-15)
(11.1018 -3.56787 -4.71029e-16)
(11.515 -3.36658 3.80992e-15)
(12.0378 -3.1986 -3.15914e-15)
(12.6001 -3.03641 2.59995e-15)
(13.1762 -2.89165 1.13679e-15)
(13.76 -2.76661 2.54697e-16)
(14.3462 -2.65584 3.78656e-16)
(14.9307 -2.55585 -8.42912e-16)
(15.509 -2.46488 -9.64882e-16)
(16.078 -2.38089 -2.56841e-15)
(16.6363 -2.30253 3.29823e-15)
(17.1827 -2.22882 -3.37429e-15)
(17.717 -2.15923 2.30541e-15)
(18.2383 -2.09301 -1.06258e-15)
(18.7458 -2.02906 -2.81248e-16)
(19.2411 -1.9673 1.18442e-15)
(19.7235 -1.90752 -2.57768e-16)
(20.1927 -1.84936 -4.54195e-16)
(20.6473 -1.79232 -8.6037e-16)
(21.0874 -1.73612 2.3627e-15)
(21.513 -1.68072 -5.6483e-16)
(21.9244 -1.62615 1.51597e-16)
(22.3221 -1.57256 1.50325e-15)
(22.7064 -1.52014 -3.99683e-15)
(23.0779 -1.46906 2.85374e-15)
(23.437 -1.41944 -3.14794e-15)
(23.7841 -1.37135 4.35688e-15)
(24.1197 -1.32482 -2.44386e-15)
(24.4442 -1.27986 1.59931e-15)
(24.758 -1.23648 1.24071e-15)
(25.0615 -1.19467 -3.42229e-15)
(25.3551 -1.15444 8.66597e-16)
(25.6391 -1.11575 -5.72035e-16)
(25.914 -1.07859 1.11964e-15)
(26.18 -1.04292 -1.2929e-16)
(26.4376 -1.00869 -2.28505e-15)
(26.6869 -0.975864 2.00331e-15)
(26.9284 -0.944395 -2.68471e-16)
(27.1623 -0.914226 3.03807e-16)
(27.389 -0.885294 4.49097e-16)
(27.6085 -0.857525 3.86644e-16)
(27.8213 -0.830866 4.17633e-17)
(28.0276 -0.805265 -9.25773e-16)
(28.2276 -0.780663 2.6078e-17)
(28.4215 -0.757009 -1.27444e-16)
(28.6096 -0.734265 -3.92508e-16)
(28.7921 -0.7124 1.72213e-15)
(28.9693 -0.691384 -7.19951e-16)
(29.1414 -0.67119 2.58228e-16)
(29.3085 -0.65179 3.47093e-16)
(29.471 -0.633158 -5.25431e-16)
(29.629 -0.615268 -6.01486e-16)
(29.7827 -0.598091 1.268e-15)
(29.9323 -0.581599 -1.19945e-15)
(30.078 -0.565769 -1.16827e-16)
(30.2199 -0.550578 1.25265e-15)
(30.3582 -0.536002 -8.23781e-16)
(30.493 -0.522015 2.82519e-16)
(30.6246 -0.508588 1.57366e-16)
(30.7529 -0.495695 -6.12168e-16)
(30.8783 -0.483312 7.90026e-16)
(31.0007 -0.471417 -2.68514e-16)
(31.1203 -0.459985 -7.50532e-16)
(31.2372 -0.448995 4.22602e-16)
(31.3515 -0.438421 -5.58595e-17)
(31.4633 -0.428239 9.0836e-16)
(31.5727 -0.418429 -1.55412e-15)
(31.6798 -0.408982 1.39446e-15)
(31.7847 -0.399858 -6.53543e-17)
(31.8874 -0.391032 -5.52711e-16)
(31.988 -0.382534 7.38554e-16)
(32.0867 -0.374384 -4.92264e-16)
(32.1836 -0.36657 2.4125e-16)
(32.2786 -0.359073 -4.12732e-16)
(32.372 -0.351872 -6.34088e-17)
(32.4637 -0.344946 2.30686e-16)
(32.5539 -0.338278 -8.60154e-17)
(32.6426 -0.331848 -2.88535e-16)
(32.7298 -0.32564 2.78338e-16)
(32.8155 -0.319638 4.0694e-16)
(32.8999 -0.313826 -7.03134e-17)
(32.9829 -0.308191 2.38142e-16)
(33.0646 -0.302724 -2.91422e-16)
(33.145 -0.297417 -2.09998e-16)
(33.2242 -0.29227 -7.71966e-17)
(33.3022 -0.287289 1.77735e-17)
(33.3791 -0.282487 1.18383e-16)
(33.4549 -0.27786 2.14138e-16)
(33.5296 -0.273401 -4.37019e-16)
(33.6034 -0.269084 3.27421e-16)
(33.6762 -0.264889 -1.71083e-16)
(33.748 -0.260759 3.54007e-17)
(33.8189 -0.256649 1.40996e-16)
(33.8889 -0.252467 -1.27159e-17)
(33.9579 -0.248122 -1.17079e-16)
(34.0259 -0.243446 9.07875e-17)
(34.0927 -0.23824 -3.74355e-17)
(34.1589 -0.231926 -2.58601e-18)
(34.2381 -0.224799 -1.36514e-17)
(20.0077 -4.06585 -6.48816e-15)
(19.9092 -3.80567 -2.69804e-15)
(19.9114 -3.67556 3.80858e-15)
(20.0914 -3.56078 -9.99117e-16)
(20.3553 -3.43344 -1.10626e-15)
(20.6547 -3.308 2.74827e-15)
(20.9793 -3.19293 -2.7993e-15)
(21.325 -3.08699 -1.20551e-15)
(21.6868 -2.98801 1.17436e-15)
(22.058 -2.89517 1.22855e-15)
(22.4339 -2.80692 -2.53691e-15)
(22.8112 -2.7226 3.87129e-15)
(23.1877 -2.64184 -2.85122e-15)
(23.5617 -2.56417 3.93029e-15)
(23.9307 -2.49011 -2.98214e-15)
(24.2949 -2.41787 -2.01654e-15)
(24.6516 -2.34585 1.04298e-15)
(24.9994 -2.27469 2.63282e-15)
(25.3372 -2.20499 1.04581e-15)
(25.6644 -2.13679 -2.37262e-15)
(25.9815 -2.06959 2.15128e-15)
(26.2886 -2.00339 6.8089e-17)
(26.586 -1.93822 -1.53474e-16)
(26.874 -1.87431 -1.56182e-15)
(27.1528 -1.81188 1.41911e-15)
(27.4228 -1.75113 -3.269e-16)
(27.6843 -1.69216 -3.30652e-15)
(27.9374 -1.63504 2.03145e-15)
(28.1826 -1.57976 3.83397e-16)
(28.42 -1.5263 9.42907e-16)
(28.65 -1.47472 -3.53999e-15)
(28.8727 -1.42502 2.35924e-16)
(29.0884 -1.37718 3.10021e-15)
(29.2972 -1.33119 -1.67731e-16)
(29.4995 -1.28702 -2.45238e-15)
(29.6955 -1.24462 -6.93465e-16)
(29.8852 -1.20393 3.46288e-15)
(30.069 -1.16487 -9.26713e-16)
(30.247 -1.12739 -9.73177e-16)
(30.4194 -1.09142 9.12161e-16)
(30.5862 -1.05687 7.86455e-16)
(30.7478 -1.02369 1.26984e-15)
(30.9041 -0.991806 -3.51021e-15)
(31.0555 -0.961189 2.28467e-15)
(31.2021 -0.931762 2.94081e-16)
(31.3442 -0.903471 -1.77746e-15)
(31.4819 -0.876281 6.16295e-17)
(31.6154 -0.850158 -3.61126e-16)
(31.7449 -0.825067 1.31565e-15)
(31.8706 -0.800974 8.34656e-16)
(31.9927 -0.777845 -4.90361e-16)
(32.1114 -0.755648 -6.76836e-16)
(32.2268 -0.734348 -3.22883e-17)
(32.3391 -0.713909 3.02689e-16)
(32.4484 -0.694295 -2.44039e-16)
(32.5548 -0.675472 9.51464e-17)
(32.6584 -0.657412 -6.06875e-16)
(32.7594 -0.640089 1.25591e-15)
(32.8579 -0.623478 -1.04137e-15)
(32.9539 -0.607544 1.26567e-15)
(33.0476 -0.592244 -1.81238e-15)
(33.1391 -0.577545 2.76273e-16)
(33.2285 -0.563424 6.22088e-16)
(33.3158 -0.549851 -1.10557e-16)
(33.4011 -0.53681 4.89103e-16)
(33.4845 -0.524267 -1.27418e-15)
(33.5662 -0.512196 7.8677e-16)
(33.646 -0.50058 -5.60812e-16)
(33.7243 -0.489405 -2.58817e-16)
(33.801 -0.478612 1.68275e-15)
(33.8762 -0.468165 -1.38182e-15)
(33.9499 -0.458139 6.46196e-16)
(34.0224 -0.448556 -2.97266e-16)
(34.0937 -0.439379 7.77646e-18)
(34.1638 -0.430575 6.91341e-16)
(34.2327 -0.422112 -4.71856e-16)
(34.3006 -0.413962 -2.17143e-16)
(34.3674 -0.406106 1.89671e-16)
(34.4331 -0.398523 3.96715e-16)
(34.4979 -0.391195 -3.48312e-16)
(34.5616 -0.384104 -3.32194e-16)
(34.6243 -0.377237 7.24629e-16)
(34.6861 -0.370578 -5.04205e-16)
(34.747 -0.364119 9.579e-17)
(34.8071 -0.357849 -2.17879e-16)
(34.8663 -0.351772 1.8753e-16)
(34.9247 -0.345899 2.24957e-16)
(34.9823 -0.340257 -8.33208e-17)
(35.0393 -0.334833 1.31833e-16)
(35.0956 -0.329618 3.00215e-16)
(35.1512 -0.324575 -3.16508e-16)
(35.2063 -0.319682 4.09693e-16)
(35.2607 -0.314868 -3.32125e-16)
(35.3146 -0.310082 1.73435e-16)
(35.3679 -0.305217 1.15624e-16)
(35.4206 -0.300175 -3.6761e-17)
(35.4726 -0.29476 4.4584e-17)
(35.524 -0.288761 -6.65851e-17)
(35.5752 -0.281498 7.93069e-17)
(35.6367 -0.273365 3.8049e-17)
(29.2333 -3.95533 7.16917e-16)
(28.9965 -3.80124 -2.4049e-15)
(28.7778 -3.75028 -7.18461e-16)
(28.7297 -3.69014 7.20171e-15)
(28.7708 -3.60736 2.63644e-18)
(28.8445 -3.51621 -3.40847e-15)
(28.9432 -3.42487 1.81949e-15)
(29.0681 -3.33424 -2.10892e-15)
(29.216 -3.2448 5.22667e-16)
(29.3802 -3.15739 3.85398e-15)
(29.5561 -3.07203 -7.50775e-16)
(29.741 -2.98886 -9.19558e-15)
(29.9329 -2.90784 2.8427e-15)
(30.1286 -2.82872 6.4219e-15)
(30.3261 -2.75065 -1.12739e-16)
(30.5235 -2.67404 -3.32146e-15)
(30.7175 -2.59854 -2.39401e-15)
(30.9075 -2.52279 -4.11872e-16)
(31.093 -2.44725 1.34619e-15)
(31.2748 -2.37252 2.72611e-16)
(31.4529 -2.29887 2.24719e-15)
(31.627 -2.22634 -2.66326e-16)
(31.7971 -2.15503 -2.7545e-15)
(31.9633 -2.08519 6.96282e-16)
(32.1256 -2.01697 -6.50233e-16)
(32.2839 -1.9505 3.47038e-16)
(32.4382 -1.88591 -2.91429e-16)
(32.5885 -1.82322 -7.59722e-16)
(32.7347 -1.76248 2.48225e-15)
(32.8768 -1.70361 -2.08523e-15)
(33.0148 -1.64668 1.83598e-15)
(33.1488 -1.59179 2.94395e-16)
(33.279 -1.53885 1.08301e-15)
(33.4053 -1.48786 -1.47288e-15)
(33.5279 -1.43877 -5.32482e-16)
(33.6467 -1.39154 -1.10883e-15)
(33.7619 -1.34613 2.0584e-15)
(33.8735 -1.30244 -1.81566e-15)
(33.9814 -1.26038 -7.42933e-16)
(34.0857 -1.2199 1.70732e-15)
(34.1865 -1.18097 4.98101e-16)
(34.2839 -1.14354 4.18109e-16)
(34.378 -1.1076 -1.61054e-16)
(34.4691 -1.07309 -1.32325e-16)
(34.5572 -1.03997 -9.46625e-16)
(34.6426 -1.00818 -2.07469e-15)
(34.7253 -0.97769 3.89056e-15)
(34.8056 -0.948444 -2.64994e-15)
(34.8835 -0.920397 -1.16963e-15)
(34.9591 -0.893504 1.96621e-15)
(35.0326 -0.867716 -1.28687e-15)
(35.1041 -0.842992 1.54931e-15)
(35.1736 -0.819287 -1.40645e-16)
(35.2412 -0.796552 4.89785e-17)
(35.307 -0.774742 -1.32472e-15)
(35.3711 -0.75381 3.0285e-16)
(35.4334 -0.733726 -6.31765e-16)
(35.4942 -0.714468 4.1426e-16)
(35.5534 -0.696004 2.56322e-16)
(35.6112 -0.678297 -3.98667e-16)
(35.6674 -0.661298 6.47569e-16)
(35.7224 -0.644968 -1.17974e-16)
(35.776 -0.629274 8.84506e-16)
(35.8283 -0.614181 2.7736e-16)
(35.8794 -0.599677 7.37399e-18)
(35.9293 -0.585734 -2.75838e-17)
(35.9782 -0.572337 -8.39665e-16)
(36.0261 -0.559461 1.87023e-16)
(36.0732 -0.5471 -8.53842e-17)
(36.1192 -0.535213 -3.69214e-16)
(36.1646 -0.523788 -2.77484e-16)
(36.2095 -0.512855 4.74156e-16)
(36.2538 -0.502382 -7.49322e-16)
(36.2975 -0.492333 -1.50209e-16)
(36.3406 -0.48267 8.15874e-16)
(36.3831 -0.47336 -6.44811e-17)
(36.4249 -0.464378 -5.75134e-16)
(36.4661 -0.455711 -5.68843e-16)
(36.5067 -0.447343 1.41739e-15)
(36.5468 -0.439252 -4.39182e-16)
(36.5863 -0.431426 -8.33326e-18)
(36.6253 -0.423851 -8.38681e-17)
(36.6639 -0.416515 -2.27255e-16)
(36.7019 -0.40941 3.25351e-16)
(36.7396 -0.402531 -4.00632e-16)
(36.7769 -0.395882 4.01329e-16)
(36.8138 -0.389481 -5.49759e-17)
(36.8505 -0.383357 3.28198e-16)
(36.8869 -0.377474 -5.89858e-16)
(36.9231 -0.371818 3.60836e-18)
(36.959 -0.366349 3.59571e-17)
(36.9947 -0.361046 -5.16349e-17)
(37.0302 -0.355834 -8.80895e-17)
(37.0654 -0.350658 -1.65508e-16)
(37.1004 -0.34541 1.93893e-16)
(37.1352 -0.339995 -2.03401e-17)
(37.1699 -0.334199 5.7603e-17)
(37.2044 -0.327812 -1.19582e-16)
(37.2391 -0.320071 -4.90508e-17)
(37.2814 -0.311414 4.2552e-18)
(36.9869 -3.71767 -1.06215e-15)
(36.6781 -3.69079 2.93413e-16)
(36.3431 -3.70986 -4.66478e-15)
(36.1648 -3.68805 2.23826e-15)
(36.0823 -3.63881 3.91663e-15)
(36.0384 -3.57844 2.14299e-15)
(36.0203 -3.51204 -5.36971e-16)
(36.0282 -3.44088 -8.48466e-15)
(36.0587 -3.36632 1.89403e-16)
(36.1069 -3.29018 5.52668e-15)
(36.1688 -3.21258 -2.78973e-16)
(36.2403 -3.13379 -1.62015e-16)
(36.3178 -3.05455 4.35525e-15)
(36.3986 -2.97539 -9.12783e-16)
(36.481 -2.89651 -5.21789e-16)
(36.5627 -2.81744 -6.9529e-16)
(36.6443 -2.73804 -1.62951e-15)
(36.7248 -2.65852 -2.33077e-15)
(36.8041 -2.57919 -9.90074e-16)
(36.8816 -2.5006 6.21622e-15)
(36.9572 -2.42334 7.65657e-16)
(37.0305 -2.34743 -4.6208e-15)
(37.1019 -2.27285 -1.46921e-15)
(37.1713 -2.19977 -3.57216e-15)
(37.2387 -2.12838 6.18514e-15)
(37.3041 -2.05881 -2.53466e-15)
(37.3673 -1.99117 2.29925e-15)
(37.4284 -1.92552 1.34115e-15)
(37.4873 -1.8619 -3.11698e-15)
(37.544 -1.80031 1.23697e-15)
(37.5985 -1.74074 1.85443e-16)
(37.6509 -1.68321 -1.18368e-15)
(37.7012 -1.6277 2.66821e-15)
(37.7495 -1.57424 -3.11794e-15)
(37.7958 -1.52278 5.13996e-16)
(37.8401 -1.47328 7.23964e-16)
(37.8825 -1.42563 -1.17947e-16)
(37.9229 -1.37977 7.81989e-16)
(37.9617 -1.33571 -1.07189e-15)
(37.9988 -1.29334 1.15286e-15)
(38.0344 -1.25259 -1.5225e-15)
(38.0688 -1.21333 1.65198e-15)
(38.1018 -1.17555 -1.47519e-15)
(38.1335 -1.13928 7.89832e-16)
(38.1641 -1.10438 1.154e-15)
(38.1936 -1.07081 5.40359e-16)
(38.222 -1.03855 -1.16242e-15)
(38.2494 -1.00757 1.33499e-15)
(38.2758 -0.977819 -2.43421e-15)
(38.3012 -0.949259 1.48522e-15)
(38.3257 -0.921841 -4.30433e-16)
(38.3494 -0.895526 2.3415e-16)
(38.3722 -0.870275 -1.29999e-15)
(38.3942 -0.846038 2.71722e-15)
(38.4155 -0.822771 -1.36047e-15)
(38.436 -0.800428 -2.17451e-15)
(38.4558 -0.778972 1.63548e-15)
(38.4748 -0.758377 -5.19483e-17)
(38.4932 -0.738618 -1.15028e-15)
(38.511 -0.719671 -1.10895e-15)
(38.5282 -0.701494 3.05001e-15)
(38.5448 -0.684049 -1.9575e-15)
(38.561 -0.667357 1.95294e-15)
(38.5769 -0.651332 -9.84046e-16)
(38.5924 -0.635987 9.5839e-17)
(38.6076 -0.621283 4.37619e-16)
(38.6227 -0.607168 -1.15083e-15)
(38.6375 -0.593646 -1.41599e-16)
(38.6523 -0.580806 8.72982e-16)
(38.667 -0.568521 -6.1371e-16)
(38.6817 -0.556523 5.14622e-16)
(38.6964 -0.545038 5.63757e-17)
(38.711 -0.534124 -6.8524e-16)
(38.7255 -0.52366 -7.78031e-17)
(38.7399 -0.513588 1.34766e-15)
(38.7542 -0.50388 -4.99255e-16)
(38.7683 -0.494521 -3.42578e-16)
(38.7824 -0.485488 4.8835e-16)
(38.7964 -0.476764 -2.43721e-16)
(38.8104 -0.468329 3.89032e-16)
(38.8243 -0.460178 4.02708e-16)
(38.8383 -0.452302 -1.09153e-15)
(38.8523 -0.444693 9.81562e-17)
(38.8664 -0.437347 4.32152e-16)
(38.8806 -0.430246 -6.98747e-16)
(38.895 -0.423395 8.80955e-16)
(38.9096 -0.416795 -3.19527e-16)
(38.9244 -0.410462 -4.62083e-16)
(38.9393 -0.404362 7.608e-17)
(38.9544 -0.398512 5.23072e-17)
(38.9696 -0.392868 1.04234e-16)
(38.9849 -0.387418 -1.26308e-16)
(39.0005 -0.382097 8.60078e-17)
(39.0162 -0.376835 4.14442e-18)
(39.0322 -0.371525 5.73062e-17)
(39.0484 -0.366092 -2.02588e-17)
(39.065 -0.360326 3.53235e-17)
(39.0821 -0.354027 -2.65738e-17)
(39.0998 -0.346423 -4.69803e-17)
(39.1224 -0.337876 -4.02656e-17)
(42.7538 -3.37912 1.77389e-15)
(42.3743 -3.46971 -2.67122e-15)
(41.9446 -3.5572 4.40057e-15)
(41.6498 -3.57809 -3.04177e-15)
(41.4579 -3.566 -4.91095e-15)
(41.3195 -3.54135 4.21169e-15)
(41.2159 -3.50685 1.82263e-15)
(41.1436 -3.46218 5.3599e-17)
(41.0991 -3.40858 -7.57442e-17)
(41.0785 -3.34849 2.8492e-15)
(41.0773 -3.28371 -2.91222e-15)
(41.0904 -3.21507 -1.93747e-15)
(41.1145 -3.14318 -4.44e-15)
(41.1472 -3.06869 3.43471e-15)
(41.186 -2.99212 -5.44172e-16)
(41.2295 -2.91391 -1.33627e-15)
(41.276 -2.83462 5.46627e-16)
(41.3244 -2.75466 6.81045e-15)
(41.3739 -2.67456 -6.24488e-15)
(41.4235 -2.59453 -1.13805e-15)
(41.4725 -2.51511 2.17303e-15)
(41.5206 -2.43665 6.39226e-16)