/*--------------------------------*- C++ -*----------------------------------*\
  =========                 |
  \\      /  F ield         | OpenFOAM: The Open Source CFD Toolbox
   \\    /   O peration     | Website:  https://openfoam.org
    \\  /    A nd           | Version:  8
     \\/     M anipulation  |
\*---------------------------------------------------------------------------*/
FoamFile
{
    version     2.0;
    format      ascii;
    class       volScalarField;
    location    "1";
    object      N;
}
// * * * * * * * * * * * * * * * * * * * * * * * * * * * * * * * * * * * * * //

dimensions      [0 -3 0 0 0 0 0];

internalField   nonuniform List<scalar> 
800
(
1924517.1
1920745.1
1922695.5
1922521.2
1922652.6
1922622.9
1922643.4
1922636.3
1922638.7
1922638.9
1922638.9
1922638.7
1922636.3
1922643.4
1922622.9
1922652.6
1922521.2
1922695.5
1920745.1
1924517.1
2520.1729
1620.4076
2063.3503
2008.6344
2042.4811
2030.4633
2038.4168
2036.7752
2039.9456
2038.8889
2038.8889
2039.9456
2036.7752
2038.4168
2030.4633
2042.4811
2008.6344
2063.3503
1620.4076
2520.1729
2.1299859
1.28698
1.6946658
1.6209684
1.6648875
1.648799
1.6593623
1.6573394
1.6616419
1.6606332
1.6606332
1.6616419
1.6573394
1.6593623
1.648799
1.6648876
1.6209684
1.6946659
1.28698
2.1299859
0.10157104
0.10086965
0.10120259
0.10112956
0.10117459
0.10115763
0.10116884
0.1011664
0.10117113
0.10117029
0.10117029
0.10117113
0.1011664
0.10116884
0.10115763
0.10117459
0.10112956
0.10120259
0.10086965
0.10157104
0.099998675
0.099998578
0.099998744
0.099998604
0.099998634
0.099998588
0.099998605
0.099998619
0.099998625
0.099998619
0.099998619
0.099998625
0.099998619
0.099998605
0.099998588
0.099998634
0.099998604
0.099998744
0.099998578
0.099998675
0.099946917
0.099946953
0.099946848
0.099947023
0.099946926
0.099946967
0.099946917
0.099946921
0.099946901
0.099946881
0.099946881
0.099946901
0.099946921
0.099946917
0.099946967
0.099946926
0.099947023
0.099946848
0.099946953
0.099946917
0.10001813
0.10001818
0.1000182
0.10001814
0.10001816
0.10001817
0.10001815
0.10001816
0.10001814
0.10001815
0.10001815
0.10001814
0.10001816
0.10001815
0.10001817
0.10001816
0.10001814
0.1000182
0.10001818
0.10001813
0.09991844
0.099918546
0.099918546
0.099918563
0.099918548
0.099918538
0.099918518
0.099918479
0.099918473
0.099918459
0.099918459
0.099918473
0.099918479
0.099918518
0.099918538
0.099918548
0.099918563
0.099918546
0.099918546
0.09991844
0.10010624
0.10010634
0.10010632
0.10010633
0.10010635
0.10010636
0.10010638
0.1001064
0.10010641
0.10010642
0.10010642
0.10010641
0.1001064
0.10010638
0.10010636
0.10010635
0.10010633
0.10010632
0.10010634
0.10010624
0.099849409
0.0998495
0.099849559
0.099849474
0.09984952
0.099849471
0.099849514
0.099849505
0.099849534
0.099849537
0.099849537
0.099849534
0.099849505
0.099849514
0.099849471
0.09984952
0.099849474
0.099849559
0.0998495
0.099849409
1911912.3
1906753.9
1909366.1
1909135.2
1909304.4
1909261.1
1909290.9
1909281
1909286.5
1909285.2
1909285.2
1909286.5
1909281
1909290.9
1909261.1
1909304.4
1909135.2
1909366.1
1906753.9
1911912.3
279.48084
75.218378
141.23127
129.89278
136.40954
133.76397
135.55307
135.77593
136.84855
136.86783
136.86783
136.84855
135.77594
135.55307
133.76397
136.40955
129.89279
141.23128
75.21838
279.48082
0.37353947
0.17665541
0.25272276
0.23833115
0.24674701
0.24342847
0.24566431
0.2458711
0.247224
0.24729856
0.24729856
0.247224
0.24587111
0.24566432
0.24342847
0.24674701
0.23833116
0.25272277
0.17665541
0.37353945
0.1002284
0.10005299
0.10012471
0.10010991
0.10011884
0.10011537
0.10011772
0.10011785
0.10011929
0.10011939
0.10011939
0.10011929
0.10011785
0.10011772
0.10011537
0.10011884
0.10010991
0.10012471
0.10005299
0.1002284
0.099997916
0.099998224
0.099998184
0.09999809
0.09999809
0.099998055
0.099998065
0.099998081
0.099998083
0.099998078
0.099998078
0.099998083
0.099998081
0.099998065
0.099998055
0.09999809
0.09999809
0.099998184
0.099998224
0.099997916
0.099947191
0.099947243
0.099947126
0.099947302
0.099947203
0.099947245
0.099947195
0.099947199
0.099947178
0.099947158
0.099947158
0.099947178
0.099947199
0.099947195
0.099947245
0.099947203
0.099947302
0.099947126
0.099947243
0.099947191
0.10001827
0.10001831
0.10001834
0.10001827
0.10001829
0.1000183
0.10001828
0.10001829
0.10001828
0.10001829
0.10001829
0.10001828
0.10001829
0.10001828
0.1000183
0.10001829
0.10001827
0.10001834
0.10001831
0.10001827
0.099918801
0.099918925
0.099918906
0.099918932
0.099918915
0.099918905
0.099918884
0.099918845
0.099918838
0.099918824
0.099918824
0.099918838
0.099918845
0.099918884
0.099918905
0.099918915
0.099918932
0.099918906
0.099918925
0.099918801
0.10010666
0.10010676
0.10010676
0.10010676
0.10010678
0.10010679
0.10010681
0.10010683
0.10010684
0.10010685
0.10010685
0.10010684
0.10010683
0.10010681
0.10010679
0.10010678
0.10010676
0.10010676
0.10010676
0.10010666
0.099850071
0.099850173
0.099850231
0.099850147
0.099850193
0.099850143
0.099850186
0.099850177
0.099850206
0.099850209
0.099850209
0.099850206
0.099850177
0.099850186
0.099850143
0.099850193
0.099850147
0.099850231
0.099850173
0.099850071
1911912.3
1906753.9
1909366.1
1909135.2
1909304.4
1909261.1
1909290.9
1909281
1909286.5
1909285.2
1909285.2
1909286.5
1909281
1909290.9
1909261.1
1909304.4
1909135.2
1909366.1
1906753.9
1911912.3
279.48081
75.218356
141.23124
129.89275
136.40951
133.76394
135.55304
135.77591
136.84852
136.86781
136.86781
136.84852
135.77591
135.55305
133.76395
136.40952
129.89276
141.23125
75.218361
279.48081
0.37353943
0.17665538
0.25272273
0.23833112
0.24674698
0.24342844
0.24566428
0.24587107
0.24722397
0.24729852
0.24729853
0.24722397
0.24587108
0.24566429
0.24342844
0.24674698
0.23833113
0.25272274
0.17665539
0.37353944
0.1002284
0.10005299
0.10012471
0.10010991
0.10011884
0.10011537
0.10011772
0.10011785
0.10011929
0.10011939
0.10011939
0.10011929
0.10011785
0.10011772
0.10011537
0.10011884
0.10010991
0.10012471
0.10005299
0.1002284
0.099997916
0.099998224
0.099998184
0.09999809
0.09999809
0.099998055
0.099998065
0.099998081
0.099998083
0.099998078
0.099998078
0.099998083
0.099998081
0.099998065
0.099998055
0.09999809
0.09999809
0.099998184
0.099998224
0.099997916
0.099947191
0.099947243
0.099947126
0.099947302
0.099947203
0.099947245
0.099947195
0.099947199
0.099947178
0.099947158
0.099947158
0.099947178
0.099947199
0.099947195
0.099947245
0.099947203
0.099947302
0.099947126
0.099947243
0.099947191
0.10001827
0.10001831
0.10001834
0.10001827
0.10001829
0.1000183
0.10001828
0.10001829
0.10001828
0.10001829
0.10001829
0.10001828
0.10001829
0.10001828
0.1000183
0.10001829
0.10001827
0.10001834
0.10001831
0.10001827
0.099918801
0.099918925
0.099918906
0.099918932
0.099918915
0.099918905
0.099918884
0.099918845
0.099918838
0.099918824
0.099918824
0.099918838
0.099918845
0.099918884
0.099918905
0.099918915
0.099918932
0.099918906
0.099918925
0.099918801
0.10010666
0.10010676
0.10010676
0.10010676
0.10010678
0.10010679
0.10010681
0.10010683
0.10010684
0.10010685
0.10010685
0.10010684
0.10010683
0.10010681
0.10010679
0.10010678
0.10010676
0.10010676
0.10010676
0.10010666
0.099850071
0.099850173
0.099850231
0.099850147
0.099850193
0.099850143
0.099850186
0.099850177
0.099850206
0.099850209
0.099850209
0.099850206
0.099850177
0.099850186
0.099850143
0.099850193
0.099850147
0.099850231
0.099850173
0.099850071
1924517.1
1920745.1
1922695.5
1922521.2
1922652.6
1922622.9
1922643.4
1922636.3
1922638.7
1922638.9
1922638.9
1922638.7
1922636.3
1922643.4
1922622.9
1922652.6
1922521.2
1922695.5
1920745.1
1924517.1
2520.1728
1620.4075
2063.3502
2008.6343
2042.481
2030.4632
2038.4167
2036.7751
2039.9455
2038.8888
2038.8888
2039.9455
2036.7751
2038.4167
2030.4632
2042.481
2008.6343
2063.3502
1620.4075
2520.1729
2.1299858
1.2869799
1.6946658
1.6209683
1.6648874
1.6487989
1.6593622
1.6573393
1.6616418
1.6606331
1.6606331
1.6616418
1.6573393
1.6593622
1.6487989
1.6648875
1.6209683
1.6946658
1.2869799
2.1299858
0.10157104
0.10086965
0.10120259
0.10112956
0.10117459
0.10115763
0.10116884
0.1011664
0.10117113
0.10117029
0.10117029
0.10117113
0.1011664
0.10116884
0.10115763
0.10117459
0.10112956
0.10120259
0.10086965
0.10157104
0.099998675
0.099998578
0.099998744
0.099998604
0.099998634
0.099998588
0.099998605
0.099998619
0.099998625
0.099998619
0.099998619
0.099998625
0.099998619
0.099998605
0.099998588
0.099998634
0.099998604
0.099998744
0.099998578
0.099998675
0.099946917
0.099946953
0.099946848
0.099947023
0.099946926
0.099946967
0.099946917
0.099946921
0.099946901
0.099946881
0.099946881
0.099946901
0.099946921
0.099946917
0.099946967
0.099946926
0.099947023
0.099946848
0.099946953
0.099946917
0.10001813
0.10001818
0.1000182
0.10001814
0.10001816
0.10001817
0.10001815
0.10001816
0.10001814
0.10001815
0.10001815
0.10001814
0.10001816
0.10001815
0.10001817
0.10001816
0.10001814
0.1000182
0.10001818
0.10001813
0.09991844
0.099918546
0.099918546
0.099918563
0.099918548
0.099918538
0.099918518
0.099918479
0.099918473
0.099918459
0.099918459
0.099918473
0.099918479
0.099918518
0.099918538
0.099918548
0.099918563
0.099918546
0.099918546
0.09991844
0.10010624
0.10010634
0.10010632
0.10010633
0.10010635
0.10010636
0.10010638
0.1001064
0.10010641
0.10010642
0.10010642
0.10010641
0.1001064
0.10010638
0.10010636
0.10010635
0.10010633
0.10010632
0.10010634
0.10010624
0.099849409
0.0998495
0.099849559
0.099849474
0.09984952
0.099849471
0.099849514
0.099849505
0.099849534
0.099849537
0.099849537
0.099849534
0.099849505
0.099849514
0.099849471
0.09984952
0.099849474
0.099849559
0.0998495
0.099849409
)
;

boundaryField
{
    left
    {
        type            zeroGradient;
    }
    right
    {
        type            zeroGradient;
    }
    walls
    {
        type            zeroGradient;
    }
    centreline
    {
        type            zeroGradient;
    }
    frontAndBack
    {
        type            zeroGradient;
    }
}


// ************************************************************************* //
