/*--------------------------------*- C++ -*----------------------------------*\
  =========                 |
  \\      /  F ield         | OpenFOAM: The Open Source CFD Toolbox
   \\    /   O peration     | Website:  https://openfoam.org
    \\  /    A nd           | Version:  8
     \\/     M anipulation  |
\*---------------------------------------------------------------------------*/
FoamFile
{
    version     2.0;
    format      ascii;
    class       volScalarField;
    location    "1";
    object      p;
}
// * * * * * * * * * * * * * * * * * * * * * * * * * * * * * * * * * * * * * //

dimensions      [1 -1 -2 0 0 0 0];

internalField   nonuniform List<scalar> 
800
(
4246.7033
4246.706
4246.7047
4246.7064
4246.7077
4246.7087
4246.7097
4246.7089
4246.7093
4246.7093
4246.7093
4246.7093
4246.7089
4246.7097
4246.7087
4246.7077
4246.7064
4246.7047
4246.706
4246.7033
4246.5788
4246.5769
4246.577
4246.5792
4246.5802
4246.5815
4246.5821
4246.5811
4246.5815
4246.5814
4246.5814
4246.5815
4246.5811
4246.5821
4246.5815
4246.5802
4246.5792
4246.577
4246.5769
4246.5788
4246.9647
4246.9631
4246.9643
4246.9646
4246.9653
4246.9649
4246.965
4246.9645
4246.9648
4246.9649
4246.9649
4246.9648
4246.9645
4246.965
4246.9649
4246.9653
4246.9646
4246.9643
4246.9631
4246.9647
4246.0806
4246.0736
4246.0765
4246.076
4246.0749
4246.076
4246.0756
4246.0757
4246.0761
4246.0755
4246.0755
4246.0761
4246.0757
4246.0756
4246.076
4246.0749
4246.076
4246.0765
4246.0736
4246.0806
4246.7978
4246.8113
4246.8103
4246.8061
4246.8061
4246.8044
4246.8048
4246.8055
4246.8057
4246.8054
4246.8054
4246.8057
4246.8055
4246.8048
4246.8044
4246.8061
4246.8061
4246.8103
4246.8113
4246.7978
4244.2304
4244.2289
4244.2243
4244.2325
4244.228
4244.2299
4244.2276
4244.2277
4244.2268
4244.2258
4244.2258
4244.2268
4244.2277
4244.2276
4244.2299
4244.228
4244.2325
4244.2243
4244.2289
4244.2304
4247.6416
4247.6415
4247.6425
4247.6394
4247.6402
4247.6408
4247.6399
4247.6402
4247.6396
4247.6401
4247.6401
4247.6396
4247.6402
4247.6399
4247.6408
4247.6402
4247.6394
4247.6425
4247.6415
4247.6416
4242.6976
4242.6985
4242.6976
4242.6992
4242.6985
4242.698
4242.6971
4242.6952
4242.6949
4242.6942
4242.6942
4242.6949
4242.6952
4242.6971
4242.698
4242.6985
4242.6992
4242.6976
4242.6985
4242.6976
4251.7039
4251.7028
4251.7036
4251.7028
4251.704
4251.7043
4251.7053
4251.7063
4251.7068
4251.7072
4251.7072
4251.7068
4251.7063
4251.7053
4251.7043
4251.704
4251.7028
4251.7036
4251.7028
4251.7039
4239.155
4239.1503
4239.1538
4239.1491
4239.1518
4239.149
4239.1514
4239.1508
4239.1523
4239.1524
4239.1524
4239.1523
4239.1508
4239.1514
4239.149
4239.1518
4239.1491
4239.1538
4239.1503
4239.155
4246.701
4246.7042
4246.7028
4246.7044
4246.7056
4246.7067
4246.7077
4246.7069
4246.7073
4246.7073
4246.7073
4246.7073
4246.7069
4246.7077
4246.7067
4246.7056
4246.7044
4246.7028
4246.7042
4246.701
4246.5763
4246.5747
4246.5747
4246.5769
4246.5778
4246.5792
4246.5798
4246.5788
4246.5792
4246.5791
4246.5791
4246.5792
4246.5788
4246.5798
4246.5792
4246.5778
4246.5769
4246.5747
4246.5747
4246.5763
4246.9671
4246.9652
4246.9665
4246.9669
4246.9676
4246.9672
4246.9673
4246.9668
4246.9671
4246.9671
4246.9671
4246.9671
4246.9668
4246.9673
4246.9672
4246.9676
4246.9669
4246.9665
4246.9652
4246.9671
4246.0882
4246.0805
4246.0837
4246.0833
4246.0822
4246.0834
4246.0828
4246.083
4246.0833
4246.0828
4246.0828
4246.0833
4246.083
4246.0828
4246.0834
4246.0822
4246.0833
4246.0837
4246.0805
4246.0882
4246.7892
4246.8031
4246.8019
4246.7977
4246.7976
4246.7959
4246.7963
4246.7971
4246.7972
4246.797
4246.797
4246.7972
4246.7971
4246.7963
4246.7959
4246.7976
4246.7977
4246.8019
4246.8031
4246.7892
4244.2333
4244.2317
4244.2271
4244.2353
4244.2307
4244.2327
4244.2303
4244.2305
4244.2295
4244.2286
4244.2286
4244.2295
4244.2305
4244.2303
4244.2327
4244.2307
4244.2353
4244.2271
4244.2317
4244.2333
4247.6381
4247.6375
4247.6387
4247.6355
4247.6364
4247.6369
4247.6361
4247.6364
4247.6358
4247.6362
4247.6362
4247.6358
4247.6364
4247.6361
4247.6369
4247.6364
4247.6355
4247.6387
4247.6375
4247.6381
4242.697
4242.6984
4242.6976
4242.6988
4242.6981
4242.6975
4242.6966
4242.6947
4242.6944
4242.6937
4242.6937
4242.6944
4242.6947
4242.6966
4242.6975
4242.6981
4242.6988
4242.6976
4242.6984
4242.697
4251.706
4251.7048
4251.7056
4251.7051
4251.7063
4251.7066
4251.7076
4251.7086
4251.7092
4251.7095
4251.7095
4251.7092
4251.7086
4251.7076
4251.7066
4251.7063
4251.7051
4251.7056
4251.7048
4251.706
4239.1529
4239.1483
4239.1517
4239.1471
4239.1498
4239.147
4239.1493
4239.1487
4239.1502
4239.1503
4239.1503
4239.1502
4239.1487
4239.1493
4239.147
4239.1498
4239.1471
4239.1517
4239.1483
4239.1529
4246.701
4246.7042
4246.7028
4246.7044
4246.7056
4246.7067
4246.7077
4246.7069
4246.7073
4246.7073
4246.7073
4246.7073
4246.7069
4246.7077
4246.7067
4246.7056
4246.7044
4246.7028
4246.7042
4246.701
4246.5763
4246.5747
4246.5747
4246.5769
4246.5778
4246.5792
4246.5798
4246.5788
4246.5792
4246.5791
4246.5791
4246.5792
4246.5788
4246.5798
4246.5792
4246.5778
4246.5769
4246.5747
4246.5747
4246.5763
4246.9671
4246.9652
4246.9665
4246.9669
4246.9676
4246.9672
4246.9673
4246.9668
4246.9671
4246.9671
4246.9671
4246.9671
4246.9668
4246.9673
4246.9672
4246.9676
4246.9669
4246.9665
4246.9652
4246.9671
4246.0882
4246.0805
4246.0837
4246.0833
4246.0822
4246.0834
4246.0828
4246.083
4246.0833
4246.0828
4246.0828
4246.0833
4246.083
4246.0828
4246.0834
4246.0822
4246.0833
4246.0837
4246.0805
4246.0882
4246.7892
4246.8031
4246.8019
4246.7977
4246.7976
4246.7959
4246.7963
4246.7971
4246.7972
4246.797
4246.797
4246.7972
4246.7971
4246.7963
4246.7959
4246.7976
4246.7977
4246.8019
4246.8031
4246.7892
4244.2333
4244.2317
4244.2271
4244.2353
4244.2307
4244.2327
4244.2303
4244.2305
4244.2295
4244.2286
4244.2286
4244.2295
4244.2305
4244.2303
4244.2327
4244.2307
4244.2353
4244.2271
4244.2317
4244.2333
4247.6381
4247.6375
4247.6387
4247.6355
4247.6364
4247.6369
4247.6361
4247.6364
4247.6358
4247.6362
4247.6362
4247.6358
4247.6364
4247.6361
4247.6369
4247.6364
4247.6355
4247.6387
4247.6375
4247.6381
4242.697
4242.6984
4242.6976
4242.6988
4242.6981
4242.6975
4242.6966
4242.6947
4242.6944
4242.6937
4242.6937
4242.6944
4242.6947
4242.6966
4242.6975
4242.6981
4242.6988
4242.6976
4242.6984
4242.697
4251.706
4251.7048
4251.7056
4251.7051
4251.7063
4251.7066
4251.7076
4251.7086
4251.7092
4251.7095
4251.7095
4251.7092
4251.7086
4251.7076
4251.7066
4251.7063
4251.7051
4251.7056
4251.7048
4251.706
4239.1529
4239.1483
4239.1517
4239.1471
4239.1498
4239.147
4239.1493
4239.1487
4239.1502
4239.1503
4239.1503
4239.1502
4239.1487
4239.1493
4239.147
4239.1498
4239.1471
4239.1517
4239.1483
4239.1529
4246.7033
4246.706
4246.7047
4246.7064
4246.7077
4246.7087
4246.7097
4246.7089
4246.7093
4246.7093
4246.7093
4246.7093
4246.7089
4246.7097
4246.7087
4246.7077
4246.7064
4246.7047
4246.706
4246.7033
4246.5788
4246.5769
4246.577
4246.5792
4246.5802
4246.5815
4246.5821
4246.5811
4246.5815
4246.5814
4246.5814
4246.5815
4246.5811
4246.5821
4246.5815
4246.5802
4246.5792
4246.577
4246.5769
4246.5788
4246.9647
4246.9631
4246.9643
4246.9646
4246.9653
4246.9649
4246.965
4246.9645
4246.9648
4246.9649
4246.9649
4246.9648
4246.9645
4246.965
4246.9649
4246.9653
4246.9646
4246.9643
4246.9631
4246.9647
4246.0806
4246.0736
4246.0765
4246.076
4246.0749
4246.076
4246.0756
4246.0757
4246.0761
4246.0755
4246.0755
4246.0761
4246.0757
4246.0756
4246.076
4246.0749
4246.076
4246.0765
4246.0736
4246.0806
4246.7978
4246.8113
4246.8103
4246.8061
4246.8061
4246.8044
4246.8048
4246.8055
4246.8057
4246.8054
4246.8054
4246.8057
4246.8055
4246.8048
4246.8044
4246.8061
4246.8061
4246.8103
4246.8113
4246.7978
4244.2304
4244.2289
4244.2243
4244.2325
4244.228
4244.2299
4244.2276
4244.2277
4244.2268
4244.2258
4244.2258
4244.2268
4244.2277
4244.2276
4244.2299
4244.228
4244.2325
4244.2243
4244.2289
4244.2304
4247.6416
4247.6415
4247.6425
4247.6394
4247.6402
4247.6408
4247.6399
4247.6402
4247.6396
4247.6401
4247.6401
4247.6396
4247.6402
4247.6399
4247.6408
4247.6402
4247.6394
4247.6425
4247.6415
4247.6416
4242.6976
4242.6985
4242.6976
4242.6992
4242.6985
4242.698
4242.6971
4242.6952
4242.6949
4242.6942
4242.6942
4242.6949
4242.6952
4242.6971
4242.698
4242.6985
4242.6992
4242.6976
4242.6985
4242.6976
4251.7039
4251.7028
4251.7036
4251.7028
4251.704
4251.7043
4251.7053
4251.7063
4251.7068
4251.7072
4251.7072
4251.7068
4251.7063
4251.7053
4251.7043
4251.704
4251.7028
4251.7036
4251.7028
4251.7039
4239.155
4239.1503
4239.1538
4239.1491
4239.1518
4239.149
4239.1514
4239.1508
4239.1523
4239.1524
4239.1524
4239.1523
4239.1508
4239.1514
4239.149
4239.1518
4239.1491
4239.1538
4239.1503
4239.155
)
;

boundaryField
{
    left
    {
        type            zeroGradient;
    }
    right
    {
        type            zeroGradient;
    }
    walls
    {
        type            zeroGradient;
    }
    centreline
    {
        type            fixedValue;
        value           uniform 4247;
    }
    frontAndBack
    {
        type            zeroGradient;
    }
}


// ************************************************************************* //
