/*--------------------------------*- C++ -*----------------------------------*\
  =========                 |
  \\      /  F ield         | OpenFOAM: The Open Source CFD Toolbox
   \\    /   O peration     | Website:  https://openfoam.org
    \\  /    A nd           | Version:  8
     \\/     M anipulation  |
\*---------------------------------------------------------------------------*/
FoamFile
{
    version     2.0;
    format      ascii;
    class       surfaceScalarField;
    location    "1";
    object      phi;
}
// * * * * * * * * * * * * * * * * * * * * * * * * * * * * * * * * * * * * * //

dimensions      [1 0 -1 0 0 0 0];

internalField   nonuniform List<scalar> 
2080
(
-5.4320575e-05
-0.0005545139
-0.00017676048
-2.5576803e-06
-0.00065216069
-0.00018095364
-4.4025609e-06
-0.00060138499
-0.00017991152
-1.2642958e-06
-0.0006056106
-0.00018000171
-1.2298066e-06
-0.0006015503
-0.00017993426
-9.5185816e-07
-0.00060324854
-0.00017995135
-1.1588539e-06
-0.00060281226
-0.00017993024
-1.1524288e-06
-0.00060275912
-0.00017993924
-7.5744412e-07
-0.0006024044
-0.00017993351
3.0569861e-12
-0.00060199393
-0.00017993701
7.5744957e-07
-0.00060199393
-0.00017993701
1.1524322e-06
-0.0006024044
-0.00017993351
1.1588526e-06
-0.00060275913
-0.00017993924
9.5185248e-07
-0.00060281227
-0.00017993024
1.2297993e-06
-0.00060324855
-0.00017995135
1.2642877e-06
-0.0006015503
-0.00017993426
4.4025548e-06
-0.00060561059
-0.00018000171
2.5576775e-06
-0.00060138499
-0.00017991152
5.4320573e-05
-0.00065216069
-0.00018095364
-0.00055451389
-0.00017676048
1.7852644e-05
-0.0010853629
0.00010259226
-2.5115753e-07
-0.0011485149
0.00010529644
-3.6381583e-06
-0.0011121855
0.00010450263
-1.0176126e-06
-0.0011207973
0.0001046381
-1.2438228e-06
-0.0011134311
0.00010460114
-9.5497319e-07
-0.0011168314
0.00010463245
-1.156184e-06
-0.0011158466
0.0001046184
-1.1270528e-06
-0.0011157943
0.00010462389
-7.3484823e-07
-0.0011149489
0.0001046168
3.3440769e-12
-0.0011141145
0.00010461782
7.3485426e-07
-0.0011141145
0.00010461782
1.1270561e-06
-0.0011149489
0.0001046168
1.1561821e-06
-0.0011157943
0.00010462389
9.5496663e-07
-0.0011158466
0.0001046184
1.243815e-06
-0.0011168314
0.00010463245
1.0176041e-06
-0.0011134311
0.00010460114
3.6381514e-06
-0.0011207973
0.0001046381
2.5115372e-07
-0.0011121855
0.00010450263
-1.7852647e-05
-0.0011485149
0.00010529644
-0.0010853629
0.00010259226
8.9347118e-06
-0.0013940408
4.7427724e-05
-3.2162585e-06
-0.0014375582
4.8206024e-05
-3.5944483e-06
-0.0014129812
4.8055201e-05
-1.7662447e-06
-0.0014229327
4.7985852e-05
-1.9971001e-06
-0.0014141823
4.8086227e-05
-1.6586089e-06
-0.0014185201
4.8049698e-05
-1.616449e-06
-0.0014168352
4.8053896e-05
-1.2642893e-06
-0.0014165307
4.8048527e-05
-7.0398142e-07
-0.0014152309
4.8052069e-05
2.7890898e-12
-0.0014141653
4.8057994e-05
7.0398631e-07
-0.0014141653
4.8057994e-05
1.2642918e-06
-0.0014152309
4.8052069e-05
1.6164476e-06
-0.0014165307
4.8048527e-05
1.658604e-06
-0.0014168352
4.8053896e-05
1.9970945e-06
-0.0014185201
4.8049698e-05
1.7662393e-06
-0.0014141823
4.8086227e-05
3.5944435e-06
-0.0014229327
4.7985852e-05
3.2162563e-06
-0.0014129812
4.8055201e-05
-8.9347124e-06
-0.0014375582
4.8206023e-05
-0.0013940408
4.7427723e-05
8.6369038e-06
-0.0013576901
1.5398515e-06
1.0345412e-06
-0.0013928024
1.2165908e-06
1.2706123e-06
-0.0013751081
1.2556474e-06
-5.8534414e-07
-0.0013804133
1.2100772e-06
-7.4242609e-07
-0.0013740369
1.234621e-06
-1.2853866e-06
-0.0013757175
1.2149234e-06
-7.0964627e-07
-0.0013735047
1.2119888e-06
-5.4118528e-07
-0.0013730415
1.2017864e-06
-1.717052e-07
-0.0013718136
1.2030926e-06
2.6138588e-12
-0.0013710387
1.2031707e-06
1.7170875e-07
-0.0013710387
1.2031708e-06
5.4118492e-07
-0.0013718136
1.2030928e-06
7.0964133e-07
-0.0013730415
1.2017866e-06
1.2853779e-06
-0.0013735047
1.2119891e-06
7.4241918e-07
-0.0013757175
1.2149235e-06
5.8533809e-07
-0.001374037
1.2346209e-06
-1.2706174e-06
-0.0013804133
1.2100767e-06
-1.0345401e-06
-0.0013751081
1.2556467e-06
-8.6368998e-06
-0.0013928024
1.2165904e-06
-0.0013576901
1.5398498e-06
3.9313277e-06
-0.0011795204
-2.7786844e-06
-1.7129145e-06
-0.0012086289
-2.1710683e-06
-1.5038963e-06
-0.0011957894
-2.4131133e-06
-2.1446825e-06
-0.0012076144
-2.3241661e-06
-3.7013579e-06
-0.0011990563
-2.3577178e-06
-2.5251492e-06
-0.0012011465
-2.3676471e-06
-1.7004532e-06
-0.0011973373
-2.3408338e-06
-4.8444225e-07
-0.0011974279
-2.3369692e-06
-2.3635526e-08
-0.0011965704
-2.3226556e-06
-6.1098511e-13
-0.001196572
-2.3207824e-06
2.3634017e-08
-0.001196572
-2.3207824e-06
4.8443973e-07
-0.0011965704
-2.3226557e-06
1.700452e-06
-0.0011974279
-2.3369694e-06
2.5251494e-06
-0.0011973373
-2.340834e-06
3.7013596e-06
-0.0012011465
-2.3676475e-06
2.1446857e-06
-0.0011990563
-2.3577182e-06
1.5038979e-06
-0.0012076144
-2.3241664e-06
1.7129179e-06
-0.0011957894
-2.4131136e-06
-3.9313232e-06
-0.0012086289
-2.1710684e-06
-0.0011795204
-2.7786839e-06
-3.4920764e-06
-0.00058010495
2.2542332e-06
9.8128605e-07
-0.0005996414
1.8603911e-06
4.922613e-06
-0.00059102113
2.1268803e-06
2.6858858e-06
-0.00059714275
2.0307056e-06
3.8825742e-06
-0.0005930821
2.0851023e-06
1.239399e-06
-0.00059295664
2.0161519e-06
1.411039e-06
-0.00059049496
2.0198401e-06
5.5236866e-07
-0.00058981935
1.9711181e-06
5.9951408e-07
-0.00058952173
1.9837395e-06
-4.2325084e-12
-0.00058984752
1.9796613e-06
-5.9952515e-07
-0.00058984752
1.9796614e-06
-5.5238151e-07
-0.00058952174
1.9837393e-06
-1.4110485e-06
-0.00058981936
1.9711185e-06
-1.2394072e-06
-0.00059049496
2.0198399e-06
-3.8825741e-06
-0.00059295663
2.0161514e-06
-2.6858793e-06
-0.00059308209
2.0851013e-06
-4.9226108e-06
-0.00059714273
2.030704e-06
-9.812766e-07
-0.00059102111
2.1268794e-06
3.4920878e-06
-0.00059964139
1.8603904e-06
-0.00058010494
2.2542322e-06
-7.4911547e-06
0.00059639777
-1.8684999e-05
-4.4344109e-06
0.00056201927
-1.9179777e-05
-5.4895419e-06
0.00057308304
-1.8930502e-05
-3.8409647e-06
0.00056724812
-1.913464e-05
-3.8320063e-06
0.00057113283
-1.9025399e-05
-1.0237951e-06
0.00056867447
-1.9069175e-05
-1.5883445e-06
0.00057110226
-1.9006005e-05
-7.9707926e-07
0.0005703422
-1.9014271e-05
-8.405369e-07
0.00057171345
-1.899965e-05
-4.9255084e-12
0.00057151557
-1.9009942e-05
8.4052903e-07
0.00057151557
-1.9009942e-05
7.9707609e-07
0.00057171345
-1.899965e-05
1.58835e-06
0.00057034221
-1.9014271e-05
1.0238062e-06
0.00057110227
-1.9006005e-05
3.8320154e-06
0.00056867448
-1.9069175e-05
3.8409733e-06
0.00057113284
-1.9025398e-05
5.4895468e-06
0.00056724814
-1.9134639e-05
4.4344088e-06
0.00057308306
-1.89305e-05
7.4911517e-06
0.00056201928
-1.917977e-05
0.00059639778
-1.8684996e-05
2.3998307e-05
0.00043463898
1.7051712e-05
6.4969349e-06
0.00043672242
1.6693508e-05
1.4616336e-05
0.0004727663
1.7431108e-05
6.4687776e-06
0.00043459144
1.7385006e-05
1.0355763e-05
0.00043136613
1.7691937e-05
4.6461874e-06
0.00043335649
1.7543072e-05
5.6426771e-06
0.00043171581
1.7684975e-05
2.0334437e-06
0.00043277598
1.757174e-05
1.3595734e-06
0.00043221152
1.7631559e-05
-9.0014048e-12
0.00043261888
1.7584081e-05
-1.3595915e-06
0.00043261888
1.7584081e-05
-2.0334573e-06
0.00043221153
1.7631558e-05
-5.6426803e-06
0.00043277598
1.757174e-05
-4.6461826e-06
0.00043171581
1.7684973e-05
-1.0355751e-05
0.00043335649
1.754307e-05
-6.4687575e-06
0.00043136614
1.7691937e-05
-1.4616311e-05
0.00043459144
1.7385004e-05
-6.4969258e-06
0.00047276631
1.7431115e-05
-2.3998307e-05
0.00043672242
1.6693553e-05
0.00043463898
1.7051726e-05
-2.2216403e-05
-0.00044930549
-2.4126693e-05
-1.3989329e-05
-0.00047477395
-2.4677448e-05
-1.9547266e-05
-0.00047137243
-2.5664493e-05
-1.0001184e-05
-0.00047609558
-2.5610306e-05
-1.2032635e-05
-0.00047171323
-2.5879961e-05
-4.8051634e-06
-0.00047577076
-2.5810424e-05
-5.0060316e-06
-0.00047270912
-2.5876739e-05
-9.4087814e-07
-0.00047511908
-2.5828956e-05
-8.6639543e-07
-0.00047368194
-2.5842321e-05
3.319097e-12
-0.00047440999
-2.5814916e-05
8.6640621e-07
-0.00047440999
-2.5814916e-05
9.4089482e-07
-0.00047368193
-2.584232e-05
5.0060491e-06
-0.00047511908
-2.5828956e-05
4.8051792e-06
-0.00047270911
-2.5876738e-05
1.2032643e-05
-0.00047577076
-2.5810422e-05
1.000118e-05
-0.00047171323
-2.587996e-05
1.9547258e-05
-0.00047609558
-2.5610303e-05
1.3989321e-05
-0.00047137244
-2.5664499e-05
2.22164e-05
-0.00047477396
-2.4677495e-05
-0.0004493055
-2.4126703e-05
2.5249551e-05
4.6425988e-05
1.7977726e-05
5.2798441e-05
1.7342698e-05
4.970944e-05
1.128261e-05
5.0629564e-05
1.0694146e-05
5.0194059e-05
7.0384251e-06
5.0472327e-05
6.3751194e-06
5.0261302e-05
3.9577034e-06
5.0402255e-05
2.2958168e-06
5.0306681e-05
5.8518008e-12
5.0348642e-05
-2.2958067e-06
5.0348642e-05
-3.9576984e-06
5.0306681e-05
-6.3751214e-06
5.0402255e-05
-7.0384316e-06
5.0261302e-05
-1.0694153e-05
5.0472326e-05
-1.1282615e-05
5.0194057e-05
-1.7342701e-05
5.0629564e-05
-1.7977725e-05
4.9709439e-05
-2.5249551e-05
5.2798436e-05
4.6425987e-05
-5.6646539e-05
-0.00089907232
2.9144513e-12
-2.5795454e-06
-0.0010092318
2.6673807e-12
-4.317046e-06
-0.0009544513
2.496418e-12
-1.2704213e-06
-0.0009586853
2.6051852e-12
-1.2367582e-06
-0.00095453435
2.6389569e-12
-9.5445204e-07
-0.00095629647
2.6567798e-12
-1.1623951e-06
-0.00095582065
2.6628802e-12
-1.1543557e-06
-0.00095579108
2.4634433e-12
-7.5852025e-07
-0.00095542015
2.1857525e-12
3.0433563e-12
-0.00095501549
1.9381685e-12
7.5852571e-07
-0.00095501549
1.9404638e-12
1.1543591e-06
-0.00095542015
2.1990369e-12
1.1623938e-06
-0.00095579108
2.5258008e-12
9.5444637e-07
-0.00095582065
2.6488381e-12
1.2367509e-06
-0.00095629647
2.6692059e-12
1.2704132e-06
-0.00095453435
2.6164197e-12
4.3170397e-06
-0.0009586853
2.6077299e-12
2.5795423e-06
-0.0009544513
2.3754794e-12
5.6646537e-05
-0.0010092317
2.0949516e-12
-0.00089907232
7.2129996e-13
1.8800785e-05
-0.0012309195
-2.7345058e-12
-1.3901642e-07
-0.0012988611
-3.7079052e-12
-3.7461111e-06
-0.0012609485
-3.7192775e-12
-1.0127777e-06
-0.0012697317
-3.4800076e-12
-1.2579645e-06
-0.00126223
-3.5293933e-12
-9.5738498e-07
-0.0012656701
-3.5619872e-12
-1.1619466e-06
-0.0012646516
-3.5419365e-12
-1.1300576e-06
-0.0012646145
-3.7263999e-12
-7.3672659e-07
-0.00126376
-4.0019366e-12
3.3411295e-12
-0.0012629311
-4.2050253e-12
7.3673263e-07
-0.0012629311
-4.2093566e-12
1.130061e-06
-0.00126376
-3.993392e-12
1.1619448e-06
-0.0012646146
-3.768931e-12
9.5737842e-07
-0.0012646516
-3.5305717e-12
1.2579567e-06
-0.0012656702
-3.5194345e-12
1.0127692e-06
-0.00126223
-3.4118214e-12
3.7461042e-06
-0.0012697317
-3.3633263e-12
1.3901265e-07
-0.0012609485
-3.5696905e-12
-1.8800787e-05
-0.001298861
-3.5450282e-12
-0.0012309195
-1.9151798e-12
9.2132994e-06
-0.0014441532
2.5596396e-12
-3.2362926e-06
-0.0014894921
1.2918569e-12
-3.6743798e-06
-0.0014639517
1.7282646e-12
-1.7792219e-06
-0.0014744086
2.3073888e-12
-2.0205312e-06
-0.0014653485
2.2613608e-12
-1.6745518e-06
-0.001469789
2.3166611e-12
-1.6275395e-06
-0.0014680326
2.2327204e-12
-1.2684555e-06
-0.0014677394
1.9545059e-12
-7.0544912e-07
-0.0014664202
1.5263377e-12
2.7929659e-12
-0.0014653564
1.29906e-12
7.0545403e-07
-0.0014653564
1.298225e-12
1.2684581e-06
-0.0014664202
1.5587726e-12
1.6275382e-06
-0.0014677394
1.9485439e-12
1.6745468e-06
-0.0014680326
2.242795e-12
2.0205255e-06
-0.001469789
2.3482594e-12
1.7792165e-06
-0.0014653485
2.3848306e-12
3.674375e-06
-0.0014744086
2.3903438e-12
3.2362904e-06
-0.0014639517
1.8792276e-12
-9.2133002e-06
-0.0014894921
1.3009799e-12
-0.0014441532
3.3438291e-12
8.7198302e-06
-0.0013994726
2.9346717e-12
9.9263428e-07
-0.0014360619
3.0016765e-12
1.3069916e-06
-0.0014177638
3.4739578e-12
-5.7902629e-07
-0.0014232782
3.8392558e-12
-7.3561624e-07
-0.00141675
3.5721195e-12
-1.287314e-06
-0.0014184879
3.4043126e-12
-7.1199134e-07
-0.0014162189
3.1876979e-12
-5.4185344e-07
-0.0014157757
2.7275084e-12
-1.7108859e-07
-0.0014145319
2.4694633e-12
2.633632e-12
-0.0014137654
2.2765135e-12
1.7109218e-07
-0.0014137654
2.3020918e-12
5.4185312e-07
-0.0014145319
2.5392676e-12
7.1198643e-07
-0.0014157757
2.8231401e-12
1.2873052e-06
-0.0014162189
3.3003748e-12
7.3560919e-07
-0.0014184879
3.4073038e-12
5.7902007e-07
-0.00141675
3.5370565e-12
-1.3069968e-06
-0.0014232782
3.6390888e-12
-9.9263321e-07
-0.0014177638
3.1308651e-12
-8.7198265e-06
-0.0014360619
2.9685219e-12
-0.0013994726
2.436783e-12
4.0431164e-06
-0.0012235403
-5.7353579e-12
-1.745204e-06
-0.0012531714
-5.2495321e-12
-1.5805164e-06
-0.0012402663
-4.9212234e-12
-2.194551e-06
-0.0012523861
-4.7965891e-12
-3.7463908e-06
-0.0012435977
-4.8670399e-12
-2.5438226e-06
-0.0012458159
-4.7913682e-12
-1.7146153e-06
-0.0012419008
-5.0008848e-12
-4.9022306e-07
-0.0012420351
-5.1697736e-12
-2.678504e-08
-0.0012411446
-5.2183524e-12
-6.3403546e-13
-0.0012411559
-5.2011868e-12
2.6783493e-08
-0.0012411559
-5.2120892e-12
4.9022051e-07
-0.0012411446
-5.2242197e-12
1.714614e-06
-0.0012420351
-5.1504984e-12
2.5438228e-06
-0.0012419008
-4.9477289e-12
3.7463925e-06
-0.0012458159
-4.7989129e-12
2.1945542e-06
-0.0012435977
-5.012341e-12
1.5805181e-06
-0.0012523861
-4.9743045e-12
1.7452075e-06
-0.0012402663
-5.2639961e-12
-4.0431119e-06
-0.0012531714
-5.7151614e-12
-0.0012235403
-5.4578835e-12
-3.4499113e-06
-0.00062351495
-6.2971061e-12
1.0403917e-06
-0.00064420809
-3.2072599e-12
5.0323357e-06
-0.00063523459
-5.4839342e-12
2.7123163e-06
-0.000641566
-5.6204558e-12
3.9214718e-06
-0.00063732884
-5.9381377e-12
1.2435499e-06
-0.00063733487
-6.0386281e-12
1.4241506e-06
-0.00063479971
-6.7091639e-12
5.5887376e-07
-0.00063419149
-6.9095995e-12
6.0732088e-07
-0.00063386351
-6.6278499e-12
-4.2407643e-12
-0.00063420349
-6.4122776e-12
-6.0733192e-07
-0.00063420349
-6.4665703e-12
-5.5888657e-07
-0.00063386352
-6.6443698e-12
-1.4241603e-06
-0.00063419149
-6.9407487e-12
-1.2435583e-06
-0.00063479971
-6.8053642e-12
-3.921472e-06
-0.00063733486
-6.1948165e-12
-2.71231e-06
-0.00063732883
-6.0026113e-12
-5.0323335e-06
-0.00064156599
-5.7798309e-12
-1.0403821e-06
-0.00063523457
-5.4649571e-12
3.4499225e-06
-0.00064420807
-3.355336e-12
-0.00062351494
-6.6551356e-12
-7.6906765e-06
0.00050591609
-9.0258903e-12
-4.6053455e-06
0.00046835244
-9.9997851e-12
-5.5817862e-06
0.0004806964
-7.8491573e-12
-3.9349957e-06
0.00047429006
-8.0519489e-12
-3.8853444e-06
0.00047857944
-7.1154303e-12
-1.0653193e-06
0.00047584796
-6.3334089e-12
-1.6220868e-06
0.00047848903
-5.6666426e-12
-8.1912222e-07
0.00047761818
-5.1389694e-12
-8.5458367e-07
0.00047907774
-4.7525955e-12
-4.9549338e-12
0.00047885394
-4.5972394e-12
8.5457576e-07
0.00047885394
-4.6385099e-12
8.1911905e-07
0.00047907775
-4.786308e-12
1.6220924e-06
0.00047761819
-5.1641288e-12
1.0653306e-06
0.00047848904
-5.7424232e-12
3.8853539e-06
0.00047584798
-6.3213483e-12
3.9350046e-06
0.00047857946
-6.9688403e-12
5.5817917e-06
0.00047429008
-7.7526791e-12
4.6053445e-06
0.00048069642
-7.5256582e-12
7.6906732e-06
0.00046835246
-9.6378752e-12
0.00050591611
-9.2800613e-12
2.4293309e-05
0.00042472993
-6.2791115e-13
6.7401877e-06
0.00043449036
9.4106931e-12
1.4937757e-05
0.00041617998
-1.021643e-12
6.5711162e-06
0.00042497235
-7.2640901e-13
1.0492428e-05
0.00041785339
-3.1717972e-12
4.6917897e-06
0.00042401694
-1.9331406e-12
5.6999398e-06
0.00041875121
-2.0961309e-12
2.0491303e-06
0.00042188836
-2.2975577e-12
1.3739938e-06
0.00042012065
-2.436324e-12
-9.0450267e-12
0.00042134869
-2.3129653e-12
-1.3740121e-06
0.00042134869
-2.2665735e-12
-2.0491441e-06
0.00042012066
-2.3805017e-12
-5.6999433e-06
0.00042188837
-2.3490207e-12
-4.691785e-06
0.00041875123
-2.2862688e-12
-1.0492416e-05
0.00042401696
-2.141624e-12
-6.571096e-06
0.00041785341
-3.3090368e-12
-1.493773e-05
0.00042497235
-1.0049106e-12
-6.7401657e-06
0.00041617998
-1.0674814e-12
-2.4293321e-05
0.00043449036
8.1732818e-12
0.00042472993
-5.8082435e-13
-2.2814508e-05
-0.00054425998
-9.6309064e-12
-1.4359245e-05
-0.00057431274
-2.3914839e-11
-1.9907523e-05
-0.00057031769
-7.2865754e-12
-1.0128719e-05
-0.00057562259
-9.2464847e-12
-1.2214093e-05
-0.00057072638
-5.4747121e-12
-4.8746995e-06
-0.00057525757
-6.1461408e-12
-5.0906288e-06
-0.00057181572
-5.0416254e-12
-9.703385e-07
-0.00057448761
-4.0438087e-12
-8.897533e-07
-0.00057287095
-3.7019747e-12
3.3536357e-12
-0.0005736751
-3.5834368e-12
8.897642e-07
-0.0005736751
-3.6072199e-12
9.7035547e-07
-0.00057287095
-3.7170789e-12
5.0906467e-06
-0.00057448761
-4.0025006e-12
4.8747156e-06
-0.00057181572
-4.8633925e-12
1.22141e-05
-0.00057525757
-5.8308368e-12
1.0128715e-05
-0.00057072637
-5.2822052e-12
1.9907514e-05
-0.00057562259
-8.6804754e-12
1.4359227e-05
-0.0005703177
-6.9794958e-12
2.2814516e-05
-0.00057431275
-2.1713016e-11
-0.00054425998
-9.1879489e-12
2.1740695e-05
-9.3605277e-13
1.8983657e-05
2.8571499e-13
1.733111e-05
-1.4465914e-12
1.1516801e-05
-1.704996e-12
1.0826836e-05
-2.3476025e-12
7.1625491e-06
-2.4431362e-12
6.4559741e-06
-2.6991764e-12
4.0169144e-06
-2.8269273e-12
2.3218283e-06
-2.9051397e-12
5.871366e-12
-2.9584393e-12
-2.3218182e-06
-2.932052e-12
-4.0169095e-06
-2.9773301e-12
-6.4559762e-06
-2.7952178e-12
-7.1625557e-06
-2.609527e-12
-1.0826843e-05
-2.454505e-12
-1.1516806e-05
-2.3521308e-12
-1.7331114e-05
-1.7286061e-12
-1.8983656e-05
-1.6193365e-12
-2.1740694e-05
1.3255609e-14
-9.6004223e-13
-5.6646539e-05
-0.00089907232
0.00017676048
-2.5795454e-06
-0.0010092318
0.00018095364
-4.317046e-06
-0.0009544513
0.00017991152
-1.2704213e-06
-0.00095868531
0.00018000172
-1.2367582e-06
-0.00095453435
0.00017993426
-9.5445204e-07
-0.00095629647
0.00017995135
-1.1623951e-06
-0.00095582065
0.00017993024
-1.1543558e-06
-0.00095579108
0.00017993924
-7.5852031e-07
-0.00095542015
0.00017993351
3.0425261e-12
-0.00095501549
0.00017993701
7.5852577e-07
-0.00095501549
0.00017993701
1.1543592e-06
-0.00095542015
0.00017993351
1.1623938e-06
-0.00095579108
0.00017993924
9.5444637e-07
-0.00095582065
0.00017993024
1.2367509e-06
-0.00095629648
0.00017995135
1.2704132e-06
-0.00095453435
0.00017993426
4.3170396e-06
-0.0009586853
0.00018000172
2.5795421e-06
-0.0009544513
0.00017991152
5.6646537e-05
-0.0010092317
0.00018095364
-0.00089907232
0.00017676048
1.8800784e-05
-0.0012309195
-0.00010259226
-1.3901649e-07
-0.0012988611
-0.00010529644
-3.7461111e-06
-0.0012609485
-0.00010450263
-1.0127777e-06
-0.0012697317
-0.0001046381
-1.2579645e-06
-0.00126223
-0.00010460114
-9.5738499e-07
-0.0012656701
-0.00010463245
-1.1619467e-06
-0.0012646516
-0.0001046184
-1.1300577e-06
-0.0012646145
-0.0001046239
-7.3672665e-07
-0.00126376
-0.00010461681
3.3393325e-12
-0.0012629311
-0.00010461782
7.3673267e-07
-0.0012629311
-0.00010461782
1.130061e-06
-0.00126376
-0.00010461681
1.1619448e-06
-0.0012646146
-0.0001046239
9.5737845e-07
-0.0012646516
-0.0001046184
1.2579567e-06
-0.0012656702
-0.00010463245
1.0127692e-06
-0.00126223
-0.00010460114
3.7461042e-06
-0.0012697317
-0.0001046381
1.3901279e-07
-0.0012609485
-0.00010450263
-1.8800787e-05
-0.001298861
-0.00010529644
-0.0012309195
-0.00010259226
9.2132992e-06
-0.0014441532
-4.7427718e-05
-3.2362925e-06
-0.0014894921
-4.820602e-05
-3.6743798e-06
-0.0014639517
-4.8055197e-05
-1.7792219e-06
-0.0014744086
-4.7985847e-05
-2.0205312e-06
-0.0014653485
-4.8086222e-05
-1.6745518e-06
-0.001469789
-4.8049693e-05
-1.6275396e-06
-0.0014680326
-4.8053891e-05
-1.2684556e-06
-0.0014677394
-4.8048522e-05
-7.0544917e-07
-0.0014664202
-4.8052065e-05
2.7938799e-12
-0.0014653564
-4.805799e-05
7.0545408e-07
-0.0014653564
-4.805799e-05
1.2684581e-06
-0.0014664202
-4.8052065e-05
1.6275382e-06
-0.0014677394
-4.8048522e-05
1.6745468e-06
-0.0014680326
-4.8053891e-05
2.0205256e-06
-0.001469789
-4.8049693e-05
1.7792164e-06
-0.0014653485
-4.8086221e-05
3.6743749e-06
-0.0014744086
-4.7985847e-05
3.2362904e-06
-0.0014639517
-4.8055196e-05
-9.2132999e-06
-0.0014894921
-4.8206019e-05
-0.0014441532
-4.7427717e-05
8.7198304e-06
-0.0013994726
-1.5398468e-06
9.9263439e-07
-0.0014360619
-1.2165865e-06
1.3069916e-06
-0.0014177638
-1.2556426e-06
-5.7902632e-07
-0.0014232782
-1.2100721e-06
-7.3561633e-07
-0.00141675
-1.2346161e-06
-1.2873141e-06
-0.0014184879
-1.2149187e-06
-7.1199143e-07
-0.0014162189
-1.2119843e-06
-5.4185351e-07
-0.0014157757
-1.2017824e-06
-1.7108862e-07
-0.0014145319
-1.2030889e-06
2.6415209e-12
-0.0014137654
-1.2031672e-06
1.7109222e-07
-0.0014137654
-1.2031672e-06
5.4185319e-07
-0.0014145319
-1.2030889e-06
7.1198651e-07
-0.0014157757
-1.2017825e-06
1.2873053e-06
-0.0014162189
-1.2119845e-06
7.3560922e-07
-0.0014184879
-1.2149188e-06
5.7902007e-07
-0.00141675
-1.234616e-06
-1.3069968e-06
-0.0014232782
-1.2100718e-06
-9.9263333e-07
-0.0014177638
-1.2556423e-06
-8.7198268e-06
-0.0014360619
-1.2165862e-06
-0.0013994726
-1.5398455e-06
4.0431165e-06
-0.0012235403
2.7786768e-06
-1.7452039e-06
-0.0012531714
2.1710617e-06
-1.5805164e-06
-0.0012402663
2.4131071e-06
-2.194551e-06
-0.0012523861
2.32416e-06
-3.7463908e-06
-0.0012435977
2.3577117e-06
-2.5438226e-06
-0.0012458159
2.3676411e-06
-1.7146154e-06
-0.0012419008
2.3408275e-06
-4.9022306e-07
-0.0012420351
2.3369628e-06
-2.678503e-08
-0.0012411446
2.3226491e-06
-6.2912882e-13
-0.0012411559
2.3207758e-06
2.6783483e-08
-0.0012411559
2.3207759e-06
4.9022053e-07
-0.0012411446
2.3226492e-06
1.7146141e-06
-0.0012420351
2.336963e-06
2.5438228e-06
-0.0012419008
2.3408278e-06
3.7463925e-06
-0.0012458159
2.3676414e-06
2.1945542e-06
-0.0012435977
2.3577119e-06
1.580518e-06
-0.0012523861
2.3241601e-06
1.7452075e-06
-0.0012402663
2.4131069e-06
-4.0431117e-06
-0.0012531714
2.1710614e-06
-0.0012235403
2.7786765e-06
-3.449911e-06
-0.00062351495
-2.2542402e-06
1.0403915e-06
-0.00064420809
-1.8603939e-06
5.0323356e-06
-0.00063523459
-2.1268866e-06
2.7123163e-06
-0.000641566
-2.0307121e-06
3.9214717e-06
-0.00063732884
-2.0851092e-06
1.2435497e-06
-0.00063733487
-2.0161591e-06
1.4241505e-06
-0.00063479971
-2.019848e-06
5.5887382e-07
-0.00063419149
-1.9711263e-06
6.0732091e-07
-0.00063386351
-1.9837473e-06
-4.2352835e-12
-0.00063420349
-1.9796689e-06
-6.0733198e-07
-0.00063420349
-1.979669e-06
-5.5888663e-07
-0.00063386351
-1.9837472e-06
-1.4241602e-06
-0.00063419149
-1.9711268e-06
-1.2435582e-06
-0.00063479971
-2.0198479e-06
-3.9214719e-06
-0.00063733486
-2.0161587e-06
-2.71231e-06
-0.00063732883
-2.0851084e-06
-5.0323334e-06
-0.00064156599
-2.0307106e-06
-1.0403821e-06
-0.00063523457
-2.1268857e-06
3.4499221e-06
-0.00064420807
-1.8603936e-06
-0.00062351494
-2.2542393e-06
-7.6906765e-06
0.00050591609
1.8684986e-05
-4.6053453e-06
0.00046835244
1.9179762e-05
-5.581786e-06
0.0004806964
1.8930491e-05
-3.9349956e-06
0.00047429006
1.9134629e-05
-3.8853442e-06
0.00047857944
1.902539e-05
-1.0653192e-06
0.00047584796
1.9069167e-05
-1.6220866e-06
0.00047848903
1.9005997e-05
-8.1912209e-07
0.00047761819
1.9014264e-05
-8.5458367e-07
0.00047907775
1.8999643e-05
-4.9635475e-12
0.00047885394
1.9009936e-05
8.545757e-07
0.00047885394
1.9009936e-05
8.1911896e-07
0.00047907775
1.8999643e-05
1.6220922e-06
0.00047761819
1.9014264e-05
1.0653305e-06
0.00047848904
1.9005997e-05
3.8853537e-06
0.00047584798
1.9069167e-05
3.9350045e-06
0.00047857946
1.9025389e-05
5.5817916e-06
0.00047429008
1.9134628e-05
4.6053443e-06
0.00048069642
1.893049e-05
7.6906732e-06
0.00046835246
1.9179756e-05
0.00050591611
1.8684983e-05
2.4293307e-05
0.00042472993
-1.7051713e-05
6.7401894e-06
0.00043449036
-1.66935e-05
1.4937757e-05
0.00041617998
-1.743111e-05
6.5711161e-06
0.00042497235
-1.7385005e-05
1.0492428e-05
0.00041785339
-1.7691941e-05
4.6917898e-06
0.00042401694
-1.7543075e-05
5.6999398e-06
0.00041875121
-1.7684978e-05
2.0491303e-06
0.00042188836
-1.7571744e-05
1.3739938e-06
0.00042012065
-1.7631562e-05
-9.0581212e-12
0.00042134869
-1.7584085e-05
-1.3740121e-06
0.00042134869
-1.7584085e-05
-2.0491441e-06
0.00042012066
-1.7631562e-05
-5.6999433e-06
0.00042188837
-1.7571743e-05
-4.6917851e-06
0.00041875123
-1.7684977e-05
-1.0492416e-05
0.00042401696
-1.7543074e-05
-6.5710958e-06
0.00041785341
-1.7691942e-05
-1.4937729e-05
0.00042497235
-1.7385004e-05
-6.7401673e-06
0.00041617998
-1.7431117e-05
-2.4293319e-05
0.00043449036
-1.6693546e-05
0.00042472993
-1.7051727e-05
-2.2814506e-05
-0.00054425998
2.412668e-05
-1.4359246e-05
-0.00057431274
2.4677423e-05
-1.9907522e-05
-0.00057031769
2.5664484e-05
-1.0128718e-05
-0.00057562259
2.5610292e-05
-1.2214093e-05
-0.00057072638
2.5879953e-05
-4.8746993e-06
-0.00057525757
2.5810415e-05
-5.0906286e-06
-0.00057181572
2.5876732e-05
-9.7033839e-07
-0.00057448761
2.5828951e-05
-8.8975325e-07
-0.00057287095
2.5842315e-05
3.3754961e-12
-0.0005736751
2.5814911e-05
8.8976416e-07
-0.0005736751
2.5814911e-05
9.7035535e-07
-0.00057287095
2.5842315e-05
5.0906465e-06
-0.00057448761
2.582895e-05
4.8747154e-06
-0.00057181572
2.5876731e-05
1.22141e-05
-0.00057525757
2.5810413e-05
1.0128715e-05
-0.00057072637
2.5879953e-05
1.9907513e-05
-0.00057562259
2.5610289e-05
1.4359228e-05
-0.0005703177
2.566449e-05
2.2814514e-05
-0.00057431275
2.4677471e-05
-0.00054425998
2.412669e-05
2.1740695e-05
-4.6425989e-05
1.8983657e-05
-5.279844e-05
1.7331111e-05
-4.9709442e-05
1.1516801e-05
-5.0629566e-05
1.0826836e-05
-5.0194062e-05
7.162549e-06
-5.047233e-05
6.4559741e-06
-5.0261306e-05
4.0169144e-06
-5.0402259e-05
2.3218283e-06
-5.0306685e-05
5.8634476e-12
-5.0348647e-05
-2.3218182e-06
-5.0348646e-05
-4.0169095e-06
-5.0306686e-05
-6.4559761e-06
-5.0402259e-05
-7.1625557e-06
-5.0261306e-05
-1.0826843e-05
-5.047233e-05
-1.1516806e-05
-5.0194061e-05
-1.7331114e-05
-5.0629566e-05
-1.8983656e-05
-4.9709441e-05
-2.1740694e-05
-5.2798435e-05
-4.6425988e-05
-5.4320574e-05
-0.0005545139
-2.5576805e-06
-0.0006521607
-4.4025609e-06
-0.000601385
-1.2642958e-06
-0.0006056106
-1.2298066e-06
-0.0006015503
-9.5185817e-07
-0.00060324855
-1.158854e-06
-0.00060281227
-1.1524289e-06
-0.00060275913
-7.5744426e-07
-0.00060240441
3.0564036e-12
-0.00060199393
7.5744971e-07
-0.00060199393
1.1524323e-06
-0.00060240441
1.1588527e-06
-0.00060275913
9.518525e-07
-0.00060281227
1.2297994e-06
-0.00060324855
1.2642877e-06
-0.0006015503
4.4025545e-06
-0.0006056106
2.5576772e-06
-0.000601385
5.4320572e-05
-0.00065216069
-0.00055451389
1.7852644e-05
-0.0010853629
-2.5115762e-07
-0.0011485149
-3.6381582e-06
-0.0011121855
-1.0176126e-06
-0.0011207973
-1.2438228e-06
-0.0011134311
-9.5497321e-07
-0.0011168314
-1.1561841e-06
-0.0011158466
-1.127053e-06
-0.0011157943
-7.3484837e-07
-0.0011149489
3.3443495e-12
-0.0011141145
7.3485439e-07
-0.0011141145
1.1270563e-06
-0.0011149489
1.1561822e-06
-0.0011157943
9.5496668e-07
-0.0011158466
1.243815e-06
-0.0011168314
1.0176041e-06
-0.0011134311
3.6381514e-06
-0.0011207973
2.5115397e-07
-0.0011121855
-1.7852646e-05
-0.0011485149
-0.0010853629
8.9347111e-06
-0.0013940408
-3.2162583e-06
-0.0014375582
-3.5944481e-06
-0.0014129812
-1.7662447e-06
-0.0014229327
-1.9971001e-06
-0.0014141823
-1.658609e-06
-0.0014185201
-1.6164491e-06
-0.0014168352
-1.2642895e-06
-0.0014165307
-7.0398155e-07
-0.0014152309
2.7943333e-12
-0.0014141653
7.0398645e-07
-0.0014141653
1.264292e-06
-0.0014152309
1.6164478e-06
-0.0014165307
1.6586041e-06
-0.0014168352
1.9970945e-06
-0.0014185201
1.7662392e-06
-0.0014141823
3.5944433e-06
-0.0014229327
3.2162562e-06
-0.0014129812
-8.9347116e-06
-0.0014375582
-0.0013940408
8.6369038e-06
-0.0013576901
1.0345414e-06
-0.0013928024
1.2706125e-06
-0.0013751081
-5.8534419e-07
-0.0013804133
-7.4242622e-07
-0.001374037
-1.2853869e-06
-0.0013757175
-7.0964649e-07
-0.0013735047
-5.4118548e-07
-0.0013730415
-1.717053e-07
-0.0013718136
2.632902e-12
-0.0013710387
1.7170888e-07
-0.0013710387
5.4118513e-07
-0.0013718136
7.0964154e-07
-0.0013730415
1.2853781e-06
-0.0013735047
7.4241924e-07
-0.0013757175
5.8533807e-07
-0.001374037
-1.2706177e-06
-0.0013804133
-1.0345402e-06
-0.0013751081
-8.6368999e-06
-0.0013928024
-0.0013576901
3.931328e-06
-0.0011795204
-1.7129143e-06
-0.0012086289
-1.5038962e-06
-0.0011957894
-2.1446824e-06
-0.0012076144
-3.7013579e-06
-0.0011990563
-2.5251493e-06
-0.0012011465
-1.7004534e-06
-0.0011973373
-4.844423e-07
-0.0011974279
-2.3635539e-08
-0.0011965704
-6.1412704e-13
-0.001196572
2.3634031e-08
-0.001196572
4.8443979e-07
-0.0011965705
1.7004521e-06
-0.0011974279
2.5251495e-06
-0.0011973373
3.7013596e-06
-0.0012011465
2.1446856e-06
-0.0011990563
1.5038977e-06
-0.0012076144
1.7129177e-06
-0.0011957894
-3.9313233e-06
-0.0012086289
-0.0011795204
-3.4920755e-06
-0.00058010494
9.8128551e-07
-0.0005996414
4.9226124e-06
-0.00059102113
2.6858856e-06
-0.00059714275
3.8825739e-06
-0.0005930821
1.2393987e-06
-0.00059295664
1.4110389e-06
-0.00059049496
5.5236878e-07
-0.00058981935
5.9951422e-07
-0.00058952173
-4.2399787e-12
-0.00058984751
-5.995253e-07
-0.00058984752
-5.5238164e-07
-0.00058952173
-1.4110484e-06
-0.00058981936
-1.2394069e-06
-0.00059049496
-3.8825739e-06
-0.00059295663
-2.6858791e-06
-0.00059308209
-4.9226102e-06
-0.00059714273
-9.8127611e-07
-0.0005910211
3.4920869e-06
-0.00059964138
-0.00058010494
-7.4911551e-06
0.00059639777
-4.43441e-06
0.00056201926
-5.4895414e-06
0.00057308304
-3.8409643e-06
0.00056724812
-3.8320057e-06
0.00057113283
-1.0237946e-06
0.00056867447
-1.5883441e-06
0.00057110226
-7.9707901e-07
0.00057034221
-8.4053677e-07
0.00057171345
-4.9293309e-12
0.00057151557
8.4052888e-07
0.00057151557
7.9707583e-07
0.00057171345
1.5883496e-06
0.00057034221
1.0238057e-06
0.00057110227
3.832015e-06
0.00056867448
3.840973e-06
0.00057113284
5.4895463e-06
0.00056724814
4.4344079e-06
0.00057308306
7.4911518e-06
0.00056201928
0.00059639778
2.3998299e-05
0.00043463898
6.4969405e-06
0.00043672242
1.4616331e-05
0.00047276631
6.4687761e-06
0.00043459144
1.0355763e-05
0.00043136613
4.6461875e-06
0.00043335649
5.642677e-06
0.00043171581
2.0334436e-06
0.00043277598
1.3595734e-06
0.00043221152
-9.0026941e-12
0.00043261888
-1.3595915e-06
0.00043261888
-2.0334572e-06
0.00043221153
-5.6426802e-06
0.00043277598
-4.6461827e-06
0.00043171581
-1.0355751e-05
0.00043335649
-6.4687562e-06
0.00043136614
-1.4616307e-05
0.00043459144
-6.4969306e-06
0.00047276631
-2.3998299e-05
0.00043672242
0.00043463898
-2.2216397e-05
-0.00044930549
-1.3989332e-05
-0.00047477395
-1.9547261e-05
-0.00047137243
-1.0001182e-05
-0.00047609558
-1.2032635e-05
-0.00047171323
-4.8051628e-06
-0.00047577076
-5.0060309e-06
-0.00047270912
-9.4087779e-07
-0.00047511908
-8.6639534e-07
-0.00047368194
3.3112572e-12
-0.00047440999