/*--------------------------------*- C++ -*----------------------------------*\
  =========                 |
  \\      /  F ield         | OpenFOAM: The Open Source CFD Toolbox
   \\    /   O peration     | Website:  https://openfoam.org
    \\  /    A nd           | Version:  8
     \\/     M anipulation  |
\*---------------------------------------------------------------------------*/
FoamFile
{
    version     2.0;
    format      ascii;
    class       volVectorField;
    location    "1";
    object      U;
}
// * * * * * * * * * * * * * * * * * * * * * * * * * * * * * * * * * * * * * //

dimensions      [0 1 -1 0 0 0 0];

internalField   nonuniform List<vector> 
800
(
(-0.015597465 3.1923903 -0.030865912)
(0.00051117253 3.2029385 -0.031290977)
(-0.0012946088 3.2065723 -0.031240562)
(0.00010959281 3.2065209 -0.031247651)
(-0.0004490551 3.2065578 -0.031243058)
(8.8738556e-05 3.206773 -0.031245331)
(-0.00033121529 3.2065841 -0.031243222)
(-2.4685089e-05 3.2067894 -0.031244517)
(-0.00027389492 3.2066822 -0.03124366)
(6.2050351e-05 3.2067616 -0.031244184)
(-6.204953e-05 3.2067616 -0.031244184)
(0.00027389566 3.2066822 -0.03124366)
(2.4685255e-05 3.2067894 -0.031244517)
(0.00033121477 3.2065841 -0.031243222)
(-8.8739492e-05 3.206773 -0.031245331)
(0.00044905386 3.2065578 -0.031243058)
(-0.0001095938 3.2065209 -0.031247651)
(0.0012946083 3.2065723 -0.031240562)
(-0.00051117288 3.2029385 -0.031290977)
(0.015597465 3.1923903 -0.030865912)
(0.0034412513 -3.803304 0.0062307995)
(0.00095811419 -3.829285 0.006424241)
(-0.0010249582 -3.8264224 0.0063661424)
(0.00016114671 -3.8269447 0.006374972)
(-0.00042801629 -3.8264214 0.0063716591)
(0.00012209814 -3.8269032 0.0063738238)
(-0.00034979832 -3.8266237 0.00637296)
(3.8431879e-05 -3.8268574 0.0063734309)
(-0.00030134119 -3.8266831 0.0063729982)
(0.00011449386 -3.8267191 0.0063730377)
(-0.00011449305 -3.8267191 0.0063730377)
(0.00030134189 -3.8266831 0.0063729982)
(-3.8431765e-05 -3.8268574 0.0063734309)
(0.00034979771 -3.8266237 0.00637296)
(-0.00012209905 -3.8269032 0.0063738238)
(0.00042801512 -3.8264214 0.0063716591)
(-0.00016114773 -3.8269447 0.006374972)
(0.0010249577 -3.8264224 0.0063661424)
(-0.00095811464 -3.829285 0.006424241)
(-0.0034412516 -3.803304 0.0062307995)
(0.0017063024 4.3019545 0.0024133254)
(0.00015924683 4.3238151 0.0024595386)
(-0.00081456945 4.32539 0.0024519732)
(3.9836164e-05 4.3247907 0.0024485642)
(-0.00040321967 4.3251917 0.0024531526)
(-3.9952364e-05 4.3252456 0.0024513531)
(-0.00029978065 4.3250541 0.0024515672)
(-6.0318482e-05 4.325338 0.0024514037)
(-0.00019707083 4.3252493 0.002451494)
(4.4382726e-05 4.3254123 0.0024517123)
(-4.4382135e-05 4.3254123 0.0024517123)
(0.0001970713 4.3252493 0.002451494)
(6.0318564e-05 4.325338 0.0024514037)
(0.00029978024 4.3250541 0.0024515672)
(3.9951766e-05 4.3252456 0.0024513531)
(0.00040321904 4.3251917 0.0024531526)
(-3.9836755e-05 4.3247907 0.0024485641)
(0.00081456912 4.32539 0.0024519732)
(-0.00015924694 4.3238151 0.0024595386)
(-0.0017063025 4.3019545 0.0024133254)
(0.0013598545 -5.2447616 0.00026690472)
(7.3211365e-05 -5.2769346 0.00025087691)
(0.00017030403 -5.2750705 0.000253698)
(4.8781358e-05 -5.2758236 0.00025135537)
(-0.00017441414 -5.2750116 0.00025283246)
(6.1808175e-05 -5.2756716 0.00025171411)
(-0.00031503537 -5.2752048 0.00025143633)
(0.00018582812 -5.2754885 0.00025084487)
(-0.00027613684 -5.2751899 0.00025088888)
(0.00023774311 -5.2752309 0.00025092069)
(-0.00023774263 -5.2752309 0.00025092069)
(0.00027613706 -5.2751899 0.00025088889)
(-0.00018582835 -5.2754885 0.00025084488)
(0.00031503455 -5.2752048 0.00025143634)
(-6.180888e-05 -5.2756716 0.00025171411)
(0.00017441364 -5.2750116 0.00025283246)
(-4.8782091e-05 -5.2758236 0.00025135534)
(-0.00017030419 -5.2750705 0.00025369796)
(-7.3210931e-05 -5.2769346 0.00025087689)
(-0.0013598543 -5.2447616 0.00026690463)
(0.00068354758 5.9617921 -0.00032756629)
(7.5673117e-05 5.9949981 -0.00029816985)
(-0.00039852805 5.9951247 -0.00031015484)
(0.00011710853 5.9952132 -0.00030608545)
(-0.00040828361 5.9951493 -0.00030773514)
(-0.00020623846 5.9956442 -0.00030818903)
(-0.00017010459 5.9954152 -0.00030689816)
(-8.8213098e-05 5.9958112 -0.00030668269)
(9.7032034e-06 5.9956275 -0.00030599646)
(-1.5295364e-05 5.9957865 -0.0003059008)
(1.5295282e-05 5.9957865 -0.0003059008)
(-9.7034157e-06 5.9956275 -0.00030599646)
(8.8212932e-05 5.9958112 -0.0003066827)
(0.00017010454 5.9954152 -0.00030689818)
(0.00020623849 5.9956442 -0.00030818905)
(0.00040828394 5.9951493 -0.00030773516)
(-0.00011710838 5.9952132 -0.00030608547)
(0.00039852813 5.9951247 -0.00031015486)
(-7.5672611e-05 5.9949981 -0.00029816985)
(-0.0006835473 5.9617921 -0.00032756628)
(0.00025958937 -7.1650419 0.00025387737)
(-0.0006906745 -7.2084509 0.0002429878)
(0.00077095369 -7.2066262 0.00025251107)
(2.6691335e-05 -7.2084436 0.0002488969)
(0.00024515553 -7.2070867 0.00025058836)
(0.00034671997 -7.207951 0.00024809135)
(-0.00021413228 -7.207117 0.00024821773)
(0.00042745675 -7.2075987 0.00024645718)
(-0.000360559 -7.2072583 0.00024687035)
(0.00043375947 -7.2074526 0.00024670627)
(-0.00043376001 -7.2074526 0.00024670627)
(0.00036055808 -7.2072583 0.00024687035)
(-0.00042745743 -7.2075987 0.0002464572)
(0.00021413162 -7.207117 0.00024821773)
(-0.0003467204 -7.207951 0.00024809134)
(-0.00024515496 -7.2070867 0.00025058832)
(-2.6691156e-05 -7.2084436 0.00024889683)
(-0.00077095358 -7.2066262 0.00025251103)
(0.00069067545 -7.2084509 0.00024298775)
(-0.0002595888 -7.1650419 0.00025387732)
(-0.0008706759 8.3150402 -0.0007483143)
(-1.4348405e-05 8.3636225 -0.00077126223)
(-0.0004526167 8.3624371 -0.00076239096)
(-0.00023955974 8.363847 -0.00076892679)
(-0.00017044616 8.3627208 -0.00076480926)
(-0.00025200339 8.363733 -0.00076657315)
(0.00011614019 8.3630325 -0.00076434942)
(-0.00028064092 8.3636712 -0.00076484721)
(0.00017564874 8.3633087 -0.0007642256)
(-0.00026084521 8.363506 -0.00076449819)
(0.00026084468 8.363506 -0.00076449819)
(-0.00017564909 8.3633087 -0.0007642256)
(0.00028064087 8.3636712 -0.00076484722)
(-0.00011613946 8.3630325 -0.00076434942)
(0.00025200399 8.363733 -0.00076657315)
(0.00017044664 8.3627208 -0.00076480923)
(0.00023956029 8.363847 -0.00076892675)
(0.00045261667 8.3624371 -0.00076239091)
(1.4348207e-05 8.3636225 -0.00077126203)
(0.00087067581 8.3150402 -0.0007483142)
(0.0027853019 -9.6612861 0.00059473633)
(-0.00040401374 -9.7219525 0.00059817894)
(0.0010182205 -9.7193029 0.00061518239)
(0.00046662708 -9.7215869 0.00061201963)
(0.00015271506 -9.71984 0.00061909501)
(0.0008672428 -9.7213065 0.00061481647)
(-0.0003972253 -9.7202134 0.00061807941)
(0.00092705451 -9.7210556 0.00061500299)
(-0.00070979382 -9.7204746 0.0006164767)
(0.00083488526 -9.7207348 0.00061524075)
(-0.00083488612 -9.7207348 0.00061524075)
(0.00070979291 -9.7204746 0.00061647668)
(-0.00092705495 -9.7210556 0.00061500298)
(0.00039722537 -9.7202134 0.00061807937)
(-0.00086724247 -9.7213065 0.00061481642)
(-0.00015271409 -9.71984 0.000619095)
(-0.00046662608 -9.7215869 0.00061201956)
(-0.0010182193 -9.7193029 0.00061518251)
(0.000404014 -9.7219525 0.00059817974)
(-0.0027853025 -9.6612861 0.00059473657)
(-0.0019962094 11.377629 -0.00073611639)
(8.390883e-05 11.448999 -0.00075778094)
(-0.0012291215 11.443223 -0.00077600063)
(-0.00045982907 11.447655 -0.00077252366)
(-0.00035606128 11.4441 -0.00077762519)
(-0.00067932606 11.446739 -0.00077570867)
(0.00028127999 11.444683 -0.00077652736)
(-0.00069795556 11.446145 -0.00077546808)
(0.00061569006 11.445201 -0.0007756145)
(-0.00068847696 11.445689 -0.0007750868)
(0.00068847723 11.445689 -0.0007750868)
(-0.0006156894 11.445201 -0.00077561449)
(0.00069795623 11.446145 -0.00077546807)
(-0.00028127907 11.444683 -0.00077652733)
(0.00067932659 11.446739 -0.00077570862)
(0.00035606113 11.4441 -0.00077762515)
(0.0004598291 11.447655 -0.00077252355)
(0.0012291209 11.443223 -0.00077600067)
(-8.3909164e-05 11.448999 -0.0007577814)
(0.0019962098 11.377629 -0.00073611645)
(-0.0012804319 -13.397036 -0.020180112)
(0.0029943914 -13.484365 -0.020257067)
(-0.0015606652 -13.477073 -0.020305238)
(0.0026977677 -13.483017 -0.020294589)
(-0.0017846278 -13.478157 -0.020297802)
(0.0024802074 -13.481904 -0.020296327)
(-0.0019097115 -13.479007 -0.020297404)
(0.0023304825 -13.481111 -0.0202968)
(-0.0020145278 -13.479774 -0.020297263)
(0.002168929 -13.480462 -0.020297131)
(-0.0021689286 -13.480462 -0.020297131)
(0.0020145282 -13.479774 -0.020297263)
(-0.0023304824 -13.481111 -0.0202968)
(0.0019097114 -13.479007 -0.020297404)
(-0.0024802077 -13.481904 -0.020296327)
(0.0017846276 -13.478157 -0.020297802)
(-0.0026977679 -13.483017 -0.020294589)
(0.0015606652 -13.477073 -0.020305238)
(-0.0029943912 -13.484365 -0.020257067)
(0.0012804318 -13.397036 -0.020180112)
(-0.016211285 3.2374691 0.0059928508)
(0.00047844505 3.2476577 0.0058384306)
(-0.0012733038 3.2515865 0.0059318698)
(0.0001122321 3.2515358 0.0059236696)
(-0.00045340191 3.2515788 0.0059293867)
(9.130344e-05 3.2517933 0.0059287168)
(-0.00033459716 3.2516052 0.0059297579)
(-2.2354367e-05 3.2518113 0.0059298072)
(-0.00027683987 3.2517037 0.0059298754)
(6.4565387e-05 3.2517835 0.005929852)
(-6.4564566e-05 3.2517835 0.005929852)
(0.00027684061 3.2517037 0.0059298754)
(2.2354532e-05 3.2518113 0.0059298072)
(0.00033459664 3.2516052 0.0059297579)
(-9.1304376e-05 3.2517933 0.0059287168)
(0.00045340066 3.2515788 0.0059293867)
(-0.0001122331 3.2515358 0.0059236696)
(0.0012733032 3.2515865 0.0059318698)
(-0.00047844544 3.2476577 0.0058384306)
(0.016211285 3.2374691 0.0059928506)
(0.0036269058 -3.9040551 0.0063499341)
(0.0010175487 -3.9313689 0.0065073821)
(-0.0010575935 -3.9282889 0.006461366)
(0.00016868015 -3.9288131 0.0064690699)
(-0.00043488263 -3.9282841 0.0064666593)
(0.00012586695 -3.928774 0.0064685728)
(-0.00035419503 -3.9284899 0.0064679099)
(4.13908e-05 -3.9287278 0.0064682798)
(-0.00030505 -3.9285507 0.0064678945)
(0.00011768294 -3.9285881 0.0064679093)
(-0.00011768213 -3.9285881 0.0064679093)
(0.0003050507 -3.9285507 0.0064678945)
(-4.1390686e-05 -3.9287278 0.0064682798)
(0.00035419442 -3.9284899 0.0064679099)
(-0.00012586785 -3.928774 0.0064685728)
(0.00043488145 -3.9282841 0.0064666593)
(-0.00016868117 -3.9288131 0.0064690699)
(0.0010575929 -3.9282889 0.006461366)
(-0.0010175492 -3.9313689 0.0065073821)
(-0.0036269062 -3.9040551 0.0063499341)
(0.0017549681 4.3998166 0.0027148382)
(0.00017233471 4.4224354 0.0027574762)
(-0.00083229608 4.4240538 0.0027493652)
(4.1191822e-05 4.4234193 0.0027459733)
(-0.00040814297 4.4238408 0.0027505274)
(-3.9799152e-05 4.4238927 0.0027486661)
(-0.00030340047 4.4237017 0.0027489059)
(-5.8975753e-05 4.4239885 0.0027487296)
(-0.00019935255 4.4238985 0.0027488524)
(4.63102e-05 4.4240629 0.0027490691)
(-4.6309607e-05 4.4240629 0.0027490691)
(0.00019935301 4.4238985 0.0027488524)
(5.8975836e-05 4.4239885 0.0027487296)
(0.00030340006 4.4237017 0.0027489059)
(3.9798554e-05 4.4238927 0.0027486661)
(0.00040814233 4.4238408 0.0027505274)
(-4.1192418e-05 4.4234193 0.0027459733)
(0.00083229575 4.4240538 0.0027493652)
(-0.00017233483 4.4224354 0.0027574762)
(-0.0017549682 4.3998166 0.0027148382)
(0.0013776632 -5.3662426 -4.1855309e-05)
(6.2852687e-05 -5.3995702 -6.7601836e-05)
(0.00017452837 -5.3976167 -6.42579e-05)
(5.1900341e-05 -5.3983994 -6.672757e-05)
(-0.00017645745 -5.3975673 -6.512544e-05)
(6.5103697e-05 -5.3982378 -6.6272989e-05)
(-0.00031911599 -5.3977617 -6.6495208e-05)
(0.00018974372 -5.3980507 -6.7129867e-05)
(-0.00028026807 -5.3977479 -6.7066443e-05)
(0.00024205777 -5.397791 -6.7049374e-05)
(-0.00024205729 -5.397791 -6.7049371e-05)
(0.0002802683 -5.3977479 -6.7066435e-05)
(-0.00018974395 -5.3980507 -6.7129854e-05)
(0.00031911516 -5.3977617 -6.6495192e-05)
(-6.510441e-05 -5.3982378 -6.6272985e-05)
(0.00017645694 -5.3975673 -6.5125443e-05)
(-5.1901093e-05 -5.3983994 -6.6727602e-05)
(-0.00017452852 -5.3976167 -6.4257945e-05)
(-6.2852284e-05 -5.3995702 -6.7601862e-05)
(-0.001377663 -5.3662426 -4.185542e-05)
(0.0007007473 6.0977687 6.7875613e-07)
(8.0128164e-05 6.1321375 3.1656304e-05)
(-0.00041033134 6.1322387 1.9358003e-05)
(0.00011616413 6.1323282 2.3493026e-05)
(-0.0004145873 6.1322633 2.1807094e-05)
(-0.00020715437 6.1327609 2.1331966e-05)
(-0.00017207513 6.13253 2.2631002e-05)
(-8.8399559e-05 6.1329299 2.2831003e-05)
(8.9213735e-06 6.132744 2.3515004e-05)
(-1.5115186e-05 6.1329046 2.3602251e-05)
(1.5115101e-05 6.1329046 2.3602249e-05)
(-8.9215865e-06 6.132744 2.3514999e-05)
(8.8399389e-05 6.1329299 2.2830995e-05)
(0.00017207508 6.13253 2.2630993e-05)
(0.00020715439 6.1327609 2.1331947e-05)
(0.00041458763 6.1322633 2.1807072e-05)
(-0.00011616398 6.1323282 2.3493007e-05)
(0.00041033143 6.1322387 1.9357991e-05)
(-8.0127651e-05 6.1321375 3.1656289e-05)
(-0.00070074702 6.0977687 6.7877984e-07)
(0.00027363593 -7.3302477 -5.4287737e-05)
(-0.00069875391 -7.3750871 -7.3109555e-05)
(0.00078539258 -7.3732269 -6.3216194e-05)
(2.8450272e-05 -7.375083 -6.7008103e-05)
(0.0002462932 -7.3736943 -6.5227164e-05)
(0.00035150134 -7.3745798 -6.7723867e-05)
(-0.00021856441 -7.3737294 -6.761547e-05)
(0.00043401184 -7.3742224 -6.9317929e-05)
(-0.00036652939 -7.373875 -6.8910502e-05)
(0.00044078812 -7.3740728 -6.9071428e-05)
(-0.00044078866 -7.3740728 -6.9071426e-05)
(0.00036652847 -7.373875 -6.8910505e-05)
(-0.00043401253 -7.3742224 -6.9317912e-05)
(0.00021856373 -7.3737294 -6.7615476e-05)
(-0.00035150178 -7.3745798 -6.7723888e-05)
(-0.00024629265 -7.3736943 -6.5227202e-05)
(-2.8450097e-05 -7.375083 -6.7008178e-05)
(-0.00078539246 -7.3732269 -6.3216236e-05)
(0.00069875485 -7.3750871 -7.3109604e-05)
(-0.00027363536 -7.3302477 -5.4287803e-05)
(-0.00089612987 8.5030463 -0.00044541717)
(-2.18192e-05 8.5531447 -0.00046228776)
(-0.0004594042 8.5519698 -0.00045357799)
(-0.00024538755 8.553391 -0.00046004504)
(-0.00017359114 8.5522544 -0.00045597716)
(-0.00025649138 8.5532767 -0.00045774394)
(0.00011611115 8.5525692 -0.000455523)
(-0.0002849203 8.5532147 -0.00045604888)
(0.00017752784 8.5528479 -0.00045541597)
(-0.00026433488 8.5530477 -0.00045569293)
(0.00026433435 8.5530477 -0.00045569293)
(-0.00017752819 8.5528479 -0.00045541597)
(0.00028492024 8.5532147 -0.00045604889)
(-0.00011611043 8.5525692 -0.00045552301)
(0.000256492 8.5532767 -0.00045774394)
(0.00017359165 8.5522544 -0.00045597713)
(0.00024538811 8.553391 -0.000460045)
(0.00045940425 8.5519698 -0.00045357794)
(2.1819028e-05 8.5531447 -0.00046228756)
(0.00089612974 8.5030463 -0.00044541707)
(0.0028348986 -9.8910257 0.00028658053)
(-0.00040982754 -9.9537349 0.00027580884)
(0.0010405567 -9.9509821 0.00029231477)
(0.00047649028 -9.9533317 0.00028936274)
(0.00015346569 -9.9515368 0.00029637827)
(0.00088014587 -9.9530398 0.00029208031)
(-0.00040563236 -9.9519206 0.00029539221)
(0.00094102933 -9.9527809 0.00029223219)
(-0.00072207198 -9.9521885 0.00029374972)
(0.0008485421 -9.9524537 0.00029247812)
(-0.00084854296 -9.9524537 0.00029247812)
(0.00072207106 -9.9521885 0.00029374972)
(-0.00094102979 -9.9527809 0.00029223217)
(0.00040563241 -9.9519206 0.00029539217)
(-0.00088014552 -9.9530398 0.00029208025)
(-0.00015346472 -9.9515368 0.00029637826)
(-0.00047648924 -9.9533317 0.00028936267)
(-0.0010405551 -9.9509821 0.00029231489)
(0.00040982786 -9.9537349 0.00027580965)
(-0.0028348995 -9.8910257 0.00028658077)
(-0.0020447954 11.637902 -0.00025561621)
(7.8663787e-05 11.711231 -0.00025974643)
(-0.0012527142 11.705411 -0.0002775029)
(-0.00046635326 11.709863 -0.00027375363)
(-0.00036120421 11.706296 -0.00027935149)
(-0.00068929625 11.708935 -0.00027687948)
(0.00028530192 11.706881 -0.00027826328)
(-0.0007091107 11.708343 -0.00027677424)
(0.00062416575 11.7074 -0.00027724736)
(-0.00069895343 11.707889 -0.00027657002)
(0.0006989537 11.707889 -0.00027657002)
(-0.00062416508 11.7074 -0.00027724735)
(0.00070911138 11.708343 -0.00027677423)
(-0.00028530099 11.706881 -0.00027826325)
(0.00068929679 11.708935 -0.00027687942)
(0.00036120409 11.706296 -0.00027935145)
(0.00046635326 11.709863 -0.00027375351)
(0.0012527133 11.705411 -0.00027750293)
(-7.8664134e-05 11.711231 -0.00025974689)
(0.002044796 11.637902 -0.00025561627)
(-0.0016570675 -13.715618 0.021781817)
(0.0031203619 -13.805815 0.022085764)
(-0.0016109088 -13.798392 0.022023336)
(0.0027470422 -13.804434 0.022045486)
(-0.0018161662 -13.799496 0.022033165)
(0.0025209974 -13.803303 0.022041611)
(-0.0019411037 -13.800359 0.022035197)
(0.0023675563 -13.802496 0.022039619)
(-0.0020471641 -13.801138 0.022036664)
(0.0022034086 -13.801837 0.022038023)
(-0.0022034082 -13.801837 0.022038023)
(0.0020471644 -13.801138 0.022036664)
(-0.0023675563 -13.802496 0.022039619)
(0.0019411036 -13.800359 0.022035197)
(-0.0025209977 -13.803303 0.022041611)
(0.001816166 -13.799496 0.022033165)
(-0.0027470424 -13.804434 0.022045486)
(0.0016109088 -13.798392 0.022023336)
(-0.0031203618 -13.805815 0.022085764)
(0.0016570674 -13.715618 0.021781817)
(-0.016211285 3.2374691 -0.0059928505)
(0.00047844505 3.2476577 -0.0058384304)
(-0.0012733038 3.2515865 -0.0059318695)
(0.0001122321 3.2515358 -0.0059236694)
(-0.00045340191 3.2515788 -0.0059293864)
(9.1303442e-05 3.2517933 -0.0059287166)
(-0.00033459716 3.2516052 -0.0059297576)
(-2.2354375e-05 3.2518113 -0.0059298069)
(-0.00027683988 3.2517037 -0.0059298752)
(6.4565383e-05 3.2517835 -0.0059298518)
(-6.4564561e-05 3.2517835 -0.0059298518)
(0.00027684061 3.2517037 -0.0059298752)
(2.235454e-05 3.2518113 -0.0059298069)
(0.00033459664 3.2516052 -0.0059297576)
(-9.1304377e-05 3.2517933 -0.0059287166)
(0.00045340066 3.2515788 -0.0059293864)
(-0.0001122331 3.2515358 -0.0059236694)
(0.0012733032 3.2515865 -0.0059318695)
(-0.00047844547 3.2476577 -0.0058384304)
(0.016211285 3.2374691 -0.0059928506)
(0.0036269058 -3.9040551 -0.0063499345)
(0.0010175487 -3.9313689 -0.0065073827)
(-0.0010575935 -3.9282889 -0.0064613665)
(0.00016868016 -3.9288131 -0.0064690704)
(-0.00043488263 -3.9282841 -0.0064666598)
(0.00012586695 -3.928774 -0.0064685733)
(-0.00035419503 -3.9284899 -0.0064679104)
(4.1390792e-05 -3.9287278 -0.0064682804)
(-0.00030505001 -3.9285507 -0.006467895)
(0.00011768294 -3.9285881 -0.0064679099)
(-0.00011768213 -3.9285881 -0.0064679099)
(0.00030505071 -3.9285507 -0.006467895)
(-4.1390677e-05 -3.9287278 -0.0064682804)
(0.00035419443 -3.9284899 -0.0064679104)
(-0.00012586785 -3.928774 -0.0064685733)
(0.00043488146 -3.9282841 -0.0064666598)
(-0.00016868117 -3.9288131 -0.0064690704)
(0.0010575929 -3.9282889 -0.0064613665)
(-0.0010175491 -3.9313689 -0.0065073826)
(-0.0036269061 -3.9040551 -0.0063499343)
(0.0017549681 4.3998166 -0.002714838)
(0.0001723347 4.4224354 -0.0027574761)
(-0.00083229608 4.4240538 -0.002749365)
(4.1191834e-05 4.4234193 -0.0027459731)
(-0.00040814297 4.4238408 -0.0027505272)
(-3.9799152e-05 4.4238927 -0.0027486659)
(-0.00030340047 4.4237017 -0.0027489057)
(-5.8975762e-05 4.4239885 -0.0027487294)
(-0.00019935255 4.4238985 -0.0027488523)
(4.6310196e-05 4.4240629 -0.002749069)
(-4.6309603e-05 4.4240629 -0.002749069)
(0.00019935302 4.4238985 -0.0027488523)
(5.8975846e-05 4.4239885 -0.0027487294)
(0.00030340007 4.4237017 -0.0027489057)
(3.9798555e-05 4.4238927 -0.0027486659)
(0.00040814234 4.4238408 -0.0027505272)
(-4.1192428e-05 4.4234193 -0.0027459731)
(0.00083229574 4.4240538 -0.002749365)
(-0.00017233481 4.4224354 -0.0027574761)
(-0.0017549681 4.3998166 -0.0027148379)
(0.0013776632 -5.3662426 4.1855539e-05)
(6.2852705e-05 -5.3995702 6.7602072e-05)
(0.00017452837 -5.3976167 6.4258173e-05)
(5.1900346e-05 -5.3983994 6.6727874e-05)
(-0.00017645745 -5.3975673 6.5125721e-05)
(6.5103691e-05 -5.3982378 6.6273255e-05)
(-0.00031911599 -5.3977617 6.6495455e-05)
(0.00018974371 -5.3980507 6.7130078e-05)
(-0.00028026808 -5.3977479 6.7066631e-05)
(0.00024205777 -5.397791 6.7049545e-05)
(-0.00024205729 -5.397791 6.7049545e-05)
(0.00028026831 -5.3977479 6.7066629e-05)
(-0.00018974394 -5.3980507 6.7130073e-05)
(0.00031911517 -5.3977617 6.6495448e-05)
(-6.5104405e-05 -5.3982378 6.6273252e-05)
(0.00017645694 -5.3975673 6.5125721e-05)
(-5.1901097e-05 -5.3983994 6.6727888e-05)
(-0.00017452852 -5.3976167 6.425819e-05)
(-6.2852305e-05 -5.3995702 6.7602096e-05)
(-0.0013776631 -5.3662426 4.1855608e-05)
(0.0007007473 6.0977687 -6.7928232e-07)
(8.012817e-05 6.1321375 -3.1656785e-05)
(-0.00041033135 6.1322387 -1.9358462e-05)
(0.00011616414 6.1323282 -2.3493472e-05)
(-0.0004145873 6.1322633 -2.1807547e-05)
(-0.00020715437 6.1327609 -2.1332416e-05)
(-0.00017207514 6.13253 -2.2631469e-05)
(-8.839956e-05 6.1329299 -2.2831484e-05)
(8.9213743e-06 6.132744 -2.3515488e-05)
(-1.5115185e-05 6.1329046 -2.3602733e-05)
(1.5115101e-05 6.1329046 -2.3602732e-05)
(-8.921588e-06 6.132744 -2.3515483e-05)
(8.8399392e-05 6.1329299 -2.2831475e-05)
(0.00017207509 6.13253 -2.2631456e-05)
(0.0002071544 6.1327609 -2.1332397e-05)
(0.00041458763 6.1322633 -2.1807537e-05)
(-0.00011616399 6.1323282 -2.3493468e-05)
(0.00041033143 6.1322387 -1.935848e-05)
(-8.0127641e-05 6.1321375 -3.1656804e-05)
(-0.00070074701 6.0977687 -6.7928854e-07)
(0.00027363595 -7.3302477 5.4287337e-05)
(-0.00069875391 -7.3750871 7.3109343e-05)
(0.00078539256 -7.3732269 6.3215833e-05)
(2.8450274e-05 -7.375083 6.7007737e-05)
(0.00024629319 -7.3736943 6.5226769e-05)
(0.00035150134 -7.3745798 6.7723461e-05)
(-0.00021856442 -7.3737294 6.761502e-05)
(0.00043401185 -7.3742224 6.9317466e-05)
(-0.00036652939 -7.373875 6.8910059e-05)
(0.00044078812 -7.3740728 6.9070999e-05)
(-0.00044078866 -7.3740728 6.9070994e-05)
(0.00036652846 -7.373875 6.8910062e-05)
(-0.00043401253 -7.3742224 6.9317447e-05)
(0.00021856374 -7.3737294 6.761502e-05)
(-0.00035150177 -7.3745798 6.7723472e-05)
(-0.00024629265 -7.3736943 6.5226803e-05)
(-2.8450092e-05 -7.375083 6.70078e-05)
(-0.00078539245 -7.3732269 6.3215876e-05)
(0.00069875484 -7.3750871 7.3109381e-05)
(-0.00027363538 -7.3302477 5.4287389e-05)
(-0.00089612988 8.5030463 0.00044541663)
(-2.1819196e-05 8.5531447 0.00046228715)
(-0.00045940419 8.5519698 0.00045357752)
(-0.00024538755 8.553391 0.00046004456)
(-0.00017359113 8.5522544 0.00045597674)
(-0.00025649138 8.5532767 0.00045774356)
(0.00011611115 8.5525692 0.00045552266)
(-0.00028492028 8.5532147 0.00045604857)
(0.00017752784 8.5528479 0.00045541568)
(-0.00026433488 8.5530477 0.00045569264)
(0.00026433435 8.5530477 0.00045569264)
(-0.0001775282 8.5528479 0.00045541568)
(0.00028492024 8.5532147 0.00045604857)
(-0.00011611043 8.5525692 0.00045552266)
(0.00025649199 8.5532767 0.00045774356)
(0.00017359164 8.5522544 0.00045597672)
(0.0002453881 8.553391 0.00046004453)
(0.00045940424 8.5519698 0.00045357748)
(2.1819018e-05 8.5531447 0.00046228698)
(0.00089612974 8.5030463 0.00044541652)
(0.0028348987 -9.8910257 -0.00028658058)
(-0.00040982753 -9.9537349 -0.00027580848)
(0.0010405567 -9.9509821 -0.00029231484)
(0.00047649027 -9.9533317 -0.00028936278)
(0.00015346569 -9.9515368 -0.00029637844)
(0.00088014588 -9.9530398 -0.00029208041)
(-0.00040563236 -9.9519206 -0.00029539233)
(0.00094102933 -9.9527809 -0.00029223232)
(-0.00072207198 -9.9521885 -0.00029374986)
(0.0008485421 -9.9524537 -0.00029247825)
(-0.00084854296 -9.9524537 -0.00029247824)
(0.00072207106 -9.9521885 -0.00029374985)
(-0.00094102979 -9.9527809 -0.00029223231)
(0.00040563242 -9.9519206 -0.0002953923)
(-0.00088014553 -9.9530398 -0.00029208037)
(-0.00015346473 -9.9515368 -0.00029637843)
(-0.00047648923 -9.9533317 -0.00028936272)
(-0.0010405551 -9.9509821 -0.00029231495)
(0.00040982785 -9.9537349 -0.00027580933)
(-0.0028348995 -9.8910257 -0.00028658082)
(-0.0020447954 11.637902 0.00025561581)
(7.8663788e-05 11.711231 0.00025974549)
(-0.0012527142 11.705411 0.0002775026)
(-0.00046635326 11.709863 0.00027375323)
(-0.0003612042 11.706296 0.00027935125)
(-0.00068929625 11.708935 0.00027687921)
(0.00028530194 11.706881 0.00027826307)
(-0.00070911069 11.708343 0.00027677407)
(0.00062416575 11.7074 0.00027724721)
(-0.00069895343 11.707889 0.00027656987)
(0.0006989537 11.707889 0.00027656987)
(-0.00062416509 11.7074 0.0002772472)
(0.00070911138 11.708343 0.00027677406)
(-0.000285301 11.706881 0.00027826304)
(0.00068929678 11.708935 0.00027687917)
(0.00036120408 11.706296 0.00027935122)
(0.00046635325 11.709863 0.00027375313)
(0.0012527133 11.705411 0.00027750264)
(-7.8664135e-05 11.711231 0.00025974603)
(0.002044796 11.637902 0.00025561589)
(-0.0016570675 -13.715618 -0.021781817)
(0.0031203619 -13.805815 -0.022085764)
(-0.0016109088 -13.798392 -0.022023336)
(0.0027470422 -13.804434 -0.022045486)
(-0.0018161662 -13.799496 -0.022033165)
(0.0025209974 -13.803303 -0.022041611)
(-0.0019411037 -13.800359 -0.022035198)
(0.0023675563 -13.802496 -0.022039619)
(-0.0020471641 -13.801138 -0.022036664)
(0.0022034086 -13.801837 -0.022038023)
(-0.0022034082 -13.801837 -0.022038023)
(0.0020471644 -13.801138 -0.022036664)
(-0.0023675563 -13.802496 -0.022039619)
(0.0019411036 -13.800359 -0.022035198)
(-0.0025209977 -13.803303 -0.022041611)
(0.001816166 -13.799496 -0.022033165)
(-0.0027470424 -13.804434 -0.022045486)
(0.0016109088 -13.798392 -0.022023336)
(-0.0031203618 -13.805815 -0.022085764)
(0.0016570674 -13.715618 -0.021781817)
(-0.015597465 3.1923903 0.030865912)
(0.00051117251 3.2029385 0.031290977)
(-0.0012946088 3.2065723 0.031240562)
(0.00010959282 3.2065209 0.031247651)
(-0.0004490551 3.2065578 0.031243058)
(8.873856e-05 3.206773 0.031245331)
(-0.0003312153 3.2065841 0.031243222)
(-2.4685111e-05 3.2067894 0.031244517)
(-0.00027389494 3.2066822 0.03124366)
(6.205034e-05 3.2067616 0.031244184)
(-6.2049518e-05 3.2067616 0.031244184)
(0.00027389568 3.2066822 0.03124366)
(2.4685275e-05 3.2067894 0.031244517)
(0.00033121477 3.2065841 0.031243222)
(-8.8739486e-05 3.206773 0.031245331)
(0.00044905386 3.2065578 0.031243059)
(-0.00010959381 3.2065209 0.031247651)
(0.0012946082 3.2065723 0.031240562)
(-0.00051117295 3.2029385 0.031290977)
(0.015597465 3.1923903 0.030865912)
(0.0034412512 -3.803304 -0.0062307996)
(0.00095811415 -3.829285 -0.0064242412)
(-0.0010249582 -3.8264224 -0.0063661425)
(0.00016114672 -3.8269447 -0.0063749721)
(-0.00042801629 -3.8264214 -0.0063716593)
(0.00012209814 -3.8269032 -0.006373824)
(-0.00034979832 -3.8266237 -0.0063729601)
(3.8431858e-05 -3.8268574 -0.0063734311)
(-0.00030134121 -3.8266831 -0.0063729984)
(0.00011449385 -3.8267191 -0.0063730379)
(-0.00011449304 -3.8267191 -0.0063730379)
(0.00030134191 -3.8266831 -0.0063729984)
(-3.8431744e-05 -3.8268574 -0.0063734311)
(0.00034979772 -3.8266237 -0.0063729601)
(-0.00012209904 -3.8269032 -0.006373824)
(0.00042801512 -3.8264214 -0.0063716593)
(-0.00016114773 -3.8269447 -0.0063749721)
(0.0010249576 -3.8264224 -0.0063661425)
(-0.00095811456 -3.829285 -0.0064242412)
(-0.0034412515 -3.803304 -0.0062307996)
(0.0017063024 4.3019545 -0.0024133253)
(0.0001592468 4.3238151 -0.0024595386)
(-0.00081456941 4.32539 -0.0024519731)
(3.9836181e-05 4.3247907 -0.002448564)
(-0.00040321967 4.3251917 -0.0024531525)
(-3.9952365e-05 4.3252456 -0.002451353)
(-0.00029978066 4.3250541 -0.002451567)
(-6.0318502e-05 4.325338 -0.0024514036)
(-0.00019707085 4.3252493 -0.0024514939)
(4.4382718e-05 4.3254123 -0.0024517122)
(-4.4382126e-05 4.3254123 -0.0024517122)
(0.00019707132 4.3252493 -0.0024514939)
(6.0318585e-05 4.325338 -0.0024514036)
(0.00029978026 4.3250541 -0.002451567)
(3.995177e-05 4.3252456 -0.002451353)
(0.00040321904 4.3251917 -0.0024531525)
(-3.983677e-05 4.3247907 -0.002448564)
(0.00081456908 4.32539 -0.0024519731)
(-0.00015924689 4.3238151 -0.0024595385)
(-0.0017063024 4.3019545 -0.0024133252)
(0.0013598545 -5.2447616 -0.00026690446)
(7.3211371e-05 -5.2769346 -0.0002508767)
(0.00017030406 -5.2750705 -0.00025369776)
(4.8781361e-05 -5.2758236 -0.00025135512)
(-0.00017441415 -5.2750116 -0.00025283222)
(6.1808163e-05 -5.2756716 -0.00025171387)
(-0.00031503539 -5.2752048 -0.0002514361)
(0.0001858281 -5.2754885 -0.00025084466)
(-0.00027613685 -5.2751899 -0.00025088868)
(0.0002377431 -5.2752309 -0.0002509205)
(-0.00023774262 -5.2752309 -0.0002509205)
(0.00027613708 -5.2751899 -0.00025088868)
(-0.00018582832 -5.2754885 -0.00025084467)
(0.00031503456 -5.2752048 -0.00025143611)
(-6.1808872e-05 -5.2756716 -0.00025171388)
(0.00017441365 -5.2750116 -0.00025283222)
(-4.8782102e-05 -5.2758236 -0.0002513551)
(-0.00017030421 -5.2750705 -0.00025369774)
(-7.3210938e-05 -5.2769346 -0.00025087669)
(-0.0013598543 -5.2447616 -0.00026690438)
(0.0006835476 5.9617921 0.00032756607)
(7.5673148e-05 5.9949981 0.00029816967)
(-0.00039852804 5.9951247 0.00031015468)
(0.00011710853 5.9952132 0.00030608529)
(-0.00040828361 5.9951493 0.00030773498)
(-0.00020623846 5.9956442 0.00030818889)
(-0.0001701046 5.9954152 0.00030689801)
(-8.8213104e-05 5.9958112 0.00030668252)
(9.703202e-06 5.9956275 0.00030599629)
(-1.5295364e-05 5.9957865 0.00030590063)
(1.5295282e-05 5.9957865 0.00030590063)
(-9.7034136e-06 5.9956275 0.0003059963)
(8.8212939e-05 5.9958112 0.00030668253)
(0.00017010455 5.9954152 0.00030689802)
(0.00020623849 5.9956442 0.00030818889)
(0.00040828393 5.9951493 0.00030773499)
(-0.00011710839 5.9952132 0.0003060853)
(0.00039852811 5.9951247 0.00031015469)
(-7.5672626e-05 5.9949981 0.00029816967)
(-0.0006835473 5.9617921 0.00032756606)
(0.00025958945 -7.1650419 -0.00025387751)
(-0.00069067449 -7.2084509 -0.00024298781)
(0.00077095362 -7.2066262 -0.0002525112)
(2.6691325e-05 -7.2084436 -0.00024889703)
(0.00024515552 -7.2070867 -0.00025058849)
(0.00034671995 -7.207951 -0.0002480915)
(-0.0002141323 -7.207117 -0.0002482179)
(0.00042745675 -7.2075987 -0.00024645735)
(-0.00036055899 -7.2072583 -0.00024687051)
(0.00043375948 -7.2074526 -0.00024670642)
(-0.00043376002 -7.2074526 -0.00024670643)
(0.00036055806 -7.2072583 -0.00024687051)
(-0.00042745744 -7.2075987 -0.00024645737)
(0.00021413163 -7.207117 -0.00024821789)
(-0.00034672038 -7.207951 -0.00024809149)
(-0.00024515494 -7.2070867 -0.00025058846)
(-2.6691141e-05 -7.2084436 -0.00024889697)
(-0.00077095352 -7.2066262 -0.00025251115)
(0.00069067543 -7.2084509 -0.00024298778)
(-0.00025958887 -7.1650419 -0.00025387745)
(-0.00087067593 8.3150402 0.00074831406)
(-1.434838e-05 8.3636225 0.00077126193)
(-0.00045261665 8.3624371 0.00076239075)
(-0.00023955972 8.363847 0.00076892658)
(-0.00017044612 8.3627208 0.00076480907)