/*--------------------------------*- C++ -*----------------------------------*\
  =========                 |
  \\      /  F ield         | OpenFOAM: The Open Source CFD Toolbox
   \\    /   O peration     | Website:  https://openfoam.org
    \\  /    A nd           | Version:  8
     \\/     M anipulation  |
\*---------------------------------------------------------------------------*/
FoamFile
{
    version     2.0;
    format      ascii;
    class       volScalarField;
    location    "19.5000376192658642";
    object      alphat;
}
// * * * * * * * * * * * * * * * * * * * * * * * * * * * * * * * * * * * * * //

dimensions      [1 -1 -1 0 0 0 0];

internalField   nonuniform List<scalar> 
6800
(
0.0448844
0.151057
0.156967
0.146539
0.113433
0.0863624
0.0724596
0.0620884
0.0493934
0.0504593
0.0452492
0.125756
0.112568
0.0831367
0.0811484
0.0796171
0.0701419
0.0603436
0.0500606
0.0333597
0.0431556
0.0820443
0.0788065
0.0838467
0.0885245
0.0880848
0.0725853
0.0455656
0.0253622
0.0189379
0.0361332
0.0725749
0.0754057
0.0940404
0.0985135
0.0664306
0.0323782
0.0222854
0.0181109
0.016325
0.0377194
0.0665085
0.0800857
0.105171
0.0775828
0.0401741
0.025151
0.0197395
0.0174596
0.0158195
0.0384223
0.073287
0.0912621
0.114159
0.0570816
0.0316633
0.0223313
0.01901
0.0158275
0.014117
0.0396754
0.0758462
0.114756
0.0832852
0.0358455
0.021001
0.0182133
0.0161393
0.0144896
0.0138407
0.0395065
0.087783
0.124242
0.058928
0.0286317
0.0233912
0.0201968
0.0170407
0.0143872
0.0134917
0.0391521
0.104114
0.109879
0.0434405
0.025781
0.0203415
0.0161527
0.0141124
0.0131223
0.012904
0.0388535
0.118217
0.098498
0.0367413
0.0234779
0.0202469
0.0176142
0.0150585
0.0134413
0.0129236
0.044496
0.378547
0.624809
0.746485
0.809044
0.83874
0.855494
0.869203
0.883166
0.898186
0.0439979
0.370401
0.610327
0.728039
0.787482
0.812975
0.82561
0.834579
0.84337
0.85352
0.0431545
0.353992
0.579922
0.691964
0.743468
0.761681
0.766047
0.765663
0.765478
0.768844
0.0419323
0.330849
0.53764
0.638987
0.67861
0.685806
0.678356
0.664716
0.650628
0.643185
0.0403419
0.303043
0.485492
0.569842
0.593895
0.587133
0.565445
0.537596
0.507684
0.47831
0.0386717
0.27715
0.430646
0.487917
0.488471
0.462499
0.429253
0.399424
0.374409
0.323812
0.0373406
0.261945
0.370733
0.384292
0.361318
0.32762
0.304351
0.283501
0.271877
0.259326
0.0366275
0.243418
0.289926
0.277833
0.258391
0.235672
0.228853
0.232405
0.226686
0.178731
0.037996
0.216163
0.224889
0.21484
0.19458
0.204799
0.197555
0.167842
0.138796
0.0764029
0.0391025
0.192599
0.179345
0.182872
0.173766
0.155015
0.113556
0.0814596
0.061537
0.0472966
0.920772
0.950473
0.977959
1.00392
1.02835
1.05127
1.07271
1.09276
1.11153
1.12894
1.14483
1.15903
1.1715
1.18248
1.19198
1.20016
1.20676
1.21187
1.21565
1.21857
1.21979
1.2198
1.2186
1.21626
1.2129
1.20865
1.20365
1.198
1.19182
1.1852
1.17819
1.17087
1.16332
1.15557
1.14767
1.13966
1.13161
1.12355
1.11553
1.10758
1.09975
1.09207
1.08457
1.07727
1.07019
1.06334
1.05672
1.05033
1.04416
1.03819
1.03241
1.02679
1.02131
1.01596
1.01071
1.00555
1.00047
0.995447
0.990478
0.985549
0.980652
0.975782
0.97094
0.96613
0.961357
0.956632
0.951966
0.947369
0.942851
0.938424
0.934094
0.929868
0.925751
0.921746
0.917854
0.914075
0.910408
0.90685
0.903396
0.900042
0.896783
0.893613
0.890524
0.887512
0.884567
0.881689
0.87886
0.876092
0.873349
0.870677
0.867986
0.865415
0.862724
0.860292
0.857522
0.855302
0.852399
0.850312
0.847645
0.845292
0.872605
0.903125
0.930618
0.95665
0.981195
1.00409
1.02539
1.04518
1.06381
1.08115
1.09705
1.1113
1.12372
1.13457
1.14391
1.15194
1.1584
1.16331
1.16757
1.17024
1.17176
1.1721
1.17121
1.16919
1.16618
1.16236
1.15784
1.15275
1.14718
1.1412
1.13489
1.1283
1.1215
1.11453
1.10743
1.10025
1.09304
1.08584
1.07867
1.07159
1.06463
1.05781
1.05117
1.04471
1.03846
1.03242
1.02659
1.02096
1.01551
1.01024
1.00512
1.00013
0.995247
0.990462
0.985756
0.981115
0.97653
0.97199
0.967485
0.963005
0.958544
0.9541
0.949673
0.945271
0.9409
0.936572
0.932298
0.928089
0.923956
0.919907
0.915949
0.912089
0.908329
0.904674
0.901123
0.897676
0.894329
0.891081
0.887927
0.884862
0.881881
0.878978
0.876147
0.873382
0.870675
0.868025
0.865415
0.862858
0.860318
0.857844
0.855339
0.852956
0.850439
0.848187
0.845582
0.843531
0.840798
0.838855
0.836383
0.834208
0.788661
0.824278
0.855549
0.884791
0.912021
0.937083
0.960138
0.981487
1.00121
1.01938
1.03601
1.05073
1.06302
1.0734
1.08207
1.08939
1.09478
1.09972
1.10271
1.10486
1.106
1.106
1.10465
1.10219
1.09882
1.09479
1.09022
1.08521
1.07985
1.07419
1.06829
1.06221
1.05601
1.04971
1.04335
1.03694
1.03053
1.02418
1.01794
1.01183
1.0059
1.00017
0.994629
0.989301
0.984181
0.979265
0.974542
0.969996
0.965605
0.961346
0.9572
0.953144
0.949162
0.945238
0.941356
0.93751
0.933694
0.929901
0.926124
0.922356
0.918587
0.914819
0.911057
0.907312
0.903595
0.899918
0.896291
0.892728
0.889235
0.885822
0.882492
0.879251
0.8761
0.873038
0.870066
0.867181
0.864381
0.861663
0.859022
0.856454
0.853952
0.851512
0.849127
0.846794
0.844502
0.842253
0.840027
0.837845
0.83566
0.833538
0.831365
0.829317
0.82711
0.825181
0.822874
0.821128
0.818706
0.817022
0.81489
0.813075
0.674002
0.720595
0.760315
0.796212
0.828933
0.858224
0.884543
0.908323
0.929653
0.948855
0.965488
0.978999
0.988941
0.996709
1.00271
1.00746
1.01095
1.01261
1.0131
1.01328
1.01258
1.011
1.00929
1.00725
1.00477
1.00178
0.9983
0.994402
0.990154
0.985615
0.980838
0.975879
0.970782
0.965592
0.960325
0.955033
0.94976
0.944559
0.939465
0.934519
0.929759
0.925208
0.920872
0.916754
0.912844
0.90913
0.905594
0.902214
0.898965
0.895821
0.892761
0.889764
0.886814
0.883895
0.880991
0.878095
0.875206
0.872321
0.869432
0.866532
0.863621
0.860704
0.857788
0.854884
0.852002
0.849158
0.846362
0.843626
0.840957
0.838361
0.835841
0.833398
0.831033
0.828744
0.826527
0.824382
0.822301
0.820283
0.818321
0.816411
0.814544
0.81272
0.810932
0.809175
0.807437
0.805723
0.804011
0.802328
0.80062
0.79897
0.797241
0.795645
0.793856
0.792363
0.790462
0.789128
0.787124
0.785824
0.784028
0.782859
0.528175
0.588424
0.638229
0.680658
0.717438
0.748171
0.774233
0.797143
0.818722
0.838363
0.855543
0.871229
0.884302
0.894554
0.904906
0.912885
0.918601
0.922807
0.92569
0.926064
0.924721
0.922233
0.918724
0.914541
0.909937
0.905025
0.899916
0.894686
0.88941
0.884123
0.87886
0.873654
0.868531
0.863562
0.858723
0.85407
0.849601
0.845386
0.841414
0.837707
0.834307
0.831214
0.828411
0.825881
0.823578
0.821475
0.819528
0.817708
0.815973
0.814292
0.812647
0.811009
0.809377
0.807736
0.806064
0.804359
0.802629
0.80087
0.799076
0.797239
0.795358
0.793446
0.791516
0.789588
0.787678
0.785806
0.783984
0.782222
0.780527
0.778901
0.777345
0.775857
0.774433
0.773069
0.77176
0.770501
0.769285
0.768107
0.76696
0.765838
0.764735
0.763641
0.762546
0.761454
0.760352
0.759257
0.758136
0.757037
0.755883
0.754789
0.753584
0.752524
0.751235
0.750263
0.74885
0.748015
0.746503
0.745713
0.744193
0.743931
0.374835
0.43542
0.488786
0.534841
0.576228
0.613297
0.646301
0.675537
0.701692
0.720823
0.736058
0.747365
0.75751
0.764665
0.768647
0.770989
0.77171
0.771048
0.769243
0.766765
0.763744
0.760241
0.756333
0.752113
0.747749
0.743278
0.738868
0.734592
0.730524
0.72662
0.722896
0.719371
0.71598
0.712958
0.710193
0.707834
0.70574
0.703996
0.702567
0.701444
0.700713
0.700354
0.700315
0.70057
0.701003
0.701579
0.702213
0.702892
0.703553
0.704148
0.7047
0.705157
0.705555
0.705874
0.706091
0.706206
0.706228
0.706152
0.705982
0.705714
0.705355
0.704929
0.704457
0.703971
0.703491
0.703042
0.702634
0.70228
0.701981
0.701736
0.70154
0.701387
0.701269
0.701181
0.701113
0.701061
0.701014
0.700968
0.700911
0.700845
0.700752
0.700642
0.700498
0.700329
0.700112
0.699878
0.699581
0.699291
0.698908
0.69858
0.698097
0.69777
0.697168
0.696899
0.696156
0.695994
0.695137
0.69505
0.693926
0.69479
0.286029
0.319154
0.354606
0.388831
0.423212
0.452871
0.478587
0.500657
0.519975
0.534082
0.547305
0.557453
0.563489
0.567393
0.569203
0.569256
0.567897
0.565389
0.562
0.557985
0.553588
0.54904
0.544506
0.540083
0.536006
0.532083
0.528815
0.52614
0.524
0.522129
0.520522
0.519253
0.517996
0.517631
0.517662
0.518599
0.519918
0.521611
0.523741
0.52618
0.529202
0.53272
0.536593
0.540826
0.545029
0.54932
0.553398
0.557459
0.561283
0.564734
0.568071
0.571138
0.574093
0.576861
0.579458
0.581906
0.584153
0.586216
0.588112
0.58986
0.591472
0.592994
0.594449
0.595885
0.597318
0.59878
0.600269
0.601803
0.603366
0.604951
0.606543
0.608132
0.609705
0.611258
0.61278
0.614264
0.615696
0.617077
0.618388
0.619644
0.620815
0.621933
0.622959
0.623927
0.624803
0.625641
0.626375
0.627103
0.627688
0.628327
0.628755
0.629352
0.629621
0.630242
0.630345
0.631044
0.631003
0.631819
0.631257
0.63342
0.187613
0.201472
0.217304
0.232977
0.250316
0.266783
0.282342
0.296618
0.308491
0.318577
0.325429
0.329531
0.331217
0.330892
0.328929
0.325651
0.321435
0.316536
0.31128
0.305902
0.300608
0.295628
0.291085
0.287095
0.283892
0.281201
0.279503
0.277542
0.276649
0.276126
0.276527
0.2782
0.280071
0.283872
0.287545
0.29266
0.298232
0.303335
0.309992
0.316542
0.324599
0.333267
0.342414
0.352268
0.360381
0.369849
0.377155
0.386027
0.392978
0.397653
0.403161
0.40827
0.413517
0.418342
0.423292
0.42845
0.433133
0.437653
0.442053
0.446335
0.450482
0.45456
0.458569
0.46257
0.466553
0.470556
0.474547
0.478563
0.48251
0.486416
0.49021
0.493922
0.497533
0.5011
0.504539
0.507862
0.511039
0.514111
0.517036
0.519877
0.522547
0.525162
0.527593
0.529952
0.532179
0.534358
0.536389
0.538382
0.540159
0.541987
0.543535
0.545267
0.546607
0.548324
0.549465
0.551238
0.552181
0.554123
0.554347
0.557934
0.0802742
0.085858
0.092496
0.0985069
0.104777
0.109933
0.115154
0.119209
0.121694
0.122997
0.122946
0.121678
0.119377
0.116314
0.112684
0.108695
0.104518
0.100296
0.0961486
0.0921845
0.088476
0.0850647
0.0820766
0.0793686
0.0773292
0.0753651
0.0743049
0.073123
0.0727987
0.0723252
0.0727124
0.0729594
0.0744491
0.0763292
0.078702
0.0805729
0.0836711
0.0881933
0.0929034
0.0980218
0.103865
0.110746
0.117999
0.1262
0.134391
0.14304
0.151568
0.160401
0.169169
0.177825
0.187366
0.197265
0.207248
0.217659
0.227812
0.237743
0.247248
0.256426
0.265205
0.273715
0.281852
0.289779
0.297436
0.304962
0.312308
0.319535
0.326646
0.333571
0.339969
0.346291
0.352026
0.358084
0.363888
0.3702
0.375435
0.38067
0.385578
0.390525
0.395268
0.399963
0.404358
0.408809
0.412839
0.416923
0.420835
0.424685
0.42832
0.431736
0.434851
0.438036
0.440861
0.443904
0.446488
0.449479
0.451804
0.454868
0.456924
0.460246
0.461527
0.466559
0.0474538
0.048052
0.0487486
0.0494342
0.0497703
0.0498267
0.0495501
0.0490136
0.0481364
0.046965
0.0455133
0.0438471
0.0420033
0.0400575
0.0380441
0.0360311
0.0340394
0.0321256
0.0302946
0.0285903
0.027012
0.0255716
0.0242891
0.0231122
0.0221368
0.0212005
0.020498
0.0197847
0.0193065
0.0187773
0.0184952
0.0181174
0.0180167
0.0177984
0.0179772
0.0178157
0.0182147
0.0184936
0.0188462
0.0194461
0.0201978
0.0214202
0.0225541
0.0241135
0.0257209
0.0277477
0.0298628
0.0323478
0.0350779
0.0380877
0.0413633
0.0451467
0.0490222
0.0536108
0.0584085
0.0638712
0.0694544
0.0756541
0.0819772
0.0888903
0.0959055
0.103501
0.111193
0.119493
0.127816
0.136729
0.145525
0.154794
0.164381
0.174149
0.184018
0.193726
0.203141
0.21236
0.221221
0.229774
0.237878
0.245709
0.253088
0.260253
0.266965
0.273518
0.279672
0.285618
0.291142
0.296513
0.3015
0.306409
0.310902
0.31554
0.319722
0.324176
0.328252
0.332303
0.335928
0.340532
0.343953
0.349094
0.351636
0.358363
0.0346174
0.0341108
0.0340799
0.0340062
0.0337543
0.0333108
0.0326733
0.0318681
0.030912
0.0298432
0.0286862
0.0274824
0.0262538
0.0250342
0.0238343
0.0226822
0.0215779
0.0205489
0.0195845
0.0187111
0.0179099
0.0172032
0.0165664
0.0160139
0.0155273
0.015107
0.0147457
0.0144347
0.0141694
0.0139446
0.0137522
0.0135915
0.0134508
0.0133398
0.0132355
0.0131576
0.0130826
0.0130294
0.012985
0.0129419
0.0129221
0.0128959
0.0129007
0.0128926
0.0129221
0.0129274
0.0129955
0.01301
0.0131283
0.013207
0.013312
0.0135244
0.0136521
0.0139467
0.0141635
0.0146422
0.015013
0.0156681
0.0162784
0.017215
0.018155
0.019482
0.0208694
0.0227341
0.0247194
0.027263
0.0299991
0.0333162
0.0368989
0.041128
0.0456131
0.0507868
0.0561468
0.0621649
0.0682772
0.0749995
0.0816745
0.0888831
0.0959027
0.103371
0.110536
0.118052
0.125188
0.132633
0.139743
0.147254
0.154243
0.16173
0.168464
0.175752
0.182055
0.189162
0.195028
0.202035
0.207372
0.214443
0.219138
0.226597
0.229817
0.240055
0.0225693
0.0227263
0.0229095
0.0230991
0.0230462
0.0228625
0.0225426
0.0220979
0.021547
0.0209233
0.020247
0.0195528
0.0188522
0.0181691
0.0175066
0.0168842
0.016302
0.015775
0.0152965
0.0148766
0.0145063
0.0141927
0.0139201
0.0136941
0.0134991
0.0133398
0.0132033
0.0130925
0.0129956
0.0129193
0.012847
0.0127925
0.0127348
0.0126937
0.0126415
0.0126101
0.0125632
0.0125363
0.0124932
0.0124685
0.0124296
0.0124079
0.0123719
0.0123548
0.0123209
0.0123062
0.0122737
0.0122612
0.0122313
0.0122211
0.0121945
0.0121844
0.0121624
0.0121512
0.0121389
0.0121232
0.0121245
0.0121036
0.0121242
0.0121003
0.0121421
0.0121245
0.0121854
0.012194
0.0122708
0.0123328
0.0124176
0.0125872
0.012722
0.012994
0.0132077
0.0136347
0.0139625
0.0146275
0.0151146
0.0161056
0.0168155
0.0182098
0.0191997
0.0210811
0.0223641
0.0248316
0.0264197
0.0295187
0.0314413
0.0351852
0.0374734
0.0419103
0.0445814
0.049796
0.052868
0.0588512
0.0623566
0.0691135
0.072971
0.0805099
0.0846943
0.0929177
0.096762
0.108149
0.0163086
0.0163752
0.0164789
0.0165585
0.0165591
0.0164993
0.0163931
0.0162215
0.0160117
0.0157574
0.0154807
0.0151871
0.0148878
0.0145961
0.0143185
0.0140647
0.0138347
0.0136357
0.0134611
0.0133175
0.013195
0.0130894
0.0130006
0.0129234
0.0128591
0.0128017
0.0127542
0.0127094
0.0126707
0.0126343
0.012597
0.0125645
0.0125261
0.0124941
0.0124511
0.0124224
0.0123773
0.0123488
0.0123032
0.0122761
0.0122325
0.0122087
0.0121667
0.0121461
0.0121065
0.0120877
0.0120499
0.0120323
0.0119964
0.0119809
0.0119458
0.0119329
0.0118971
0.0118871
0.0118502
0.0118433
0.0118047
0.0118011
0.0117615
0.0117605
0.011721
0.0117209
0.0116831
0.011682
0.0116468
0.0116443
0.0116115
0.0116037
0.0115725
0.0115675
0.0115422
0.0115403
0.0115231
0.011524
0.0115187
0.011521
0.0115337
0.011538
0.0115735
0.0115875
0.0116488
0.011716
0.0117758
0.0118831
0.0119662
0.0121525
0.0122641
0.0125535
0.0127253
0.0131518
0.013408
0.0140318
0.0143998
0.0153255
0.0158104
0.0171756
0.0177884
0.0198573
0.0198954
0.0246265
0.013718
0.0137376
0.0137806
0.0138177
0.013846
0.0138299
0.0138041
0.0137334
0.0136626
0.0135524
0.0134581
0.0133357
0.0132362
0.0131206
0.0130302
0.0129331
0.0128595
0.0127796
0.0127189
0.0126522
0.0125977
0.0125374
0.0124882
0.012433
0.012389
0.0123367
0.0122968
0.0122434
0.0122064
0.0121496
0.0121142
0.0120539
0.0120197
0.0119586
0.0119211
0.0118667
0.0118252
0.0117744
0.0117335
0.0116858
0.0116496
0.0116058
0.0115705
0.0115333
0.0115009
0.0114696
0.0114394
0.0114125
0.0113838
0.0113609
0.0113336
0.0113138
0.011287
0.0112698
0.0112431
0.0112282
0.0112015
0.0111892
0.0111623
0.011153
0.0111258
0.0111196
0.0110919
0.0110888
0.0110608
0.0110609
0.0110327
0.0110354
0.0110075
0.0110125
0.0109851
0.0109916
0.0109649
0.0109719
0.0109461
0.0109527
0.0109281
0.0109344
0.0109113
0.0109165
0.0108953
0.0108993
0.0108803
0.0108833
0.0108666
0.0108696
0.0108547
0.0108599
0.0108461
0.0108564
0.0108427
0.0108617
0.0108485
0.0108797
0.0108691
0.0109162
0.0109137
0.0109807
0.0109957
0.0111087
0.0127064
0.0127289
0.012756
0.0127954
0.0128049
0.0128064
0.0127946
0.0127769
0.0127465
0.0127176
0.0126797
0.0126477
0.0126069
0.012572
0.012529
0.0124878
0.0124405
0.0123931
0.0123439
0.0122924
0.0122415
0.0121888
0.0121383
0.0120853
0.0120342
0.0119811
0.0119281
0.0118746
0.0118209
0.0117679
0.0117174
0.0116641
0.0116208
0.0115654
0.0115286
0.0114734
0.0114387
0.0113866
0.0113522
0.0113049
0.0112765
0.0112305
0.0112062
0.0111662
0.0111469
0.0111118
0.011097
0.0110655
0.0110538
0.0110252
0.0110157
0.0109888
0.0109802
0.010954
0.0109457
0.01092
0.0109121
0.010887
0.0108797
0.0108557
0.0108492
0.0108265
0.0108212
0.0107999
0.0107958
0.0107761
0.010773
0.0107548
0.0107525
0.0107356
0.0107338
0.0107181
0.0107166
0.0107017
0.0107002
0.0106858
0.0106842
0.0106704
0.0106685
0.0106551
0.0106528
0.0106396
0.010637
0.0106241
0.0106211
0.0106086
0.0106054
0.0105935
0.0105901
0.0105789
0.0105755
0.0105651
0.0105617
0.0105522
0.0105487
0.01054
0.0105372
0.0105246
0.010546
0.0104877
0.0120939
0.012109
0.012158
0.0121759
0.012194
0.0121966
0.0122022
0.0121903
0.0121866
0.0121665
0.0121535
0.0121224
0.0120984
0.0120572
0.0120231
0.0119754
0.0119336
0.0118833
0.0118362
0.0117847
0.0117349
0.0116826
0.01163
0.0115762
0.0115219
0.0114675
0.0114149
0.0113629
0.0113162
0.0112686
0.0112297
0.0111866
0.0111542
0.0111149
0.0110848
0.0110495
0.0110208
0.0109856
0.0109595
0.0109267
0.0109033
0.0108733
0.0108537
0.0108266
0.0108101
0.0107864
0.010773
0.0107515
0.0107405
0.0107204
0.0107109
0.0106916
0.0106828
0.0106639
0.0106559
0.0106374
0.0106301
0.0106123
0.0106059
0.010589
0.0105835
0.0105672
0.0105626
0.0105471
0.0105433
0.0105286
0.0105255
0.0105115
0.010509
0.0104954
0.0104931
0.0104799
0.0104778
0.0104651
0.0104631
0.0104507
0.0104488
0.0104367
0.0104348
0.010423
0.0104211
0.0104095
0.0104075
0.0103962
0.010394
0.010383
0.0103806
0.0103699
0.0103674
0.0103573
0.0103545
0.0103451
0.0103422
0.0103336
0.0103306
0.0103226
0.0103202
0.0103084
0.0103288
0.0102741
0.0116183
0.0116445
0.0116807
0.0117027
0.0117216
0.0117304
0.0117369
0.0117343
0.0117299
0.011718
0.0117044
0.0116828
0.0116608
0.0116305
0.0116027
0.0115662
0.0115355
0.0114954
0.0114622
0.0114198
0.011384
0.0113393
0.0113017
0.0112567
0.0112199
0.011177
0.0111436
0.0111055
0.0110762
0.0110428
0.0110175
0.0109865
0.0109652
0.0109336
0.0109153
0.0108828
0.010865
0.0108326
0.0108126
0.0107845
0.0107663
0.0107378
0.010722
0.0106964
0.0106832
0.0106589
0.0106463
0.0106236
0.0106128
0.0105917
0.0105823
0.0105624
0.0105542
0.0105353
0.0105281
0.0105101
0.0105038
0.0104864
0.0104808
0.0104641
0.0104591
0.0104427
0.0104384
0.0104226
0.0104189
0.0104037
0.0104006
0.0103861
0.0103835
0.0103695
0.0103672
0.0103537
0.0103516
0.0103387
0.0103369
0.0103245
0.010323
0.0103113
0.01031
0.0102988
0.0102976
0.0102867
0.0102854
0.0102748
0.0102732
0.0102628
0.0102609
0.0102506
0.0102484
0.0102385
0.010236
0.0102266
0.0102239
0.0102151
0.010212
0.0102039
0.0102004
0.0101931
0.0101885
0.0101804
0.0112179
0.0112499
0.0112809
0.0113054
0.0113236
0.0113358
0.0113446
0.0113475
0.0113456
0.0113393
0.01133
0.0113157
0.0112998
0.0112777
0.0112557
0.0112276
0.0112018
0.0111698
0.0111409
0.0111058
0.0110739
0.0110363
0.0110031
0.0109641
0.0109319
0.0108935
0.0108642
0.0108277
0.0108014
0.0107682
0.0107445
0.0107147
0.010694
0.0106662
0.0106483
0.0106217
0.0106055
0.0105786
0.0105635
0.0105394
0.0105233
0.0104985
0.0104842
0.0104594
0.010446
0.0104226
0.0104104
0.0103887
0.0103784
0.0103586
0.0103503
0.0103324
0.0103261
0.0103098
0.0103051
0.0102901
0.0102863
0.010272
0.0102688
0.0102548
0.010252
0.0102382
0.0102357
0.0102222
0.01022
0.0102068
0.0102049
0.0101919
0.0101901
0.0101774
0.0101758
0.0101634
0.0101619
0.0101499
0.0101485
0.010137
0.0101357
0.0101247
0.0101233
0.0101128
0.0101116
0.0101015
0.0101002
0.0100905
0.0100891
0.0100797
0.0100778
0.0100688
0.0100665
0.0100578
0.0100552
0.0100469
0.010044
0.0100363
0.0100332
0.0100262
0.0100229
0.0100167
0.0100125
0.0100054
0.0109031
0.0109281
0.0109601
0.010979
0.0109982
0.0110063
0.0110181
0.0110193
0.0110237
0.0110174
0.0110159
0.0110036
0.0109954
0.0109757
0.010961
0.0109362
0.0109178
0.0108906
0.0108693
0.0108399
0.0108161
0.010785
0.0107599
0.010728
0.0107037
0.0106727
0.0106503
0.0106207
0.0106011
0.010574
0.0105574
0.0105332
0.0105199
0.010498
0.0104876
0.0104675
0.0104573
0.0104382
0.010429
0.010409
0.0103972
0.0103772
0.0103671
0.0103458
0.0103351
0.0103145
0.0103044
0.0102844
0.0102753
0.0102567
0.0102498
0.0102334
0.0102283
0.0102135
0.01021
0.0101962
0.0101933
0.0101799
0.0101772
0.0101638
0.0101612
0.0101479
0.0101455
0.0101323
0.0101302
0.0101174
0.0101155
0.010103
0.0101014
0.0100893
0.0100879
0.0100762
0.0100749
0.0100635
0.0100623
0.0100513
0.01005
0.0100394
0.0100381
0.0100278
0.0100264
0.0100164
0.0100148
0.0100051
0.0100032
0.00999382
0.00999157
0.00998259
0.00998006
0.00997161
0.00996889
0.00996107
0.00995827
0.00995119
0.00994825
0.00994209
0.00993822
0.009937
0.00991081
0.00994657
0.0106634
0.0106887
0.0107153
0.010731
0.0107506
0.0107564
0.0107696
0.0107704
0.0107769
0.0107739
0.0107754
0.0107676
0.0107623
0.0107473
0.0107353
0.0107155
0.0107009
0.0106786
0.0106617
0.0106367
0.0106179
0.0105916
0.010572
0.0105461
0.0105275
0.0105019
0.0104851
0.0104601
0.0104448
0.0104209
0.0104068
0.0103852
0.0103728
0.0103531
0.0103433
0.0103246
0.010316
0.010298
0.0102897
0.0102721
0.0102639
0.0102463
0.0102381
0.0102203
0.010213
0.0101956
0.0101891
0.0101727
0.0101675
0.0101525
0.0101484
0.0101338
0.0101302
0.0101159
0.0101124
0.010098
0.0100943
0.0100798
0.0100759
0.0100616
0.010058
0.0100441
0.010041
0.0100278
0.0100254
0.0100128
0.010011
0.00999906
0.00999773
0.00998638
0.00998536
0.00997445
0.00997356
0.00996299
0.00996212
0.00995184
0.00995093
0.00994092
0.00993993
0.00993019
0.00992909
0.00991966
0.00991842
0.00990929
0.00990788
0.00989909
0.00989747
0.00988908
0.00988721
0.0098793
0.00987721
0.00986987
0.00986756
0.00986088
0.00985835
0.00985233
0.00984953
0.00984426
0.00984046
0.00983404
0.0104692
0.0104923
0.0105184
0.0105311
0.0105516
0.0105534
0.0105683
0.0105654
0.0105751
0.0105724
0.0105783
0.0105711
0.0105697
0.0105559
0.0105477
0.0105305
0.0105216
0.0105035
0.0104927
0.0104716
0.010459
0.0104375
0.0104253
0.0104053
0.0103934
0.0103742
0.0103624
0.0103419
0.0103299
0.0103079
0.0102961
0.0102747
0.0102638
0.0102437
0.010234
0.010215
0.0102066
0.0101881
0.0101814
0.0101655
0.0101582
0.0101439
0.0101401
0.0101276
0.0101249
0.0101129
0.010111
0.0101004
0.0100995
0.0100887
0.0100868
0.0100741
0.0100703
0.0100558
0.0100508
0.0100356
0.0100303
0.010015
0.0100101
0.0099955
0.00999155
0.00997793
0.009975
0.0099624
0.00996021
0.00994833
0.00994658
0.00993522
0.00993374
0.00992281
0.00992148
0.0099109
0.00990967
0.00989939
0.0098982
0.00988818
0.00988701
0.00987723
0.00987607
0.00986656
0.00986542
0.00985623
0.00985509
0.00984625
0.00984506
0.00983659
0.00983527
0.00982717
0.00982565
0.00981793
0.00981616
0.00980887
0.00980681
0.00979999
0.0097976
0.00979142
0.00978788
0.00978634
0.00976093
0.0097958
0.0103301
0.010362
0.0103758
0.0103875
0.010403
0.0104085
0.0104208
0.0104236
0.0104301
0.0104311
0.0104369
0.0104346
0.010435
0.0104261
0.0104197
0.0104069
0.0103984
0.0103832
0.0103728
0.0103549
0.0103436
0.0103257
0.0103165
0.0103
0.0102931
0.0102775
0.0102703
0.0102525
0.0102432
0.0102235
0.0102128
0.0101921
0.0101815
0.0101609
0.0101517
0.0101321
0.0101246
0.010107
0.0101009
0.0100858
0.0100808
0.0100678
0.0100651
0.0100527
0.0100507
0.0100399
0.0100382
0.0100264
0.0100237
0.0100112
0.0100075
0.00999394
0.00998949
0.0099762
0.00997212
0.00995917
0.00995589
0.00994365
0.00994092
0.00992886
0.00992642
0.00991471
0.00991267
0.00990161
0.0098999
0.00988912
0.00988751
0.00987695
0.0098756
0.0098654
0.00986403
0.00985392
0.00985256
0.00984273
0.00984151
0.00983194
0.00983073
0.00982136
0.00982018
0.00981105
0.00980993
0.00980108
0.00980001
0.00979144
0.00979036
0.00978207
0.0097809
0.0097729
0.00977156
0.0097639
0.00976234
0.00975506
0.00975323
0.00974638
0.00974421
0.00973794
0.00973463
0.00973283
0.0097081
0.00974215
0.0102213
0.0102389
0.0102583
0.0102724
0.0102868
0.0102932
0.0103034
0.0103062
0.0103126
0.0103143
0.0103204
0.010319
0.0103219
0.0103164
0.0103149
0.0103051
0.0103004
0.0102881
0.0102806
0.0102656
0.0102563
0.0102404
0.0102306
0.0102149
0.010206
0.0101903
0.0101813
0.010164
0.0101549
0.0101361
0.0101269
0.0101078
0.0100986
0.0100801
0.0100722
0.0100546
0.0100487
0.0100326
0.010029
0.0100143
0.0100109
0.00999838
0.00999569
0.00998328
0.00998108
0.00996827
0.00996567
0.00995315
0.00995079
0.00993908
0.00993703
0.00992573
0.00992371
0.00991275
0.0099107
0.00990002
0.00989806
0.00988723
0.00988561
0.00987506
0.00987332
0.00986277
0.00986124
0.00985108
0.00984949
0.0098394
0.00983777
0.00982783
0.00982622
0.00981643
0.00981489
0.00980532
0.00980384
0.0097945
0.0097931
0.00978399
0.00978276
0.00977385
0.00977271
0.00976405
0.009763
0.00975456
0.00975362
0.00974543
0.0097444
0.0097365
0.0097354
0.00972772
0.00972642
0.00971896
0.00971743
0.00971023
0.00970841
0.00970151
0.00969937
0.00969281
0.00969031
0.00968409
0.0096816
0.0096734
0.0101511
0.010158
0.0101739
0.0101852
0.0102006
0.0102019
0.0102168
0.0102179
0.0102261
0.0102267
0.0102384
0.0102381
0.0102474
0.0102416
0.0102424
0.0102315
0.0102288
0.010218
0.0102151
0.0102035
0.010198
0.0101829
0.0101739
0.0101557
0.0101436
0.0101241
0.010112
0.0100928
0.010082
0.010064
0.0100555
0.0100392
0.0100329
0.0100181
0.0100127
0.00999933
0.00999534
0.00998154
0.00997954
0.00996676
0.00996396
0.00995252
0.00995056
0.00993799
0.00993513
0.00992253
0.00992028
0.00990728
0.00990555
0.0098938
0.00989266
0.00988207
0.0098815
0.00987084
0.00986975
0.00985977
0.00985886
0.00984931
0.00984847
0.00983861
0.00983752
0.00982747
0.00982555
0.00981504
0.00981316
0.00980286
0.00980107
0.00979094
0.00978908
0.00977921
0.00977757
0.00976807
0.00976654
0.00975736
0.00975589
0.00974705
0.00974559
0.00973708
0.00973562
0.00972746
0.00972599
0.0097182
0.00971675
0.00970928
0.00970778
0.00970054
0.00969896
0.00969193
0.00969023
0.00968344
0.00968157
0.00967504
0.00967294
0.00966677
0.00966435
0.00965864
0.00965507
0.00965384
0.00962893
0.00966309
0.0100869
0.010101
0.0101208
0.0101354
0.0101454
0.0101492
0.0101584
0.0101556
0.0101603
0.0101597
0.0101662
0.0101642
0.0101701
0.0101657
0.0101678
0.0101611
0.0101607
0.0101511
0.0101473
0.0101333
0.0101233
0.0101051
0.0100933
0.0100739
0.0100621
0.0100434
0.0100332
0.0100167
0.0100091
0.0099953
0.00999151
0.00998004
0.00997885
0.00996888
0.00996883
0.00995966
0.00995806
0.00994782
0.0099455
0.00993181
0.00992779
0.0099133
0.00990714
0.00989239
0.00988764
0.00987345
0.00986976
0.00985734
0.00985663
0.00984658
0.00984714
0.00983792
0.00983931
0.00983039
0.00983238
0.00982397
0.00982595
0.00981731
0.00981829
0.0098094
0.0098095
0.00979929
0.0097989
0.00978811
0.00978692
0.00977627
0.00977463
0.00976419
0.00976263
0.00975232
0.00975116
0.00974126
0.00974026
0.00973065
0.00972975
0.00972054
0.00971966
0.00971075
0.00970989
0.00970126
0.00970017
0.00969179
0.00969061
0.00968254
0.00968119
0.00967335
0.00967177
0.00966423
0.00966246
0.00965527
0.00965332
0.00964655
0.00964446
0.00963817
0.00963595
0.00963018
0.00962781
0.00962264
0.00961966
0.00961341
0.0100378
0.0100436
0.0100616
0.0100685
0.0100825
0.0100782
0.0100889
0.010089
0.0100923
0.0100908
0.0100959
0.0100953
0.0101001
0.0100954
0.010096
0.0100867
0.0100825
0.0100688
0.0100617
0.010046
0.0100382
0.0100234
0.0100164
0.0100021
0.00999636
0.00998357
0.0099793
0.00996704
0.00996274
0.00995102
0.00994784
0.00993671
0.00993521
0.0099252
0.009924
0.00991522
0.00991382
0.00990248
0.00990078
0.00988863
0.00988566
0.00987324
0.00987119
0.00985988
0.00985742
0.00984572
0.00984476
0.00983484
0.00983506
0.00982575
0.00982671
0.0098179
0.00981915
0.00981067
0.00981135
0.00980217
0.00980293
0.00979331
0.00979359
0.00978385
0.00978338
0.00977298
0.00977236
0.00976186
0.00976083
0.0097504
0.00974952
0.00973924
0.00973843
0.00972858
0.00972789
0.00971836
0.00971781
0.00970851
0.00970808
0.00969911
0.00969873
0.00969008
0.00968956
0.00968112
0.00968039
0.00967206
0.0096711
0.00966297
0.00966172
0.00965377
0.00965214
0.00964443
0.00964248
0.00963506
0.0096328
0.00962567
0.00962317
0.00961639
0.00961366
0.00960716
0.00960496
0.00959504
0.00961299
0.00956505
0.0100207
0.0100239
0.0100372
0.0100535
0.0100579
0.0100671
0.0100726
0.0100705
0.010074
0.0100702
0.0100699
0.0100665
0.0100676
0.0100579
0.0100539
0.0100424
0.0100374
0.0100245
0.0100198
0.0100063
0.0100012
0.00998765
0.00998289
0.00997007
0.00996545
0.00995321
0.00994864
0.00993626
0.00993159
0.00991933
0.00991559
0.00990296
0.00990025
0.00988832
0.00988689
0.00987561
0.0098751
0.00986567
0.00986378
0.00985315
0.00985305
0.00984339
0.00984332
0.00983357
0.00983319
0.00982316
0.00982241
0.0098115
0.00981123
0.00980137
0.00980052
0.00978981
0.00978911
0.0097778
0.00977619
0.00976591
0.00976482
0.00975434
0.00975378
0.00974338
0.00974283
0.00973276
0.00973248
0.0097226
0.00972219
0.00971233
0.009712
0.00970234
0.00970195
0.00969247
0.00969211
0.00968289
0.00968245
0.00967337
0.00967286
0.00966418
0.00966368
0.00965522
0.00965474
0.00964659
0.00964597
0.00963817
0.00963747
0.00962992
0.00962905
0.0096217
0.00962062
0.00961353
0.00961216
0.00960529
0.00960361
0.0095969
0.00959491
0.0095884
0.0095861
0.00957994
0.00957733
0.00957153
0.00956903
0.00956121
0.00996565
0.00997022
0.00999432
0.00999265
0.0100089
0.0100011
0.0100112
0.0100117
0.0100156
0.0100172
0.0100174
0.0100174
0.0100193
0.0100112
0.0100101
0.0100008
0.00999672
0.00998558
0.00998121
0.00996981
0.00996611
0.00995506
0.00995105
0.0099393
0.00993493
0.00992262
0.00991815
0.00990574
0.00990151
0.0098889
0.00988507
0.00987344
0.00987111
0.00986009
0.00985913
0.00984941
0.00984918
0.00983937
0.00983902
0.00982989
0.00982943
0.00981995
0.00981994
0.00981053
0.00980987
0.00979926
0.00979847
0.00978815
0.00978769
0.0097774
0.00977702
0.00976683
0.00976649
0.00975623
0.00975575
0.00974596
0.00974543
0.00973538
0.00973537
0.00972542
0.0097252
0.00971539
0.00971535
0.00970571
0.00970518
0.00969547
0.00969502
0.00968539
0.00968475
0.00967534
0.00967498
0.00966583
0.00966547
0.00965652
0.00965613
0.00964766
0.00964718
0.00963901
0.00963858
0.00963077
0.00963037
0.0096229
0.00962238
0.0096152
0.0096145
0.00960755
0.00960683
0.0096001
0.0095991
0.00959269
0.00959145
0.00958526
0.00958366
0.00957762
0.00957567
0.00956974
0.00956812
0.00955875
0.00957655
0.00953065
0.00996139
0.00997192
0.00999071
0.0099946
0.00999984
0.0100054
0.0100181
0.0100149
0.0100145
0.0100091
0.0100124
0.010012
0.0100117
0.0100016
0.00999881
0.0099882
0.00998248
0.00996946
0.00996437
0.00995171
0.00994743
0.00993544
0.00993111