/*--------------------------------*- C++ -*----------------------------------*\
  =========                 |
  \\      /  F ield         | OpenFOAM: The Open Source CFD Toolbox
   \\    /   O peration     | Website:  https://openfoam.org
    \\  /    A nd           | Version:  8
     \\/     M anipulation  |
\*---------------------------------------------------------------------------*/
FoamFile
{
    version     2.0;
    format      ascii;
    class       volScalarField;
    location    "19.5000376192658642";
    object      epsilon;
}
// * * * * * * * * * * * * * * * * * * * * * * * * * * * * * * * * * * * * * //

dimensions      [0 2 -3 0 0 0 0];

internalField   nonuniform List<scalar> 
6800
(
44286.6
113854
127739
123335
90362
36981.6
16234.7
7648.71
3671.54
1850.66
42246.9
139029
118372
65151.7
27161.3
12456.8
6046.45
2923.88
1359.95
683.743
34954.7
91432.2
58863.8
26395.6
12783.9
6271.48
2984.97
1297.51
555.042
274.827
21211.7
44778.5
30518.9
15599.2
8117.95
3776.1
1436.72
548.205
249.322
141.348
21394.2
33310.6
22989.6
11762.5
4812.64
1595.81
593.872
268.055
146.261
98.2151
26666
25304.3
18212
7008.87
2372.47
814.106
333.995
175.516
109.478
82.3046
27692.5
25014.3
13645.4
4808.38
1530.11
513.231
230.082
132.651
87.2722
72.3539
28492.2
22302.4
10233.3
2742.08
783.295
302.329
163.44
105.07
77.8802
68.9772
28381.5
22001.9
8368.84
2107.32
592.597
250.889
144.772
96.1291
71.3757
64.3993
28320.8
20930.4
5921.48
1164.69
361.086
189.475
118.221
83.2437
66.8479
62.8329
38643.4
15434.1
12020.3
11182.4
11101
11496.2
12152.5
12953.3
13842.3
14782.9
37382.3
15066.1
11815.2
11089.6
11138.3
11708.4
12587.2
13681.1
14956.6
16382
35311.8
14428.3
11474.9
10920.3
11256.7
12173.3
13506.8
15223.7
17355.9
19864.6
32441.3
13646.4
11061.9
10815.3
11587.8
13061.1
15140.1
17907.5
21625.2
26247.1
28917.8
12941.8
10851.7
11088.1
12549.3
14983.4
18372.3
23001.5
29963.2
39420.2
25563.1
12587.8
11270.8
12472.5
15398.8
20009.7
26933.5
36062.8
50343.5
66703.3
22828.3
13156.1
13458.4
17165.2
23852
35055.1
53529.6
71308.3
88607.9
87808.8
22320.7
15900
20863.4
31965.4
49165.5
75971.8
98210.9
102344
100396
78035.1
23735.1
25291.7
43653.1
72092.4
100626
114058
110339
92877.8
65362.2
25541.1
29361.4
51540.7
95633.5
116783
122980
106709
65698.8
28902.5
13690.2
5597.13
16109.9
17768.9
19448
21094.3
22678.8
24183.2
25597.4
26913.7
28128.3
29220.9
30178.2
30998.9
31678.3
32224.5
32615.3
32880.2
32993.2
32966.5
32816.3
32527.4
32126.5
31628.9
31048.5
30399.9
29696.6
28950.1
28171.2
27369.4
26553.2
25730.4
24907.4
24089.3
23280.6
22484.5
21703.4
20939
20193.2
19467.9
18764.4
18084.1
17427.9
16796.5
16190
15608.5
15051.8
14519.7
14011.9
13527.8
13066.5
12627.1
12208.5
11809.6
11429.2
11066.3
10719.8
10388.6
10071.7
9768.09
9476.6
9196.29
8926.29
8665.88
8414.47
8171.6
7936.92
7710.15
7491.1
7279.61
7075.54
6878.76
6689.14
6506.54
6330.81
6161.77
5999.23
5842.99
5692.83
5548.52
5409.81
5276.46
5148.22
5024.83
4906.05
4791.63
4681.35
4574.96
4472.3
4373.06
4277.24
4184.34
4094.73
4007.31
3923.61
3840.52
3763.12
3682.18
3613.52
3529.18
3478.23
3370.28
18350.6
20562.3
22841.9
25059.7
27170.2
29151.9
30988
32672.3
34215.2
35578.2
36745.4
37721.9
38529.1
39133.9
39524.3
39724.8
39715.5
39542.8
39188.4
38681.2
38042.7
37292
36448.7
35533.4
34563.2
33551.8
32511.9
31455.5
30392.6
29332.5
28282.2
27247.7
26233.6
25243.3
24279
23341.7
22433.4
21556
20710.8
19898.9
19121
18377.1
17666.7
16989.1
16343.9
15730.1
15147
14593.4
14068.1
13569.4
13095.8
12645.8
12217.8
11810.5
11422.4
11052.4
10699.1
10361.4
10038
9727.6
9429.27
9142.15
8865.57
8599
8342.02
8094.34
7855.69
7625.85
7404.63
7191.83
6987.26
6790.7
6601.93
6420.7
6246.77
6079.85
5919.68
5765.95
5618.38
5476.67
5340.52
5209.65
5083.78
4962.61
4845.91
4733.4
4624.9
4520.08
4418.93
4320.9
4226.43
4134.27
4046.15
3958.61
3877.29
3792.04
3720.07
3631.32
3578.01
3464.69
23086.3
26357.5
29734.4
32974.5
36020.6
38853.6
41447.8
43851.3
45952.6
47742.8
49225.2
50399.5
51296.3
51841.5
52093.5
52047.4
51760.5
51210.1
50446.6
49489.9
48373.9
47128.9
45784
44371.6
42912.2
41420
39911
38400.7
36901
35423.6
33976.2
32565.1
31196
29871.5
28593.3
27361
26176.6
25042
23957.9
22924.9
21943.2
21011.4
20127.9
19290.9
18498.6
17749.4
17041.7
16373.4
15742.1
15145.5
14581.1
14046.6
13539.8
13058.9
12601.9
12167.4
11753.8
11359.7
10983.3
10623
10277.8
9946.45
9628.22
9322.45
9028.65
8746.42
8475.4
8215.28
7965.75
7726.51
7497.23
7277.58
7067.21
6865.78
6672.9
6488.2
6311.3
6141.83
5979.4
5823.65
5674.21
5530.71
5392.84
5260.25
5132.66
5009.73
4891.31
4776.95
4666.73
4559.93
4457.18
4356.87
4261.25
4166.04
4078.06
3985.35
3907.82
3811.43
3754.17
3631.41
31110.2
35839.9
40584.4
45052.6
49180.9
52962
56375
59374.2
61807.2
63770.4
65281.7
66322
66949.4
67148.2
66982.8
66472.6
65612
64468.9
63082.3
61452
59656.6
57741.5
55743.8
53685.7
51595
49500.1
47421.2
45375.3
43373.7
41428.3
39546
37730.9
35989.4
34321.7
32727.3
31202.6
29748.1
28366.3
27055.5
25815
24644.3
23539.7
22498.2
21516.1
20590.5
19718.8
18898.3
18126.1
17398.6
16712.5
16064.6
15451.8
14871.6
14321.6
13799.4
13303.3
12831.9
12383.5
11955.9
11547.4
11156.5
10781.9
10422.8
10078.6
9748.68
9432.63
9129.99
8840.32
8563.2
8298.16
8044.78
7802.58
7571.08
7349.8
7138.26
6935.97
6742.47
6557.27
6379.93
6210
6047.05
5890.65
5740.42
5595.98
5457.05
5323.22
5194.35
5069.9
4950.06
4833.86
4722.28
4613.14
4509.5
4405.85
4310.81
4209.79
4126.39
4021.46
3960.05
3826.66
45192.4
50984.7
56600.5
61746.6
66302.7
70328.9
73814.4
76509.8
78494
79831.7
80631.8
80779.9
80484.6
79703.6
78480
76917
75057.1
72954.6
70655.4
68291.9
65855.2
63357.2
60822.8
58278.9
55748.8
53255.6
50816.4
48444.8
46150.2
43941.5
41824.7
39799.3
37873.3
36043.6
34306.1
32655.1
31088.1
29609.3
28213.4
26898.2
25662.9
24501.6
23410.4
22384.5
21419.7
20512.8
19660.5
18859.5
18105
17393.5
16721.3
16084.8
15482
14910.1
14366.2
13848.8
13357
12889.1
12443
12016.7
11608.8
11218
10843.7
10485.3
10142.1
9813.77
9499.7
9199.44
8912.45
8638.18
8376.11
8125.7
7886.4
7657.65
7438.93
7229.68
7029.42
6837.63
6653.84
6477.59
6308.41
6145.92
5989.77
5839.48
5694.82
5555.26
5420.81
5290.74
5165.5
5043.75
4927.05
4812.4
4704.05
4594.84
4495.7
4388.93
4302.25
4191.32
4127.59
3986.64
69390.5
73543.6
77884.2
81796.2
84861.8
87073.4
88664.7
89441.2
89476.4
89252.9
88647.9
87485.2
85949.4
84053.4
81826.8
79331.7
76631.2
73775
70817.5
67783.6
64719.9
61677.7
58688.4
55780.5
52968.2
50268.3
47686.9
45223.3
42887.1
40674.5
38592.9
36629.6
34791.3
33070.7
31455.8
29942.7
28516.4
27184.4
25935.3
24764.9
23672.7
22650.3
21693.1
20795.5
19952.9
19161.6
18417.7
17718.1
17057.4
16432.6
15840.1
15276.2
14739.9
14229.4
13741.3
13274.6
12829.5
12404.7
11998.5
11609.1
11235.3
10876.6
10532.5
10202.5
9886.28
9583.46
9293.52
9016.03
8750.45
8496.22
8252.87
8019.87
7796.71
7582.85
7377.79
7181.07
6992.24
6810.86
6636.53
6468.81
6307.36
6151.72
6001.68
5856.76
5716.9
5581.51
5450.83
5323.9
5201.64
5082.17
4967.87
4854.75
4748.49
4640.1
4542.97
4436.45
4351.71
4240.88
4178.56
4037.5
90119.3
91387.3
92171.2
92821.3
92952.4
92686.6
92015.8
90711.4
88851.6
86576.1
84014
81144.5
78003.4
74657
71181.2
67616.9
64034.8
60475.3
56989.7
53613.2
50370.6
47293.6
44389.8
41675.4
39145.6
36803.2
34632
32611.6
30767.4
29069
27525.7
26111.6
24814.9
23629.2
22531.2
21544.6
20629.5
19790.3
19008.1
18280.7
17606.7
16982.4
16401.6
15858.5
15352.9
14876.3
14427
14000.5
13595.9
13210.3
12838.2
12476
12125.5
11787.8
11459.2
11140.2
10830.7
10531.4
10241.2
9959.96
9687.38
9423.89
9169.42
8924.16
8687.91
8460.63
8242
8031.67
7829.39
7634.57
7447.04
7266.35
7092.12
6923.86
6761.28
6604.12
6452.15
6305.08
6162.67
6024.61
5890.75
5760.73
5634.56
5511.72
5392.5
5276.14
5163.38
5052.89
4946.3
4841.07
4740.63
4639.87
4546.04
4448.49
4362.56
4265.86
4190.85
4089.95
4034.53
3905.36
75468.7
72984.4
70874
68831.6
67253.5
65341.5
63284.9
61194.1
58564.6
55692.7
52529.6
49143.3
45624.5
42065.2
38561.1
35169.7
31960.9
28959.6
26200.6
23692.1
21435.2
19428.8
17657.2
16107
14768.5
13599.7
12618
11784.7
11087
10484.4
9965.68
9533.18
9141.44
8850.56
8595.15
8433.6
8298.02
8204.1
8136.26
8094.5
8055.9
8037.49
8018.91
8000.77
8012.14
7985.89
7988.89
7945.86
7928.03
7928.88
7895.33
7838.67
7768.39
7690.65
7598.89
7494.69
7383.43
7267.55
7150.9
7033.37
6915.86
6799.86
6685.72
6574.18
6465.29
6359.12
6255.72
6154.56
6056.15
5959.13
5864.35
5770.78
5678.13
5585.79
5494.56
5404.52
5315.62
5227.6
5140.5
5054.22
4968.92
4884.3
4800.88
4717.97
4636.44
4555.33
4476.03
4396.84
4320.16
4242.84
4169.31
4093.63
4024.07
3949.39
3885.21
3810.05
3753.66
3674.72
3632.53
3530.14
24541.7
23481.1
22633
21638.8
20720.8
19761.8
18636.8
17483.7
16245
14952.2
13619.1
12290.9
11001.7
9785.16
8659.26
7635.56
6718.63
5906.12
5193.6
4574.42
4039.14
3579.76
3188.32
2854.78
2577.53
2339.63
2147.07
1981.9
1849.41
1740.37
1648.65
1584.44
1524.28
1493.79
1470.51
1472.63
1480.66
1498.53
1534.42
1583.29
1640.47
1713.79
1791.3
1882.14
1974.22
2072.03
2169.33
2266.24
2366.64
2462.39
2559.16
2649.28
2733.51
2814.79
2894.71
2971.33
3042.85
3110.24
3173.19
3233.01
3288.33
3340.47
3388.96
3434.26
3476.38
3514.69
3549.77
3580.04
3607.25
3627.43
3645.63
3653.37
3657.31
3650.54
3648.74
3641.55
3632.08
3617.86
3600.48
3580.22
3557.4
3532.15
3504.98
3475.47
3444.91
3412.22
3379.15
3343.88
3309.13
3271.83
3236.32
3197.42
3162.15
3121.9
3088.37
3046.3
3015.88
2970.58
2946.98
2885.89
5587.16
5510.81
5344.33
5089.46
4776.55
4417.88
4023.74
3619.06
3215.53
2828.34
2465.41
2134.3
1837.09
1575.58
1347.42
1151.21
982.968
840.353
719.361
617.808
532.351
460.924
401.273
351.259
310.065
275.077
246.556
222.266
202.213
185.572
171.29
160.304
150.128
143.814
137.133
134.38
131.3
131.303
132.682
135.051
138.957
145.794
154.084
166.755
179.547
196.094
213.119
233.011
254.97
278.779
304.679
333.57
362.481
395.874
429.848
467.919
506.264
548.679
591.945
639.241
687.696
740.14
794.34
852.53
912.564
975.995
1040.69
1107.34
1174.31
1241.87
1307.81
1373.46
1437.87
1500.15
1559.77
1616.47
1669.57
1719.16
1764.54
1806.16
1843.5
1876.97
1906.63
1932.17
1954.48
1973.08
1988.84
2001.36
2011.4
2018.37
2023.46
2026.43
2027.06
2029.26
2028.62
2025.92
2022.83
2017.28
2014.3
2003.56
1008.83
1072.94
1071.76
1058.19
1028.95
983.598
926.543
860.613
789.005
715.155
641.842
571.558
505.763
445.608
391.297
343.118
300.559
263.548
231.272
203.583
179.66
159.272
141.696
126.728
113.882
102.885
93.4609
85.3626
78.3602
72.3541
67.0949
62.5921
58.5646
55.203
52.0548
49.4826
47.087
45.1036
43.2449
41.6888
40.2028
39.0297
37.8808
37.0375
36.2023
35.6275
35.0792
34.7806
34.5326
34.5718
34.7664
35.1786
35.6904
36.763
37.6818
39.5269
41.0296
43.8523
46.372
50.3678
54.293
59.923
65.8064
73.7529
82.2921
93.284
105.185
119.798
135.583
154.366
174.303
197.391
221.467
248.704
276.587
307.492
338.492
372.21
405.42
440.882
475.304
511.351
545.954
581.764
615.387
650.298
682.303
715.935
745.899
778.711
806.693
838.743
864.318
895.794
918.721
949.77
969.372
1000.09
1016.39
1048.76
469.088
465.669
458.253
445.36
428.354
407.813
384.264
358.431
331.201
303.553
276.252
250.061
225.359
202.563
181.701
162.96
146.134
131.315
118.149
106.715
96.6163
87.8887
80.2239
73.6211
67.842
62.8452
58.4848
54.6825
51.3524
48.4388
45.8556
43.5822
41.5401
39.7509
38.0764
36.6422
35.2942
34.1049
32.9821
31.9796
31.0296
30.1815
29.3601
28.6393
27.9201
27.2867
26.6445
26.0828
25.5077
25.0089
24.4884
24.0459
23.567
23.1758
22.7388
22.3958
21.9963
21.7012
21.3436
21.0996
20.7927
20.6035
20.3709
20.2424
20.1241
20.0916
20.1246
20.2406
20.4422
20.8875
21.3299
22.2387
23.026
24.5979
25.846
28.3327
30.1474
33.8495
36.3292
41.5159
44.8006
51.6231
55.8262
64.4187
69.5912
80.1082
86.307
98.8996
106.205
121.048
129.567
146.861
156.61
176.618
187.725
210.444
222.917
248.57
260.321
297.224
227.381
226.344
223.416
218.75
211.868
203.297
193.363
182.361
170.712
158.8
146.936
135.431
124.431
114.131
104.569
95.8266
87.8733
80.7382
74.319
68.6479
63.5672
59.1362
55.2014
51.7739
48.7393
46.0782
43.7338
41.6439
39.8044
38.1457
36.6621
35.3162
34.0974
32.977
31.9336
30.9991
30.109
29.2971
28.522
27.8086
27.1346
26.5098
25.9128
25.3641
24.8285
24.3363
23.85
23.4034
22.9607
22.5554
22.148
21.7771
21.3967
21.0528
20.6956
20.3743
20.0361
19.7358
19.4143
19.134
18.8263
18.5645
18.2675
18.0226
17.7343
17.5037
17.2235
17.0104
16.7437
16.5509
16.2979
16.125
15.8868
15.7339
15.513
15.3809
15.1834
15.0741
14.9099
14.8251
14.712
14.6541
14.6155
14.6353
14.6575
14.7761
14.8744
15.1497
15.3448
15.8499
16.1842
17.0204
17.5599
18.8402
19.7216
21.5615
22.9474
25.496
27.8363
32.0886
122.097
121.701
120.784
118.819
116.049
112.467
108.264
103.512
98.4419
93.1508
87.8128
82.5313
77.391
72.4977
67.8569
63.5507
59.5599
55.9202
52.605
49.6194
46.9292
44.5357
42.3714
40.4586
38.7185
37.1778
35.7678
34.4953
33.3409
32.26
31.3006
30.36
29.5496
28.7208
28.0035
27.291
26.6391
26.0046
25.4178
24.8424
24.3243
23.7993
23.3293
22.8572
22.4317
22.0043
21.6171
21.2248
20.8693
20.5074
20.1787
19.8415
19.5333
19.2161
18.9255
18.6257
18.3513
18.0674
17.8085
17.5394
17.2948
17.0394
16.808
16.5652
16.3466
16.1162
15.9092
15.6908
15.4949
15.2876
15.1013
14.9038
14.7261
14.537
14.3666
14.1854
14.0209
13.8469
13.6878
13.521
13.3665
13.2069
13.0564
12.9044
12.7578
12.6139
12.4717
12.3358
12.1995
12.0715
11.9435
11.823
11.7066
11.5938
11.4937
11.3894
11.3123
11.2193
11.1755
11.0955
76.8645
76.6894
76.1334
75.1556
73.8128
72.1006
70.0973
67.8264
65.4
62.8407
60.2234
57.5902
54.9737
52.454
50.006
47.7367
45.5754
43.5985
41.7557
40.067
38.5085
37.0824
35.7749
34.5743
33.466
32.4494
31.4894
30.6169
29.7724
29.0125
28.2701
27.5905
26.9448
26.3149
25.7487
25.1623
24.644
24.1084
23.6187
23.1328
22.6856
22.2291
21.8223
21.4062
21.0364
20.6573
20.322
19.9727
19.6663
19.3427
19.0603
18.7565
18.4919
18.2025
17.9518
17.674
17.4354
17.1684
16.9416
16.6854
16.4704
16.2248
16.0218
15.7867
15.5953
15.3705
15.1903
14.975
14.805
14.5985
14.438
14.2394
14.0877
13.896
13.7524
13.5667
13.4305
13.25
13.1205
12.9444
12.8211
12.6489
12.5315
12.3631
12.2513
12.0864
11.9801
11.8188
11.718
11.5605
11.4651
11.3113
11.2212
11.0709
10.9861
10.8391
10.7588
10.6169
10.5294
10.37
56.709
56.4234
55.9636
55.2921
54.4537
53.4441
52.3115
51.0408
49.7031
48.2701
46.8269
45.323
43.8591
42.3754
40.9736
39.5935
38.3036
37.0682
35.9064
34.8157
33.784
32.8231
31.903
31.0458
30.2184
29.4432
28.6987
27.9962
27.3328
26.6962
26.1082
25.5289
25.0024
24.472
23.9835
23.5001
23.0425
22.5811
22.1583
21.7296
21.3344
20.937
20.5765
20.2069
19.8741
19.5351
19.2306
18.9159
18.6346
18.3399
18.0778
17.7987
17.5516
17.285
17.0506
16.7949
16.5725
16.3274
16.117
15.882
15.6829
15.4577
15.2698
15.054
14.8767
14.6698
14.5023
14.3037
14.1455
13.9542
13.8044
13.6198
13.4778
13.2992
13.1643
12.9907
12.8623
12.6934
12.5712
12.4064
12.2902
12.1291
12.0183
11.8605
11.7549
11.6003
11.4995
11.348
11.2522
11.1036
11.0128
10.8674
10.7816
10.6393
10.5585
10.4193
10.3431
10.2086
10.1261
9.9757
46.8869
46.5233
46.1394
45.6311
45.016
44.3253
43.5579
42.7415
41.8658
40.9652
40.0228
39.0759
38.1111
37.1572
36.2125
35.2877
34.3956
33.5246
32.6919
31.8807
31.1026
30.3427
29.613
28.9036
28.2234
27.5659
26.9402
26.3429
25.7713
25.2315
24.7128
24.2164
23.75
23.2793
22.8558
22.4089
22.01
21.5862
21.2028
20.8191
20.46
20.0918
19.7617
19.4213
19.1165
18.7977
18.5138
18.2161
17.952
17.672
17.4254
17.1609
16.9299
16.6789
16.4618
16.223
16.0185
15.7904
15.597
15.378
15.1945
14.9835
14.8093
14.6058
14.4405
14.2443
14.0874
13.8979
13.7485
13.5651
13.4227
13.2448
13.109
12.9364
12.8071
12.6395
12.5166
12.3538
12.2373
12.0789
11.9685
11.8141
11.7092
11.5584
11.4587
11.311
11.2159
11.071
10.9805
10.8381
10.7522
10.6121
10.5306
10.3928
10.3156
10.18
10.1066
9.97496
9.8953
9.74866
41.4882
41.1197
40.7464
40.3288
39.8284
39.2978
38.7127
38.1056
37.446
36.7781
36.0766
35.3699
34.6434
33.9111
33.176
32.4443
31.7256
31.0152
30.3222
29.6387
28.9714
28.316
27.6826
27.0581
26.4681
25.8833
25.3426
24.8011
24.3057
23.812
23.3559
22.9077
22.4888
22.0749
21.6908
21.3043
20.9474
20.5783
20.2503
19.9083
19.588
19.2632
18.9661
18.653
18.3703
18.0722
17.8054
17.524
17.2737
17.0085
16.7757
16.5264
16.3104
16.076
15.8749
15.653
15.4639
15.2517
15.0724
14.868
14.6971
14.4995
14.3362
14.1447
13.9889
13.8031
13.6545
13.4743
13.3325
13.1578
13.0225
12.8528
12.7239
12.5591
12.4363
12.2761
12.1593
12.0036
11.8927
11.7411
11.6358
11.4878
11.3876
11.2427
11.147
11.0048
10.9131
10.7732
10.6855
10.548
10.4644
10.3292
10.2499
10.1172
10.0422
9.91205
9.84109
9.71516
9.63846
9.49747
38.1292
37.7482
37.4076
37.0163
36.5821
36.0978
35.6069
35.075
34.5352
33.9692
33.405
32.8123
32.2188
31.5964
30.9821
30.3545
29.7468
29.137
28.546
27.9582
27.3869
26.822
26.2766
25.7394
25.2282
24.7244
24.2501
23.7799
23.3433
22.9085
22.5089
22.1088
21.7437
21.3727
21.0385
20.6919
20.3741
20.0484
19.7495
19.4308
19.1368
18.8359
18.5571
18.2602
17.9921
17.7093
17.4546
17.1844
16.9437
16.6887
16.4657
16.2265
16.0196
15.7948
15.6018
15.3882
15.2056
15
14.8256
14.6264
14.4595
14.2663
14.1067
13.9193
13.7667
13.5849
13.4392
13.2628
13.1237
12.9526
12.8199
12.6538
12.5273
12.3658
12.2453
12.0881
11.9733
11.8203
11.7108
11.5616
11.4572
11.3114
11.2118
11.0691
10.9739
10.8341
10.7432
10.6062
10.5195
10.3852
10.3029
10.1713
10.0934
9.96432
9.89088
9.76423
9.69555
9.56911
9.51497
9.33738
35.9475
35.5445
35.1887
34.7961
34.3991
33.94
33.5008
33.0153
32.5426
32.0463
31.5558
31.043
30.5246
29.9837
29.4416
28.8919
28.3555
27.8149
27.2915
26.7637
26.256
25.7479
25.2627
24.7824
24.3276
23.8736
23.4497
23.0213
22.623
22.2196
21.844
21.4688
21.1187
20.7689
20.4465
20.1164
19.8153
19.5032
19.2141
18.9162
18.6432
18.3561
18.0905
17.8131
17.5639
17.2986
17.0633
16.8118
16.5916
16.3554
16.149
15.9232
15.7277
15.5107
15.3227
15.1117
14.9303
14.725
14.5506
14.3518
14.1852
13.9933
13.8349
13.65
13.4999
13.3218
13.1794
13.0076
12.8725
12.7062
12.5776
12.4162
12.2935
12.1364
12.0192
11.8661
11.7541
11.6046
11.4977
11.3517
11.2496
11.107
11.0096
10.8701
10.7772
10.6406
10.5521
10.4184
10.3341
10.2031
10.1231
9.99475
9.91896
9.79322
9.72166
9.59838
9.53068
9.4114
9.33794
9.20349
34.378
33.9639
33.6279
33.2332
32.8631
32.4051
32.0042
31.5332
31.107
30.6407
30.2037
29.727
29.2612
28.7625
28.2759
27.7795
27.3046
26.8165
26.3494
25.8699
25.4165
24.9575
24.5287
24.0991
23.6937
23.289
22.9027
22.5086
22.1355
21.7508
21.394
21.0285
20.6913
20.3472
20.0299
19.7057
19.4081
19.0973
18.8196
18.5327
18.2631
17.9911
17.7475
17.4928
17.2648
17.0237
16.8101
16.5837
16.3838
16.1655
15.9723
15.7571
15.5652
15.3497
15.1598
14.9473
14.763
14.5561
14.3798
14.1808
14.0143
13.824
13.6672
13.4851
13.3371
13.1621
13.0219
12.8531
12.7197
12.5563
12.4291
12.2703
12.1489
11.9943
11.8784
11.7277
11.6169
11.4699
11.3643
11.2207
11.1201
10.9798
10.884
10.7469
10.6558
10.5216
10.435
10.3036
10.2213
10.0924
10.0142
9.88776
9.81362
9.68936
9.61916
9.4968
9.43075
9.30831
9.25584
9.08404
33.3284
32.9149
32.5423
32.1815
31.8037
31.3872
30.9838
30.5587
30.1311
29.7073
29.2913
28.8634
28.4316
27.9818
27.5233
27.0643
26.6077
26.1506
25.7018
25.2511
24.8179
24.3867
23.9824
23.5771
23.2009
22.8184
22.4569
22.0821
21.7272
21.3601
21.0147
20.6586
20.3281
19.9865
19.6753
19.3523
19.0614
18.7591
18.488
18.206
17.9508
17.6904
17.4556
17.2076
16.9879
16.7557
16.547
16.3207
16.1176
15.8959
15.6972
15.4792
15.2867
15.0754
14.8911
14.6878
14.5133
14.3184
14.1526
13.9646
13.8068
13.6259
13.4757
13.3008
13.1573
12.9878
12.8506
12.6864
12.5557
12.3962
12.2715
12.1164
11.9975
11.8465
11.7328
11.5854
11.4768
11.3328
11.2292
11.0885
10.9899
10.8523
10.7585
10.6238
10.5346
10.4026
10.3177
10.1882
10.1075
9.98038
9.90369
9.77886
9.70609
9.5834
9.51444
9.39364
9.32868
9.20779
9.15598
8.98681
32.4416
32.0456
31.683
31.324
30.9449
30.5487
30.1538
29.7491
29.3409
28.9426
28.543
28.1344
27.7283
27.3094
26.8909
26.4635
26.0396
25.6054
25.182
24.7546
24.3424
23.9292
23.5302
23.1343
22.754
22.3723
22.0074
21.6378
21.2912
20.9337
20.6035
20.2616
19.9467
19.6223
19.3256
19.0184
18.7434
18.4531
18.1963
17.9235
17.68
17.4262
17.1961
16.9539
16.7364
16.4999
16.2895
16.0622
15.8621
15.6452
15.456
15.249
15.0685
14.8692
14.6958
14.5032
14.3371
14.1502
13.9919
13.8117
13.6602
13.4854
13.3404
13.1701
13.03
12.864
12.7293
12.5679
12.439
12.282
12.1588
12.006
11.8882
11.7395
11.627
11.4821
11.3747
11.2333
11.1311
10.9929
10.8956
10.7605
10.6681
10.5358
10.4478
10.318
10.2342
10.1067
10.027
9.90158
9.82574
9.70236
9.63033
9.50888
9.44059
9.32088
9.25658
9.13676
9.08542
8.91819
31.863
31.4584
31.0882
30.7129
30.3409
29.9151
29.5507
29.1445
28.7564
28.3652
28.0139
27.629
27.2689
26.8584
26.4615
26.033
25.6295
25.2121
24.8174
24.4148
24.0311
23.6313
23.2453
22.8439
22.4563
22.062
21.6865
21.3121
20.9612
20.6105
20.2882
19.9615
19.6647
19.3601
19.0799
18.7957
18.5356
18.2609
18.0161
17.7563
17.5214
17.2748
17.0527
16.812
16.5946
16.3618
16.1545
15.9287
15.7322
15.5174
15.3318
15.1286
14.9532
14.7562
14.587
14.3979
14.2366
14.0549
13.9
13.7219
13.5728
13.3987
13.2536
13.0838
12.944
12.7781
12.6436
12.4822
12.3535
12.197
12.0744
11.9227
11.8057
11.6582
11.5465
11.4028
11.2961
11.156
11.0542
10.9176
10.8206
10.6873
10.595
10.4644
10.3766
10.2486
10.165
10.0393
9.9598
9.83619
9.76071
9.63908
9.5675
9.4478
9.38005
9.26209
9.19844
9.08037
9.02986
8.86426
31.3626
30.9714
30.6195
30.2927
29.8967
29.5007
29.1102
28.6851
28.281
27.8837
27.4998
27.1015
26.7239
26.3254
25.9456
25.5523
25.1723
24.7723
24.3831
23.9765
23.5742
23.1635
22.7681
22.3689
21.9922
21.6146
21.2618
20.9108
20.5857
20.2633
19.9693
19.6735
19.4078
19.1324
18.8868
18.6281
18.3862
18.1353
17.8993
17.6432
17.4092
17.1555
16.9214
16.6757
16.4556
16.2192
16.0097
15.7886
15.5978
15.3904
15.2117
15.0141
14.845
14.6569
14.4982
14.3175
14.166
13.9895
13.8406
13.6682
13.5216
13.3493
13.2078
13.0385
12.9004
12.7345
12.6006
12.4393
12.3108
12.154
12.0317
11.8797
11.7633
11.6158
11.5051
11.3618
11.2563
11.1167
11.016
10.8797
10.7833
10.6501
10.558
10.4274
10.3394
10.2113
10.1271
10.0015
9.92118
9.79774
9.72136
9.60008
9.52773
9.40857
9.3403
9.22323
9.15874
9.0454
8.97558
8.84811
30.9279
30.5282
30.1845
29.8002
29.4381
28.9796
28.6037
28.2009
27.7992
27.4049
27.0236
26.6482
26.2777
25.8894
25.5108
25.113
24.7221
24.3124
23.9178
23.5108
23.1285
22.7431
22.3821
22.0187
21.6798
21.3397
21.0229
20.7014
20.3998
20.0938
19.8093
19.5179
19.2519
18.9775
18.7241
18.4644
18.2223
17.963
17.7292
17.4791
17.25
17.0078
16.7915
16.5619
16.3519
16.1276
15.9304
15.7197
15.5345
15.3316
15.1564
14.9609
14.7932
14.6063
14.4441
14.2614
14.1063
13.9271
13.7775
13.603
13.4559
13.2845
13.1437
12.9772
12.8409
12.6782
12.5477
12.389
12.2639
12.1098
11.9898
11.8395
11.7248
11.5783
11.469
11.3262
11.2219
11.0826
10.9828
10.8467
10.7514
10.6179
10.5267
10.3957
10.3083
10.1796
10.096
9.96969
9.88995
9.76596
9.69008
9.56815
9.49619
9.37617
9.30806
9.18988
9.1253
9.01057
8.94074
8.81273
30.8212
30.3906
30.0019
29.6895
29.2631
28.9001
28.4979
28.0745
27.6752
27.2642
26.8594
26.4675
26.0796
25.665
25.2623
24.8542
24.4615
24.0626
23.6839
23.2955
22.9302
22.5591
22.2126
21.8616
21.5332
21.2002
20.8855
20.5656
20.2636
19.955
19.6699
19.3736
19.1051
18.8222
18.5695
18.3028
18.0625
17.8126
17.5793
17.3353
17.1196
16.8871
16.6775
16.4543
16.2531
16.0372
15.8427
15.6309
15.4466
15.2443
15.0645
14.8659
14.6934
14.4981
14.3298
14.1436
13.9831
13.8021
13.6498
13.4739
13.3277
13.1574
13.0181
12.8536
12.7198
12.5599
12.4321
12.2765
12.154
12.0024
11.8846
11.7368
11.6238
11.4795
11.3715
11.2309
11.1275
10.99
10.8914
10.757
10.6627
10.5314
10.4415
10.3129
10.2272
10.1011
10.0194
9.89557
9.81773
9.69596
9.62186
9.5019
9.4315
9.31321
9.24652
9.12982
9.06712
8.95021
8.90021
8.73787
30.4192
29.999
29.6946
29.2646
28.9268
28.4586
28.0833
27.6843
27.2873
26.9193
26.5182
26.1543
25.7787
25.3786
24.9955
24.6023
24.2192
23.833
23.4649
23.0936
22.7437
22.3883
22.0508
21.7069
21.3813
21.0501
20.7384
20.42
20.1218
19.8171
19.5333
19.2421
18.9764
18.7004
18.4523
18.1928
17.9571
17.7059
17.481
17.2444
17.0287
16.7975
16.591
16.3703
16.1704
15.952
15.7583
15.5493
15.365
15.1616
14.9845
14.7883
14.6179
14.4277
14.2639
14.0799
13.9225
13.744
13.594
13.4206
13.2766
13.1079
12.9698
12.8063
12.673
12.5137
12.3861
12.2309
12.1085
11.9576
11.8405
11.6932
11.581
11.4376
11.3303
11.1905
11.0878
10.9514
10.8535
10.7202
10.6268
10.4965
10.4073
10.2798
10.1949
10.0699
9.98923
9.86658
9.78976
9.66933
9.59639
9.47776
9.40839
9.29134
9.22552
9.1101
9.04738
8.93522
8.86704
8.74133
30.3887
30.0058
29.6796
29.2733
28.8594
28.4821
28.1266
27.7167
27.2923
26.873
26.4884
26.113
25.7257
25.3135
24.9208
24.5214
24.132
23.7381
23.3636
22.9866
22.6323
22.2729
21.9346
21.59
21.2668
20.9381
20.6311
20.3208
20.0307
19.7352
19.4616
19.1776
18.9187
18.6479
18.4015
18.1431
17.9085
17.6616
17.4358
17.199
16.9845
16.7536
16.5488
16.3289
16.1299
15.9147
15.723
15.5155
15.3321
15.1311
14.9556
14.7604
14.5918
14.4027
14.2408
14.0576
13.902
13.7248
13.5757
13.4035
13.26
13.0928
12.9553
12.7922
12.6599
12.5012
12.3743
12.2197
12.0978
11.9472
11.8304
11.6834
11.5714
11.4282
11.3211
11.1813
11.0789
10.9426
10.8448
10.7116
10.6184
10.4882
10.3993
10.2719
10.187
10.0621
9.98153
9.85884
9.78215
9.6616
9.58876
9.47017
9.4009
9.28399
9.21824
9.1028
9.04081
8.92509
8.87551
8.71433
30.1227
29.6625
29.3252
28.9462
28.5071
28.0893
27.6766
27.2391
26.8533
26.472
26.0902
25.7358
25.3626
24.9806
24.6116
24.2372
23.8747
23.5129
23.1733
22.8214
22.4907
22.1527
21.8333
21.5065
21.1981
20.8829
20.586
20.2836
20
19.7091
19.4395
19.1584
18.9014
18.632
18.3859
18.1291
17.8941
17.6472
17.4227
17.1857
16.9722
16.7432
16.5378
16.3185
16.121
15.9068
15.7161
15.5092
15.3267
15.126
14.9507
14.756
14.588
14.3992
14.2373
14.0547
13.8992
13.7221
13.5731
13.4011
13.2579
13.0905
12.9533
12.7907
12.6586
12.5
12.3731
12.2185
12.0968
11.9462
11.8294
11.6826
11.5707
11.4274
11.3203
11.1805
11.0781
10.9416
10.8437
10.7104
10.617
10.4865
10.3976
10.2699
10.185
10.0599
9.9793
9.85638
9.77963
9.6588
9.58582
9.46692
9.39755
9.28032
9.21449
9.09877
9.0367
8.92075
8.87109
8.70987
53.7306
54.8215
60.124
62.1847
68.5904
75.8679
89.8578
130.346
251.655
972.009
46.9817
48.2483
50.3549
53.4705
56.9173
63.201
69.8618
83.4327
119.287
470.541
44.2836
45.156
46.2368
47.5733
50.1213
53.4887
58.7045
65.5941
76.9445
227.972
41.3836
42.1115
42.5295
43.9494
45.0015
47.7563
49.9587
55.7299
60.232
122.026
39.6828
40.1574
40.3966
41.3013
41.8706
43.6994
44.895
48.6367
51.0995
76.9768
38.1646
38.463
38.5723
39.1296
39.4941
40.717
41.4521
43.7715
45.2709
56.8616
37.143
37.2104
37.238
37.5492
37.7558
38.5169
38.9896
40.4501
41.3928
47.0392
36.2772
36.2037
36.1726
36.2847
36.3878
36.8117
37.0927
38.0069
38.5972
41.6345
35.6795
35.553
35.4038
35.4045
35.4183
35.5972
35.7352
36.2498
36.6034
38.2918
35.1537
34.9398
34.7749
34.667
34.6348
34.6616
34.7006
34.9476
35.1313
36.1238
34.8165
34.5575
34.3184
34.1448
34.0187
33.9394
33.9187
33.9786
34.0415
34.5845
34.4679
34.2133
33.9792
33.7046
33.5913
33.409
33.2955
33.2558
33.2507
33.5512
34.2325
33.8778
33.7071
33.3902
33.1639
33.0074
32.8075
32.6598
32.555
32.6897
34.0534
33.6663
33.4114
33.1814
32.9025
32.7105
32.4665
32.33
32.0817
32.1269
33.8539
33.5334
33.1909
32.9208
32.5935
32.4363
32.128
31.974
31.6615
31.6113
33.7709
33.4033
33.0899
32.8495
32.4479
32.2507
31.9118
31.7281
31.3779
31.2785
33.7038
33.3654
32.9653
32.7288
32.3201
32.1293
31.8246
31.5611
31.2483
31.0698
33.5853
33.2308
32.8212
32.5883
32.1647
31.8741
31.5967
31.3227
30.9597
30.8042
33.6148
33.3045
32.8463
32.5913
32.229
31.8999
31.6368
31.2627
30.9871
30.8011
33.5091
33.1427
32.7038
32.4832
32.096
31.7029
31.4924
31.1014
30.7971
30.5328
52.8064
57.8208
67.0761
83.4595
112.567
160.096
318.371
1251.87
10744.2
21410.7
52.8566
57.1745
66.8348
82.5602
111.076
170.777
363.17
1465.04
12627
22663
53.0733
56.8267
66.9296
84.3457
119.12
168.49
355.934
1518.34
12992.8
23368.5
54.4927
57.6165
66.3529
82.753
117.911
185.398
414.432
1698.36
14598.6
24820.1
54.7462
57.9117
68.3575
87.3258
125.536
181.171
406.707
1913.34
15109.2
25555.2
56.2702
59.4197
68.6048
87.2079
131.632
216.067
501.147
2100.7
15644.6
26168.4
56.1797
59.3988
69.0355
89.373
132.219
213.387
488.267
2472.66
18655.9
26614.4
58.6732
62.111
74.6586
98.3229
153.661
250.925
631.343
3018.16
18929.8
27138.6
59.1298
62.9908
76.259
101.378
155.894
262.132
653.006
3467.31
19691.9
27544.8
61.2922
65.5693
80.8712
113.253
178.779
325.126
994.732
4726.19
20561.5
27942.7
54.9034
60.3433
67.0303
83.6115
100.48
172.7
264.182
971.956
5681.44
15057.8
55.5603
59.3639
66.6728
79.085
96.6106
152.205
237.522
813.535
5140.54
14432.1
55.5707
61.1487
68.4127
81.4006
100.88
152.514
251.979
853.148
5438.36
14711.1
54.8309
60.7273
68.6934
81.7817
105.51
150.847
261.888
927.132
5882.28
15473
55.0953
59.6916
68.6115
81.5248
103.651
161.292
261.377
926.248
6698.83
16427.6
53.8941
59.703
66.7533
81.2508
104.126
153.783
298.309
1039.38
7200.09
17138.3
54.6376
59.3773
67.4515
79.1373
103.123
162.681
300.6
1043.29
7256.79
17906.7
53.847
58.4133
68.4821
80.6601
103.461
161.517
305.02
1145.1
8564.62
18727.5
54.4994
58.0263
67.7876
82.107
104.726
157.063
300.096
1115.87
8779.11
19581.6
53.8905
58.6401
67.1029
84.1788
104.918
160.602
326.141
1280.28
10518.9
20582.3
13884.3
10419.5
8076.77
6427.02
5225.2
4325.23
3634.8
3094.69
2664.38
2316.65
2031.54
1795.35
1597.26
1429.91
1286.99
1164.31
1057.96
965.487
884.296
812.94
749.607
693.444
643.122
598.159
557.533
521.003
487.746
457.681
430.121
405.093
382.005
360.96
341.428
323.572
306.904
291.63
277.292
264.131
251.709
240.294
229.459
219.499
209.99
201.253
192.861
185.157
177.712
170.889
164.251
158.183
152.236
146.82
141.469
136.618
131.784
127.425
123.039
119.112
115.118
111.571
107.919
104.709
101.359
98.4467
95.3633
92.7171
89.8695
87.4612
84.8234
82.6282
80.1783
78.1742
75.8938
74.0615
71.9345
70.2574
68.27
66.7339
64.8747
63.4674
61.7272
60.4387
58.8109
57.6335
56.1146
55.0436
53.6347
52.6705
51.379
50.5306
49.3768
48.6647
47.7054
47.1739
46.538
46.3095
46.4352
46.9048
48.3789
51.1585
13882.7
10416.7
8073.53
6423.8
5222.11
4322.4
3632.17
3092.31
2662.18
2314.68
2029.71
1793.7
1595.73
1428.53
1285.69
1163.14
1056.84
964.478
883.332
812.067
748.766
692.684
642.382
597.492