/*--------------------------------*- C++ -*----------------------------------*\
  =========                 |
  \\      /  F ield         | OpenFOAM: The Open Source CFD Toolbox
   \\    /   O peration     | Website:  https://openfoam.org
    \\  /    A nd           | Version:  8
     \\/     M anipulation  |
\*---------------------------------------------------------------------------*/
FoamFile
{
    version     2.0;
    format      ascii;
    class       volScalarField;
    location    "19.5000376192658642";
    object      I;
}
// * * * * * * * * * * * * * * * * * * * * * * * * * * * * * * * * * * * * * //

dimensions      [0 -3 -1 0 0 0 0];

internalField   nonuniform List<scalar> 
6800
(
15820.4
11955.1
15091.5
32751
148959
3.77708e+06
2.71207e+07
5.83995e+07
7.77211e+07
8.42155e+07
11650
12714.9
28755.6
209049
8.94891e+06
4.31848e+07
7.66635e+07
9.18237e+07
9.34626e+07
8.90135e+07
20334.1
33259.2
186134
9.39521e+06
5.20081e+07
9.53666e+07
1.04529e+08
9.8327e+07
9.01802e+07
7.47539e+07
18721.9
378235
2.70095e+06
4.1875e+07
1.00513e+08
1.12712e+08
1.11509e+08
9.67431e+07
8.21379e+07
6.66893e+07
57449.2
6.35604e+06
2.09789e+07
1.02088e+08
1.23712e+08
1.28345e+08
1.1032e+08
8.88997e+07
7.52586e+07
6.54672e+07
30351
1.24949e+07
3.29482e+07
1.31338e+08
1.2384e+08
1.20621e+08
1.00092e+08
8.05162e+07
7.05893e+07
6.69411e+07
58049.4
6.82743e+07
1.4718e+08
2.56129e+08
1.44399e+08
1.1823e+08
9.96845e+07
8.67576e+07
8.20121e+07
8.2034e+07
1.21577e+06
3.18047e+08
2.26048e+08
3.19034e+08
1.52632e+08
1.23303e+08
1.0751e+08
8.34457e+07
8.03089e+07
8.67033e+07
4.75693e+06
7.83586e+08
5.26568e+08
5.92696e+08
2.1869e+08
1.38222e+08
9.56347e+07
9.22289e+07
8.00882e+07
8.43194e+07
7.37163e+07
2.04578e+09
4.89081e+08
6.95634e+08
2.97402e+08
1.65222e+08
1.2867e+08
1.24637e+08
1.04352e+08
1.03141e+08
16414.9
15513.3
14685.5
14555.3
14663.4
14899.7
15239.8
15625.4
16033.1
16437.2
16451.2
15455
14709.9
14544.9
14646.4
14870.6
15209.4
15615.7
16074.4
16555.2
16508.9
15363.8
14713.8
14553.1
14640.4
14846.3
15194.8
15632.6
16174.3
16836.7
16676
15347.5
14734.8
14575.5
14636.9
14836.9
15148
15545.8
16098.6
17003.2
16712.5
15314.6
14760.3
14607
14674.1
14891.4
15197.7
15527.2
15970.8
16904.5
16608.9
15237.8
14731.8
14661.4
14877.8
15304.1
15908
16368.2
16494.6
17494.9
16281.7
15112.5
14671.9
14920.9
15440.7
16425
18138.2
20169
22172.8
33067.2
16348.9
14873.4
14683.1
15154.2
16177
18556
24086.9
37097.3
61174.7
273704
15854
14451.8
14338.5
15264.7
18084.4
27855.5
61279.9
213114
785079
1.15143e+07
17162.1
13784.9
13069.5
17056.8
30092.5
102687
736115
8.91259e+06
3.19138e+07
6.21365e+07
16917.9
17564.4
18125.6
18542.2
18845.1
19037.6
19131.7
19141.6
19093.2
19016.8
18930.3
18861.7
18824.4
18831.8
18930.1
19089.8
19345.4
19723.6
20207
20836.4
21619.9
22572.8
23699.6
24974.5
26476
28195.6
30147.4
32346.4
34806.8
37541.2
40560.1
43873.1
47479.1
51481.2
55593.7
60021.2
64737.2
69702.7
74899.7
80317.2
85938.5
91745.6
97723.4
103862
110165
116652
123352
130293
137508
145026
152879
161119
169822
179090
189024
199692
211115
223270
236106
249543
263483
277813
292413
307161
321939
336638
351159
365417
379342
392881
405996
418668
430891
442674
454040
465020
475656
486001
496112
506050
515882
525668
535473
545348
555358
565530
575943
586569
597552
608720
620430
632110
644744
656701
670594
682300
697839
709031
724650
740936
17157.4
17959.6
18624.6
19135.2
19501.5
19730.7
19835.1
19823.9
19723.7
19580.9
19413.5
19265.1
19126.8
19021.3
18992.7
19049.1
19202.8
19457.4
19826.6
20329.9
20980.9
21795.5
22799.8
23934
25273.9
26836.8
28623
30645.8
32918.2
35450.4
38251.3
41329.1
44676.5
48394.2
52212.3
56306.1
60665.4
65257.7
70076.1
75112.2
80352.2
85782.6
91393.5
97180.3
103155
109346
115786
122504
129530
136889
144610
152743
161360
170562
180443
191051
202376
214374
226977
240095
253630
267472
281513
295645
309767
323785
337618
351199
364471
377394
389938
402092
413859
425249
436285
447000
457436
467640
477668
487577
497427
507274
517176
527176
537333
547666
558248
569044
580193
591516
603366
615169
627889
639935
653811
665621
680940
692360
707608
723831
17563.3
18651.7
19530.3
20217.5
20713.1
20999.7
21097.3
21010.4
20807.8
20550.9
20239.5
19906.7
19620.5
19363.6
19148
19001.9
18953.6
19005.6
19173.8
19473.8
19919.1
20523.2
21312.6
22273.2
23370.9
24697.5
26242.8
28011.8
30013.9
32254
34736.5
37468.6
40432.3
43714.6
47088.8
50666.5
54489.6
58525.3
62772.3
67229.6
71888
76741.6
81788.3
87031.1
92495.7
98223.4
104253
110614
117329
124419
131903
139823
148246
157273
166989
177408
188472
200099
212197
224669
237420
250356
263390
276441
289438
302311
315010
327493
339723
351672
363323
374677
385741
396529
407062
417370
427492
437471
447358
457203
467059
476970
486986
497138
507474
518001
528785
539777
551112
562597
574578
586486
599236
611336
625059
636961
651775
663538
677773
694405
17913.1
19528.4
20732.6
21658.3
22343.6
22733.4
22818.3
22701.7
22423.3
22004.7
21495.8
20936.6
20387.9
19881.4
19430.8
19059.3
18791.3
18643.6
18629
18754.7
19031.5
19470.9
20089.1
20933.9
21871
23014.5
24401.2
25997.4
27813.7
29846.3
32093.1
34559.7
37226
40144
43154.3
46281.1
49629
53149.4
56857.3
60764.8
64863.8
69157.1
73651.7
78358.6
83327.2
88620.3
94281.5
100330
106786
113661
120959
128717
136992
145890
155495
165756
176539
187709
199155
210783
222513
234278
246028
257720
269322
280807
292153
303341
314345
325147
335742
346144
356368
366427
376338
386126
395827
405481
415136
424834
434621
444530
454596
464840
475296
485957
496879
507999
519444
531010
543024
554939
567582
579634
592998
604927
618908
631052
643749
660925
18360.3
20825.6
22547.4
23761.2
24688.1
25187.3
25274.8
25059.9
24639.4
24053.8
23348.2
22567
21783.1
21048.8
20390.1
19833.9
19404.4
19118.7
18989.9
19021.7
19228.3
19623.9
20214.5
21067.4
22021.6
23195.4
24633.4
26281.5
28154.3
30228.9
32493.4
34951
37589.9
40389.1
43271
46188.1
49301.6
52578
56029.4
59677.5
63502.1
67513.6
71728.1
76157
80885.3
86006.4
91570.1
97576.4
104046
110986
118377
126256
134656
143708
153520
163941
174705
185608
196536
207407
218179
228825
239337
249720
259983
270123
280156
290089
299891
309548
319067
328487
337832
347109
356326
365505
374684
383906
393217
402657
412261
422055
432058
442276
452730
463399
474327
485441
496851
508352
520229
531993
544321
556168
568908
580734
593546
605986
616759
634376
20690.5
24107.5
26646.9
28190.1
29276.1
29792
29796.5
29416.2
28779.8
28019.9
27204.8
26313.4
25394.5
24536.3
23770.8
23150.9
22712.6
22467.1
22435.6
22613.1
23033.9
23721.9
24697.7
25922.2
27375.5
29158.1
31219.5
33516
36082.2
38837.2
41750.3
44817.1
48068.3
51345.1
54546.1
57858.1
61159.3
64645.9
68271.9
72104.3
76077.9
80227.7
84583.2
89134
94060
99515.1
105561
112132
119263
126957
135140
143866
153084
163000
173834
185181
196481
207436
218009
228183
237999
247494
256731
265780
274711
283515
292284
301037
309670
318163
326550
334928
343341
351768
360195
368648
377179
385839
394684
403748
413057
422628
432451
442521
452841
463386
474175
485138
496346
507626
519175
530623
542412
553889
565754
577309
588712
601211
609927
627774
39170.3
40231.3
42626
43309.1
43533.7
43046.6
42775.8
42205.2
41395.3
40550.4
39718.1
38918.8
38213.2
37569.4
37062.2
36831.8
36973.3
37463.8
38376.1
39654.6
41478.9
43953.3
46817.3
50377.2
54423.6
58986
64012.6
69263.1
74904.2
80544.2
86146.5
91629.8
97243.7
102605
106963
111688
115891
119845
124089
128583
133030
137676
142511
147380
152867
159233
166635
174683
183518
193126
203234
214088
225278
237069
250192
263559
275850
286582
296234
304968
313024
320536
327676
334660
341664
348507
355599
362895
369913
376696
383406
390116
397097
404187
411310
418524
425916
433562
441538
449851
458527
467562
476873
486476
496333
506446
516771
527278
537940
548681
559517
570315
581137
591896
602450
613319
623020
634824
641762
659212
243473
196502
166343
146946
134652
125613
120085
118791
117715
117089
117199
117394
118565
120529
124020
129205
136402
145144
156197
169174
186710
208210
232092
257510
284345
312454
340311
365691
391130
411255
429010
441409
452381
459599
466056
465755
460978
451226
448649
445188
439685
438849
436977
432863
432433
433504
439486
446215
454429
463587
472719
485262
498737
510509
523232
535154
543506
546260
548279
548747
548473
547719
546833
546474
547137
547471
549342
552493
554499
556316
559446
559406
562011
565039
568186
571656
575594
580104
585288
591056
597495
604452
611704
619406
627414
635854
644447
653342
662225
671316
680199
689257
697868
706815
714892
723874
730959
740595
745316
760765
9.1398e+06
7.13762e+06
5.26156e+06
4.16746e+06
3.41456e+06
2.92567e+06
2.58794e+06
2.35724e+06
2.20591e+06
2.12508e+06
2.10294e+06
2.11144e+06
2.20358e+06
2.30115e+06
2.47438e+06
2.68754e+06
2.96745e+06
3.27372e+06
3.63458e+06
4.00045e+06
4.33928e+06
4.6122e+06
4.79168e+06
4.98454e+06
5.12845e+06
5.2353e+06
5.33268e+06
5.35415e+06
5.38606e+06
5.35396e+06
5.27372e+06
5.21141e+06
5.10357e+06
4.88328e+06
4.81675e+06
4.63003e+06
4.45383e+06
4.23631e+06
4.10817e+06
3.92678e+06
3.77361e+06
3.57736e+06
3.37065e+06
3.1547e+06
2.97728e+06
2.81057e+06
2.67195e+06
2.53678e+06
2.41009e+06
2.29428e+06
2.17887e+06
2.10546e+06
2.04993e+06
1.97535e+06
1.89378e+06
1.80964e+06
1.72904e+06
1.65055e+06
1.57902e+06
1.51085e+06
1.44893e+06
1.39352e+06
1.34399e+06
1.30016e+06
1.26179e+06
1.22694e+06
1.19638e+06
1.17006e+06
1.14498e+06
1.12135e+06
1.09898e+06
1.07905e+06
1.06144e+06
1.04571e+06
1.03111e+06
1.01813e+06
1.00679e+06
997263
989719
983646
979758
976401
974169
972919
972772
973850
975028
977176
978988
981688
983595
986480
988122
991051
992283
995102
995994
999087
998956
1.00708e+06
5.90827e+07
5.40019e+07
4.86128e+07
4.46059e+07
4.09473e+07
3.75804e+07
3.42631e+07
3.13039e+07
2.85374e+07
2.64051e+07
2.44699e+07
2.29735e+07
2.16477e+07
2.0558e+07
1.96233e+07
1.87806e+07
1.80484e+07
1.72927e+07
1.66608e+07
1.6007e+07
1.54442e+07
1.49237e+07
1.44506e+07
1.40467e+07
1.36364e+07
1.33048e+07
1.29635e+07
1.26506e+07
1.23958e+07
1.20987e+07
1.1744e+07
1.16278e+07
1.12654e+07
1.10237e+07
1.09361e+07
1.06901e+07
1.05834e+07
1.05057e+07
1.05841e+07
1.05648e+07
1.06167e+07
1.06316e+07
1.06065e+07
1.05895e+07
1.06035e+07
1.05454e+07
1.04589e+07
1.0355e+07
1.03764e+07
1.01807e+07
1.01532e+07
9.75946e+06
9.54438e+06
9.50163e+06
9.36597e+06
9.03114e+06
8.62295e+06
8.13307e+06
7.69257e+06
7.24563e+06
6.81173e+06
6.37718e+06
5.95878e+06
5.55846e+06
5.18233e+06
4.82756e+06
4.49469e+06
4.19216e+06
3.91077e+06
3.65562e+06
3.42335e+06
3.22039e+06
3.03835e+06
2.8785e+06
2.73589e+06
2.61158e+06
2.50163e+06
2.40667e+06
2.3239e+06
2.25188e+06
2.18831e+06
2.13308e+06
2.082e+06
2.03739e+06
1.99514e+06
1.95822e+06
1.9222e+06
1.89094e+06
1.85934e+06
1.83213e+06
1.80351e+06
1.77934e+06
1.75297e+06
1.7311e+06
1.70667e+06
1.68623e+06
1.66424e+06
1.64469e+06
1.62599e+06
1.61064e+06
7.69121e+07
7.153e+07
7.03413e+07
6.82704e+07
6.60109e+07
6.2747e+07
5.82883e+07
5.34138e+07
4.83603e+07
4.37614e+07
3.95977e+07
3.60506e+07
3.29129e+07
3.02813e+07
2.79587e+07
2.58719e+07
2.39918e+07
2.23394e+07
2.09077e+07
1.9632e+07
1.85286e+07
1.75327e+07
1.67667e+07
1.59773e+07
1.53884e+07
1.48527e+07
1.42828e+07
1.39456e+07
1.35075e+07
1.31228e+07
1.27984e+07
1.25674e+07
1.2139e+07
1.19972e+07
1.18054e+07
1.16608e+07
1.16528e+07
1.16814e+07
1.18096e+07
1.18697e+07
1.19721e+07
1.21015e+07
1.22687e+07
1.25646e+07
1.28258e+07
1.30832e+07
1.33303e+07
1.35835e+07
1.39959e+07
1.43521e+07
1.47581e+07
1.50522e+07
1.51752e+07
1.53014e+07
1.53611e+07
1.52988e+07
1.52302e+07
1.5154e+07
1.51e+07
1.50058e+07
1.49096e+07
1.47431e+07
1.46477e+07
1.44799e+07
1.43517e+07
1.4115e+07
1.38388e+07
1.35034e+07
1.31205e+07
1.26859e+07
1.21933e+07
1.16809e+07
1.11511e+07
1.06071e+07
1.00684e+07
9.5305e+06
9.02171e+06
8.52407e+06
8.05856e+06
7.61398e+06
7.19926e+06
6.81551e+06
6.45013e+06
6.1157e+06
5.80341e+06
5.51672e+06
5.24991e+06
5.00503e+06
4.77846e+06
4.57003e+06
4.37939e+06
4.20266e+06
4.04395e+06
3.8912e+06
3.75975e+06
3.62297e+06
3.52051e+06
3.39252e+06
3.31909e+06
3.20155e+06
6.77258e+07
6.4593e+07
6.46777e+07
6.201e+07
5.91585e+07
5.56841e+07
5.22812e+07
4.86713e+07
4.53083e+07
4.19133e+07
3.87385e+07
3.56812e+07
3.28647e+07
3.03038e+07
2.78485e+07
2.57477e+07
2.38786e+07
2.2268e+07
2.07984e+07
1.95698e+07
1.84901e+07
1.75246e+07
1.68101e+07
1.5981e+07
1.54847e+07
1.49212e+07
1.43823e+07
1.41305e+07
1.36362e+07
1.32841e+07
1.31287e+07
1.27125e+07
1.24573e+07
1.23829e+07
1.21393e+07
1.19723e+07
1.20404e+07
1.22212e+07
1.2364e+07
1.23957e+07
1.2456e+07
1.25501e+07
1.27976e+07
1.31488e+07
1.34775e+07
1.36975e+07
1.39485e+07
1.41883e+07
1.45621e+07
1.48642e+07
1.51961e+07
1.53895e+07
1.55182e+07
1.56046e+07
1.56771e+07
1.57135e+07
1.57052e+07
1.57824e+07
1.58303e+07
1.58817e+07
1.59659e+07
1.61248e+07
1.62845e+07
1.63817e+07
1.64836e+07
1.65143e+07
1.65992e+07
1.66241e+07
1.67529e+07
1.68281e+07
1.69784e+07
1.70242e+07
1.70969e+07
1.71604e+07
1.70893e+07
1.69364e+07
1.67948e+07
1.65497e+07
1.63711e+07
1.60916e+07
1.59061e+07
1.55842e+07
1.53755e+07
1.50013e+07
1.47373e+07
1.42969e+07
1.39852e+07
1.34874e+07
1.31388e+07
1.26041e+07
1.22385e+07
1.16893e+07
1.13231e+07
1.07653e+07
1.04144e+07
9.85572e+06
9.53317e+06
8.97826e+06
8.75485e+06
7.99817e+06
6.00299e+07
5.8596e+07
5.63126e+07
5.31816e+07
5.11222e+07
4.9451e+07
4.73856e+07
4.50469e+07
4.23185e+07
3.9512e+07
3.67945e+07
3.42228e+07
3.18801e+07
2.96831e+07
2.77238e+07
2.59707e+07
2.42454e+07
2.27907e+07
2.13376e+07
2.02041e+07
1.90446e+07
1.83004e+07
1.75241e+07
1.68988e+07
1.65077e+07
1.59e+07
1.56418e+07
1.52544e+07
1.48861e+07
1.46683e+07
1.43795e+07
1.40656e+07
1.38194e+07
1.36852e+07
1.3344e+07
1.32485e+07
1.32655e+07
1.32276e+07
1.36461e+07
1.36144e+07
1.36223e+07
1.36256e+07
1.37133e+07
1.40175e+07
1.44126e+07
1.4773e+07
1.50845e+07
1.52893e+07
1.5555e+07
1.57332e+07
1.59395e+07
1.61031e+07
1.62118e+07
1.62986e+07
1.6376e+07
1.63758e+07
1.63974e+07
1.64504e+07
1.64502e+07
1.65247e+07
1.65924e+07
1.6684e+07
1.68153e+07
1.68487e+07
1.69948e+07
1.70522e+07
1.71307e+07
1.7202e+07
1.71374e+07
1.71239e+07
1.7219e+07
1.72716e+07
1.73757e+07
1.76293e+07
1.75079e+07
1.76762e+07
1.75379e+07
1.74388e+07
1.7417e+07
1.74488e+07
1.74804e+07
1.74982e+07
1.75156e+07
1.75259e+07
1.75206e+07
1.74923e+07
1.74974e+07
1.74681e+07
1.74327e+07
1.73859e+07
1.73422e+07
1.7267e+07
1.71745e+07
1.70314e+07
1.69383e+07
1.67648e+07
1.66685e+07
1.64506e+07
1.6367e+07
1.59945e+07
5.61993e+07
5.57946e+07
5.38232e+07
5.09332e+07
4.88572e+07
4.76094e+07
4.59424e+07
4.41481e+07
4.16696e+07
3.91771e+07
3.65977e+07
3.42052e+07
3.21836e+07
3.01418e+07
2.85748e+07
2.6834e+07
2.54565e+07
2.40903e+07
2.28445e+07
2.17709e+07
2.07839e+07
2.00844e+07
1.91939e+07
1.86703e+07
1.80177e+07
1.74169e+07
1.71576e+07
1.64293e+07
1.62785e+07
1.56877e+07
1.53389e+07
1.49725e+07
1.45128e+07
1.42983e+07
1.38199e+07
1.37751e+07
1.36319e+07
1.37342e+07
1.37855e+07
1.36713e+07
1.37621e+07
1.3751e+07
1.38031e+07
1.39878e+07
1.44024e+07
1.48353e+07
1.52125e+07
1.54823e+07
1.57163e+07
1.58905e+07
1.60626e+07
1.62042e+07
1.6295e+07
1.63724e+07
1.64176e+07
1.64102e+07
1.64161e+07
1.64229e+07
1.64102e+07
1.64728e+07
1.64797e+07
1.65959e+07
1.66871e+07
1.67281e+07
1.69134e+07
1.69506e+07
1.68587e+07
1.68444e+07
1.68537e+07
1.69554e+07
1.70113e+07
1.7102e+07
1.73552e+07
1.72141e+07
1.73642e+07
1.72119e+07
1.71757e+07
1.72105e+07
1.7277e+07
1.73329e+07
1.73843e+07
1.74031e+07
1.74374e+07
1.74396e+07
1.74533e+07
1.74477e+07
1.74599e+07
1.74582e+07
1.74649e+07
1.74902e+07
1.74976e+07
1.75362e+07
1.75586e+07
1.76038e+07
1.76295e+07
1.76538e+07
1.77292e+07
1.78156e+07
1.78215e+07
1.78647e+07
5.4224e+07
5.31664e+07
5.3732e+07
5.15568e+07
4.89169e+07
4.68371e+07
4.55745e+07
4.42108e+07
4.23821e+07
4.00364e+07
3.75071e+07
3.51118e+07
3.29101e+07
3.09913e+07
2.9281e+07
2.76583e+07
2.62712e+07
2.48586e+07
2.37167e+07
2.26162e+07
2.17232e+07
2.08257e+07
1.99743e+07
1.92952e+07
1.85703e+07
1.80333e+07
1.75819e+07
1.69827e+07
1.67872e+07
1.60761e+07
1.59143e+07
1.53043e+07
1.50268e+07
1.45921e+07
1.42514e+07
1.40738e+07
1.39397e+07
1.40816e+07
1.38253e+07
1.37874e+07
1.38458e+07
1.37848e+07
1.37756e+07
1.38575e+07
1.40598e+07
1.43881e+07
1.47962e+07
1.51604e+07
1.54455e+07
1.56895e+07
1.58784e+07
1.60251e+07
1.61261e+07
1.6211e+07
1.62621e+07
1.62868e+07
1.62933e+07
1.62956e+07
1.62786e+07
1.62774e+07
1.6265e+07
1.62842e+07
1.62967e+07
1.63153e+07
1.63628e+07
1.64324e+07
1.64804e+07
1.65727e+07
1.66194e+07
1.67303e+07
1.67725e+07
1.68273e+07
1.68635e+07
1.67823e+07
1.67496e+07
1.67901e+07
1.68922e+07
1.69759e+07
1.70671e+07
1.71186e+07
1.71672e+07
1.71894e+07
1.72018e+07
1.72048e+07
1.72006e+07
1.71885e+07
1.71872e+07
1.71844e+07
1.71818e+07
1.71967e+07
1.72213e+07
1.72435e+07
1.72734e+07
1.73237e+07
1.73556e+07
1.74198e+07
1.74683e+07
1.75238e+07
1.75152e+07
1.76676e+07
5.24167e+07
5.15713e+07
5.06026e+07
5.0981e+07
4.98477e+07
4.74297e+07
4.53735e+07
4.33927e+07
4.14539e+07
3.95005e+07
3.73222e+07
3.53166e+07
3.30965e+07
3.13257e+07
2.94112e+07
2.79158e+07
2.65167e+07
2.52342e+07
2.42369e+07
2.31182e+07
2.22501e+07
2.11769e+07
2.03842e+07
1.95218e+07
1.8816e+07
1.82369e+07
1.76625e+07
1.72562e+07
1.682e+07
1.64193e+07
1.6147e+07
1.56306e+07
1.53872e+07
1.49677e+07
1.45248e+07
1.42677e+07
1.41035e+07
1.41191e+07
1.3814e+07
1.37244e+07
1.36312e+07
1.34462e+07
1.34293e+07
1.34597e+07
1.35027e+07
1.36601e+07
1.39871e+07
1.43844e+07
1.47533e+07
1.50412e+07
1.5321e+07
1.54735e+07
1.55671e+07
1.56756e+07
1.573e+07
1.5761e+07
1.5771e+07
1.57629e+07
1.58646e+07
1.58578e+07
1.57696e+07
1.57704e+07
1.57242e+07
1.57631e+07
1.57786e+07
1.58336e+07
1.58323e+07
1.6002e+07
1.60156e+07
1.5908e+07
1.58688e+07
1.59329e+07
1.60513e+07
1.61819e+07
1.63419e+07
1.64814e+07
1.66338e+07
1.67431e+07
1.68622e+07
1.69395e+07
1.70191e+07
1.70669e+07
1.70959e+07
1.71233e+07
1.71256e+07
1.7137e+07
1.71354e+07
1.71607e+07
1.71706e+07
1.71847e+07
1.7214e+07
1.72193e+07
1.72462e+07
1.72564e+07
1.72765e+07
1.72926e+07
1.72705e+07
1.72989e+07
1.73303e+07
1.73791e+07
5.14092e+07
4.97304e+07
4.75813e+07
4.78791e+07
4.82441e+07
4.66341e+07
4.41228e+07
4.15495e+07
3.9896e+07
3.82756e+07
3.61164e+07
3.38412e+07
3.156e+07
2.99114e+07
2.84425e+07
2.74108e+07
2.631e+07
2.52736e+07
2.42686e+07
2.30634e+07
2.20732e+07
2.0954e+07
2.00481e+07
1.91781e+07
1.84164e+07
1.7923e+07
1.73211e+07
1.70357e+07
1.66005e+07
1.62756e+07
1.60297e+07
1.55574e+07
1.53013e+07
1.4915e+07
1.43699e+07
1.40632e+07
1.37822e+07
1.348e+07
1.2924e+07
1.28763e+07
1.27644e+07
1.25769e+07
1.25535e+07
1.25023e+07
1.25357e+07
1.25492e+07
1.26995e+07
1.29794e+07
1.32864e+07
1.35527e+07
1.37633e+07
1.39128e+07
1.40255e+07
1.41039e+07
1.41414e+07
1.41755e+07
1.41926e+07
1.42491e+07
1.42804e+07
1.43584e+07
1.44137e+07
1.45134e+07
1.45947e+07
1.47129e+07
1.48211e+07
1.49502e+07
1.50768e+07
1.52109e+07
1.53499e+07
1.54878e+07
1.56356e+07
1.57771e+07
1.59306e+07
1.6073e+07
1.62244e+07
1.63612e+07
1.65058e+07
1.66363e+07
1.67649e+07
1.68792e+07
1.69757e+07
1.70627e+07
1.71244e+07
1.71739e+07
1.7199e+07
1.72087e+07
1.72057e+07
1.71911e+07
1.7179e+07
1.71626e+07
1.71512e+07
1.71432e+07
1.71397e+07
1.71583e+07
1.71628e+07
1.71956e+07
1.72078e+07
1.72921e+07
1.73412e+07
1.73813e+07
4.79358e+07
4.60971e+07
4.27886e+07
4.29572e+07
4.1398e+07
4.18528e+07
4.05649e+07
3.85544e+07
3.66495e+07
3.45073e+07
3.28915e+07
3.15066e+07
3.03379e+07
2.92753e+07
2.80908e+07
2.6902e+07
2.56428e+07
2.43159e+07
2.3223e+07
2.19137e+07
2.10574e+07
1.99843e+07
1.91685e+07
1.84355e+07
1.77391e+07
1.72621e+07
1.6595e+07
1.64061e+07
1.5827e+07
1.56485e+07
1.52691e+07
1.48221e+07
1.46364e+07
1.39414e+07
1.36176e+07
1.31456e+07
1.27627e+07
1.21885e+07
1.17538e+07
1.19472e+07
1.17136e+07
1.15051e+07
1.14414e+07
1.13899e+07
1.1418e+07
1.13479e+07
1.13679e+07
1.14863e+07
1.16963e+07
1.18818e+07
1.2071e+07
1.22309e+07
1.23995e+07
1.26198e+07
1.28446e+07
1.31311e+07
1.3358e+07
1.36283e+07
1.38221e+07
1.40463e+07
1.42188e+07
1.44084e+07
1.45763e+07
1.47212e+07
1.48797e+07
1.49956e+07
1.5144e+07
1.52486e+07
1.53839e+07
1.54854e+07
1.56202e+07
1.57201e+07
1.58576e+07
1.59593e+07
1.6095e+07
1.62104e+07
1.63332e+07
1.64599e+07
1.65864e+07
1.67039e+07
1.68442e+07
1.69629e+07
1.70975e+07
1.72175e+07
1.73343e+07
1.74405e+07
1.75353e+07
1.76118e+07
1.7696e+07
1.77416e+07
1.7803e+07
1.78573e+07
1.78778e+07
1.79327e+07
1.7956e+07
1.8003e+07
1.80172e+07
1.80973e+07
1.81287e+07
1.81924e+07
4.36854e+07
4.3658e+07
3.98656e+07
3.61597e+07
3.51803e+07
3.55737e+07
3.61507e+07
3.54247e+07
3.31001e+07
3.03913e+07
2.89338e+07
2.78417e+07
2.73202e+07
2.6603e+07
2.58252e+07
2.47588e+07
2.36586e+07
2.2505e+07
2.15067e+07
2.04924e+07
1.98189e+07
1.90085e+07
1.83937e+07
1.77314e+07
1.70945e+07
1.64792e+07
1.5911e+07
1.5411e+07
1.49104e+07
1.44986e+07
1.40111e+07
1.36404e+07
1.32745e+07
1.28382e+07
1.25684e+07
1.2293e+07
1.18625e+07
1.15015e+07
1.15457e+07
1.14521e+07
1.10783e+07
1.09564e+07
1.09527e+07
1.09235e+07
1.08891e+07
1.08599e+07
1.08785e+07
1.08926e+07
1.08934e+07
1.0928e+07
1.1053e+07
1.12234e+07
1.14394e+07
1.17518e+07
1.21047e+07
1.25295e+07
1.2939e+07
1.33334e+07
1.3683e+07
1.39548e+07
1.42169e+07
1.4389e+07
1.45805e+07
1.46802e+07
1.48104e+07
1.48731e+07
1.49754e+07
1.50471e+07
1.51523e+07
1.5248e+07
1.53689e+07
1.54818e+07
1.56171e+07
1.57385e+07
1.58748e+07
1.60013e+07
1.61275e+07
1.62454e+07
1.63629e+07
1.64756e+07
1.65861e+07
1.66913e+07
1.67854e+07
1.6872e+07
1.69378e+07
1.69968e+07
1.70256e+07
1.70502e+07
1.70559e+07
1.70651e+07
1.70672e+07
1.70745e+07
1.70878e+07
1.71128e+07
1.71195e+07
1.71805e+07
1.72061e+07
1.72715e+07
1.72912e+07
1.73976e+07
3.95921e+07
3.96099e+07
3.7973e+07
3.53251e+07
3.37789e+07
3.31367e+07
3.28115e+07
3.21219e+07
3.10108e+07
2.95098e+07
2.84304e+07
2.73964e+07
2.63726e+07
2.50876e+07
2.40149e+07
2.29355e+07
2.21595e+07
2.12435e+07
2.04222e+07
1.96787e+07
1.9167e+07
1.85151e+07
1.79427e+07
1.72851e+07
1.65199e+07
1.58614e+07
1.51631e+07
1.4644e+07
1.4183e+07
1.38212e+07
1.34497e+07
1.31476e+07
1.2828e+07
1.24992e+07
1.22759e+07
1.19888e+07
1.15771e+07
1.14661e+07
1.1521e+07
1.11095e+07
1.08442e+07
1.09395e+07
1.08848e+07
1.09075e+07
1.08542e+07
1.07889e+07
1.07921e+07
1.09171e+07
1.09397e+07
1.09974e+07
1.10354e+07
1.10432e+07
1.12653e+07
1.15506e+07
1.19136e+07
1.22843e+07
1.26501e+07
1.29441e+07
1.32212e+07
1.34027e+07
1.36081e+07
1.37292e+07
1.38903e+07
1.39671e+07
1.40856e+07
1.41469e+07
1.42611e+07
1.43433e+07
1.44884e+07
1.4616e+07
1.48031e+07
1.49689e+07
1.51803e+07
1.53605e+07
1.55618e+07
1.57302e+07
1.59058e+07
1.6051e+07
1.61918e+07
1.63202e+07
1.64334e+07
1.65509e+07
1.66523e+07
1.67515e+07
1.6837e+07
1.69109e+07
1.69677e+07
1.70128e+07
1.70396e+07
1.70526e+07
1.70624e+07
1.70635e+07
1.70655e+07
1.70818e+07
1.70841e+07
1.71101e+07
1.71177e+07
1.71575e+07
1.71737e+07
1.72331e+07
3.57983e+07
3.60093e+07
3.59216e+07
3.36305e+07
3.06799e+07
2.94574e+07
2.72321e+07
2.69641e+07
2.7521e+07
2.67485e+07
2.57733e+07
2.48205e+07
2.31748e+07
2.11375e+07
1.90395e+07
1.8535e+07
1.9075e+07
1.92454e+07
1.90959e+07
1.86409e+07
1.83301e+07
1.77163e+07
1.7038e+07
1.63671e+07
1.55232e+07
1.4826e+07
1.43174e+07
1.39644e+07
1.36285e+07
1.33898e+07
1.30634e+07
1.28259e+07
1.25232e+07
1.22906e+07
1.20793e+07
1.18252e+07
1.1657e+07
1.1673e+07
1.15299e+07
1.14131e+07
1.15437e+07
1.15869e+07
1.1518e+07
1.16558e+07
1.15795e+07
1.16319e+07
1.17748e+07
1.20308e+07
1.23479e+07
1.24546e+07
1.24161e+07
1.23323e+07
1.24158e+07
1.25246e+07
1.26603e+07
1.27488e+07
1.28235e+07
1.28667e+07
1.29201e+07
1.29543e+07
1.30704e+07
1.32026e+07
1.33795e+07
1.35383e+07
1.36953e+07
1.38375e+07
1.39645e+07
1.40981e+07
1.42351e+07
1.43915e+07
1.45669e+07
1.47535e+07
1.49596e+07
1.51624e+07
1.53705e+07
1.55533e+07
1.57346e+07
1.58805e+07
1.60199e+07
1.61293e+07
1.62328e+07
1.63274e+07
1.64101e+07
1.64987e+07
1.65707e+07
1.66529e+07
1.67203e+07
1.67885e+07
1.6838e+07
1.68892e+07
1.69181e+07
1.69553e+07
1.69685e+07
1.69992e+07
1.7027e+07
1.70656e+07
1.70873e+07
1.71454e+07
1.71837e+07
1.72549e+07
3.22448e+07
3.24437e+07
3.3094e+07
3.16323e+07
3.03106e+07
2.88345e+07
2.76566e+07
2.64558e+07
2.58398e+07
2.53792e+07
2.44225e+07
2.36853e+07
2.16572e+07
2.04792e+07
1.9234e+07
1.86958e+07
1.88002e+07
1.85844e+07
1.81872e+07
1.7386e+07
1.66526e+07
1.58393e+07
1.51384e+07
1.45623e+07
1.40673e+07
1.34954e+07
1.32076e+07
1.28699e+07
1.26428e+07
1.23959e+07
1.22863e+07
1.21501e+07
1.20095e+07
1.19861e+07
1.18442e+07
1.17744e+07
1.16529e+07
1.17227e+07
1.17426e+07
1.20637e+07
1.23497e+07
1.23119e+07
1.25132e+07
1.2704e+07
1.28704e+07
1.31899e+07
1.33715e+07
1.3488e+07
1.37551e+07
1.37932e+07
1.37775e+07
1.37228e+07
1.35639e+07
1.35375e+07
1.35759e+07
1.36602e+07
1.37291e+07
1.39644e+07
1.38627e+07
1.39474e+07
1.38645e+07
1.40222e+07
1.42067e+07
1.45015e+07
1.47389e+07
1.49748e+07
1.50914e+07
1.52514e+07
1.54967e+07
1.55455e+07
1.54536e+07
1.54398e+07
1.55346e+07
1.5651e+07
1.5801e+07
1.59309e+07
1.60557e+07
1.61422e+07
1.62217e+07
1.62612e+07
1.63133e+07
1.6344e+07
1.63998e+07
1.64457e+07
1.65081e+07
1.65645e+07
1.66281e+07
1.66938e+07
1.6747e+07
1.68189e+07
1.68646e+07
1.69431e+07
1.69952e+07
1.70745e+07
1.71425e+07
1.72232e+07
1.72996e+07
1.73768e+07
1.74554e+07
1.75302e+07
2.93257e+07
2.87861e+07
2.90456e+07
2.95599e+07
2.85814e+07
2.75201e+07
2.56936e+07
2.43791e+07
2.29983e+07
2.22343e+07
2.18536e+07
2.14438e+07
1.98973e+07
1.947e+07
1.80772e+07
1.76624e+07
1.79794e+07
1.76178e+07
1.70595e+07
1.62241e+07
1.53273e+07
1.46196e+07
1.39653e+07
1.35919e+07
1.35759e+07
1.32339e+07
1.29506e+07
1.23698e+07
1.19801e+07
1.15923e+07
1.1253e+07
1.11002e+07
1.09087e+07
1.08845e+07
1.08605e+07
1.09384e+07
1.10783e+07
1.16079e+07
1.18504e+07
1.22788e+07
1.26724e+07
1.28449e+07
1.33272e+07
1.33841e+07
1.35208e+07
1.38075e+07
1.39383e+07
1.41113e+07
1.43007e+07
1.43198e+07
1.42282e+07
1.41588e+07
1.41517e+07
1.41504e+07
1.42664e+07
1.42975e+07
1.45352e+07
1.45474e+07
1.45492e+07
1.44836e+07
1.42999e+07
1.43891e+07
1.4651e+07
1.49722e+07
1.53063e+07
1.5626e+07
1.58893e+07
1.6094e+07
1.62471e+07
1.63639e+07
1.64625e+07
1.65394e+07
1.6601e+07
1.66706e+07
1.66904e+07
1.68169e+07
1.68389e+07
1.68164e+07
1.69279e+07
1.68444e+07
1.69139e+07
1.68571e+07
1.68148e+07
1.68191e+07
1.68341e+07
1.68682e+07
1.68979e+07
1.69429e+07
1.69743e+07
1.70255e+07
1.70613e+07
1.7123e+07
1.71703e+07
1.72338e+07
1.72928e+07
1.73597e+07
1.74237e+07
1.74932e+07
1.7555e+07
1.76278e+07
2.76418e+07
2.61128e+07
2.60431e+07
2.70105e+07
2.73106e+07
2.56281e+07
2.42221e+07
2.30863e+07
2.13574e+07
1.97702e+07
1.93108e+07
1.95471e+07
1.92604e+07
1.81745e+07
1.69634e+07
1.58625e+07
1.58779e+07
1.64402e+07
1.62659e+07
1.56867e+07
1.50194e+07
1.43486e+07
1.37716e+07
1.36356e+07
1.37723e+07
1.38213e+07
1.3638e+07
1.31351e+07
1.27539e+07
1.22415e+07
1.17837e+07
1.14563e+07
1.12594e+07
1.13149e+07
1.13705e+07
1.13613e+07
1.1451e+07
1.18726e+07
1.23524e+07
1.27848e+07
1.31097e+07
1.33977e+07
1.36764e+07
1.38172e+07
1.38232e+07
1.4005e+07
1.41518e+07
1.42735e+07
1.45719e+07
1.4691e+07
1.46738e+07
1.48707e+07
1.4806e+07
1.46578e+07
1.46377e+07
1.46116e+07
1.4609e+07
1.48162e+07
1.51233e+07
1.53508e+07
1.54617e+07
1.54803e+07
1.53809e+07
1.55014e+07
1.58173e+07
1.62444e+07
1.65415e+07
1.67788e+07
1.69268e+07
1.70632e+07
1.71592e+07
1.7243e+07
1.73073e+07
1.73615e+07
1.74364e+07
1.74837e+07
1.75363e+07
1.75822e+07
1.76014e+07
1.76387e+07
1.76634e+07
1.7748e+07
1.7806e+07
1.79005e+07
1.7945e+07
1.80257e+07
1.80598e+07
1.81342e+07
1.81625e+07
1.82422e+07
1.82612e+07
1.83562e+07
1.83561e+07
1.83568e+07
1.82515e+07
1.82956e+07
1.82362e+07
1.82216e+07
1.82286e+07
1.82648e+07
2.57273e+07
2.47649e+07
2.44219e+07
2.46042e+07
2.53055e+07
2.49222e+07
2.36895e+07
2.20557e+07
2.01114e+07
1.91784e+07
1.891e+07
1.84417e+07
1.85759e+07
1.75397e+07
1.6371e+07
1.59467e+07
1.61511e+07
1.63333e+07
1.6269e+07
1.55607e+07
1.48073e+07
1.39572e+07
1.36056e+07
1.31782e+07
1.31405e+07
1.33304e+07
1.33332e+07
1.36545e+07
1.36329e+07
1.38421e+07
1.3879e+07
1.38706e+07
1.391e+07
1.40051e+07
1.40125e+07
1.41085e+07
1.41424e+07
1.43329e+07
1.44177e+07
1.42463e+07
1.40973e+07
1.44351e+07
1.42102e+07
1.4253e+07
1.4163e+07
1.40826e+07
1.40773e+07
1.41399e+07
1.4547e+07
1.48081e+07
1.50016e+07
1.53077e+07
1.53242e+07
1.53135e+07
1.55053e+07
1.55539e+07
1.57745e+07
1.62241e+07
1.64936e+07
1.6874e+07
1.72862e+07
1.73716e+07
1.74088e+07
1.73225e+07
1.72743e+07
1.72219e+07
1.70514e+07
1.7006e+07
1.71114e+07
1.72022e+07
1.72998e+07
1.73724e+07
1.74265e+07
1.7479e+07
1.75318e+07
1.75758e+07
1.75852e+07
1.76588e+07
1.7677e+07
1.76533e+07
1.76627e+07
1.77068e+07
1.77907e+07
1.78595e+07
1.79413e+07
1.79951e+07
1.80733e+07
1.81237e+07
1.81889e+07
1.82207e+07
1.82674e+07
1.82952e+07
1.83244e+07
1.83467e+07
1.83752e+07
1.83972e+07
1.84074e+07
1.84751e+07
1.85072e+07
1.85592e+07
2.40479e+07
2.28393e+07
2.26422e+07
2.26954e+07
2.29129e+07
2.32199e+07
2.28191e+07
2.16645e+07
2.01738e+07
1.93167e+07
1.88696e+07
1.85154e+07
1.82651e+07
1.75053e+07
1.61368e+07
1.53388e+07
1.4312e+07
1.48841e+07
1.46683e+07
1.511e+07
1.55949e+07
1.5128e+07
1.47927e+07
1.44419e+07
1.42498e+07
1.4116e+07
1.42026e+07
1.43039e+07
1.4319e+07
1.46029e+07
1.47973e+07
1.49436e+07
1.5047e+07
1.50945e+07
1.51419e+07
1.52955e+07
1.54147e+07
1.54488e+07
1.55277e+07
1.56117e+07
1.57121e+07
1.59296e+07
1.61156e+07
1.61844e+07
1.62889e+07
1.63314e+07
1.64007e+07
1.62597e+07
1.61661e+07
1.62949e+07
1.64435e+07
1.69144e+07
1.69582e+07
1.69015e+07
1.70798e+07
1.70473e+07
1.73149e+07
1.75791e+07
1.75198e+07
1.78446e+07
1.81883e+07
1.82383e+07
1.82399e+07
1.81278e+07
1.80637e+07
1.80103e+07
1.79407e+07
1.78621e+07
1.78236e+07
1.78874e+07
1.79213e+07
1.79691e+07
1.79993e+07
1.80166e+07
1.80498e+07
1.80678e+07
1.81403e+07
1.81527e+07
1.81522e+07
1.81268e+07
1.80642e+07
1.80369e+07
1.80991e+07
1.81833e+07
1.82759e+07
1.83452e+07
1.84409e+07
1.85059e+07
1.85679e+07
1.86155e+07
1.86369e+07
1.86625e+07
1.87001e+07
1.86734e+07
1.86825e+07
1.86632e+07
1.86578e+07
1.86696e+07
1.86816e+07
1.87196e+07
2.23955e+07
2.1835e+07
2.16526e+07
2.16765e+07
2.24019e+07
2.23024e+07
2.25749e+07
2.2367e+07
2.12116e+07
1.99212e+07
1.8863e+07
1.84965e+07
1.83214e+07
1.77452e+07
1.66492e+07
1.56112e+07
1.47826e+07
1.4809e+07
1.51439e+07