/*--------------------------------*- C++ -*----------------------------------*\
  =========                 |
  \\      /  F ield         | OpenFOAM: The Open Source CFD Toolbox
   \\    /   O peration     | Website:  https://openfoam.org
    \\  /    A nd           | Version:  8
     \\/     M anipulation  |
\*---------------------------------------------------------------------------*/
FoamFile
{
    version     2.0;
    format      ascii;
    class       volScalarField;
    location    "19.5000376192658642";
    object      k;
}
// * * * * * * * * * * * * * * * * * * * * * * * * * * * * * * * * * * * * * //

dimensions      [0 2 -2 0 0 0 0];

internalField   nonuniform List<scalar> 
6800
(
195.791
575.216
620.694
588.984
443.168
246.836
149.598
94.9853
58.6722
42.0897
192.247
580.5
505.846
322.102
205.034
137.343
89.7588
57.8716
35.9388
20.7988
170.658
380.587
298.435
205.478
146.766
102.478
64.1485
33.5003
16.3434
9.93596
121.49
249.967
210.103
167.157
123.333
69.0472
29.7265
15.229
9.25604
6.61538
124.384
205.22
187.524
153.394
84.2529
34.908
16.8447
10.0227
6.96123
5.42841
140.195
187.535
178.196
123.394
50.7585
22.1416
11.9074
7.96147
5.73547
4.69479
145.74
189.844
172.994
87.3281
32.3188
14.3227
8.92771
6.37748
4.89932
4.35798
148.041
193.217
156.097
55.5355
20.6865
11.6084
7.92783
5.8345
4.61261
4.20081
147.828
209.623
132.987
41.8494
17.0849
9.86462
6.67393
5.07896
4.21787
3.97006
147.614
218.375
106.092
28.6557
12.7389
8.55529
6.29768
4.88124
4.1302
3.92397
181.584
334.817
379.717
400.356
415.289
430.306
446.808
464.96
484.471
504.866
177.607
327.246
372.089
393.749
410.422
427.553
446.735
468.251
492.137
518.108
170.984
313.113
357.471
380.955
400.927
422.012
445.794
473.148
505.107
541.515
161.584
294.432
337.974
364.344
388.661
414.817
444.18
478.182
519.846
569.339
149.668
274.454
318.125
348.4
378.398
411.116
446.758
487.411
540.556
601.652
137.803
258.881
305.367
341.928
380.142
421.657
471.288
526.061
601.735
643.831
127.986
257.32
309.617
355.976
406.867
469.675
559.387
623.093
680.149
660.68
125.366
272.722
340.895
413.008
493.923
586.334
656.872
675.499
660.627
516.444
131.701
324.163
434.278
545.384
613.105
669.499
646.47
546.332
416.393
192.734
148.67
436.859
574.082
640.394
640.335
563.002
377.6
211.733
126.562
70.9042
533.569
569.224
603.919
637.07
668.339
697.547
724.649
749.642
772.581
793.218
811.374
827.021
840.118
850.891
859.067
865.119
868.62
869.755
868.801
865.704
860.505
853.568
845.061
835.189
824.156
812.156
799.365
785.949
772.05
757.8
743.31
728.677
713.985
699.297
684.665
670.134
655.751
641.561
627.607
613.927
600.556
587.52
574.838
562.525
550.593
539.05
527.899
517.138
506.759
496.75
487.093
477.772
468.767
460.062
451.636
443.475
435.558
427.868
420.385
413.092
405.972
399.013
392.207
385.548
379.032
372.66
366.433
360.351
354.417
348.634
343.002
337.523
332.198
327.024
322.002
317.128
312.399
307.812
303.363
299.045
294.854
290.785
286.832
282.989
279.249
275.609
272.062
268.604
265.229
261.931
258.711
255.555
252.479
249.439
246.515
243.533
240.842
237.723
235.631
231.621
554.402
596.908
638.474
677.847
714.58
748.496
779.539
807.793
833.611
856.556
876.457
893.342
907.445
918.514
926.456
931.643
933.744
933.312
930.471
925.166
917.8
908.567
897.657
885.343
871.866
857.446
842.278
826.542
810.394
793.977
777.406
760.783
744.196
727.709
711.37
695.222
679.314
663.691
648.397
633.472
618.949
604.848
591.184
577.963
565.191
552.871
541.002
529.576
518.577
507.989
497.788
487.952
478.461
469.292
460.425
451.843
443.527
435.459
427.616
419.979
412.532
405.261
398.158
391.217
384.437
377.816
371.355
365.057
358.922
352.952
347.149
341.51
336.037
330.727
325.577
320.584
315.744
311.052
306.503
302.092
297.811
293.656
289.62
285.697
281.881
278.165
274.546
271.016
267.572
264.207
260.921
257.701
254.563
251.46
248.481
245.436
242.702
239.512
237.397
233.302
591.209
645.662
698.491
747.816
793.269
834.812
872.425
906.905
937.256
963.523
985.853
1004.13
1018.44
1028.34
1034.52
1037.09
1036.35
1032.74
1026.02
1016.88
1005.55
992.238
977.124
960.636
943.064
924.652
905.613
886.146
866.414
846.577
826.752
807.039
787.535
768.299
749.374
730.775
712.557
694.786
677.502
660.746
644.551
628.921
613.857
599.355
585.406
572.005
559.141
546.798
534.948
523.563
512.614
502.07
491.907
482.098
472.619
463.453
454.584
445.991
437.65
429.538
421.637
413.935
406.422
399.095
391.952
384.992
378.218
371.629
365.226
359.01
352.98
347.133
341.467
335.978
330.662
325.514
320.528
315.699
311.02
306.485
302.085
297.816
293.669
289.638
285.717
281.899
278.179
274.551
271.011
267.551
264.175
260.863
257.641
254.449
251.395
248.257
245.467
242.171
240.032
235.81
634.488
703.979
769.303
829.222
883.717
932.785
976.645
1015.25
1047.47
1074.41
1096.04
1111.92
1122.3
1127.84
1129.32
1127.19
1121.33
1111.99
1099.83
1085.24
1068.56
1050.15
1030.68
1010.21
988.916
967.009
944.688
922.148
899.543
877.03
854.72
832.701
811.082
789.909
769.21
748.987
729.287
710.188
691.709
673.885
656.753
640.298
624.511
609.37
594.855
580.951
567.637
554.89
542.668
530.938
519.661
508.803
498.337
488.235
478.467
469.017
459.877
451.026
442.438
434.09
425.962
418.043
410.328
402.813
395.499
388.387
381.478
374.772
368.269
361.966
355.863
349.954
344.235
338.701
333.346
328.163
323.146
318.287
313.579
309.014
304.584
300.284
296.104
292.038
288.081
284.224
280.464
276.794
273.211
269.707
266.287
262.928
259.665
256.422
253.336
250.138
247.333
243.966
241.82
237.532
676.937
758.736
832.363
897.559
954.58
1003.62
1045.55
1079.67
1107.8
1130.02
1146.71
1157.7
1163.68
1164.17
1161.34
1154.28
1143.32
1129.33
1112.71
1093.79
1072.97
1050.7
1027.24
1003
978.301
953.41
928.533
903.836
879.456
855.505
832.082
809.217
787.028
765.545
744.742
724.611
705.147
686.455
668.5
651.293
634.874
619.198
604.238
589.955
576.304
563.26
550.788
538.86
527.417
516.423
505.84
495.625
485.765
476.229
466.981
458.011
449.323
440.9
432.719
424.755
416.991
409.422
402.046
394.866
387.883
381.101
374.521
368.142
361.964
355.981
350.191
344.588
339.166
333.918
328.837
323.916
319.147
314.524
310.037
305.68
301.445
297.325
293.313
289.403
285.589
281.864
278.227
274.669
271.191
267.782
264.454
261.175
257.996
254.818
251.816
248.669
245.951
242.631
240.534
236.348
706.492
783.77
854.363
915.636
967.761
1010.99
1046.9
1074.58
1094.95
1107.9
1115.24
1115.87
1113
1105.34
1092.94
1077.32
1058.88
1038.1
1015.51
991.571
966.678
941.237
915.53
889.845
864.412
839.404
814.995
791.243
768.296
746.127
724.851
704.395
684.829
666.238
648.481
631.625
615.475
600.181
585.634
571.811
558.772
546.439
534.761
523.684
513.132
503.069
493.437
484.216
475.332
466.749
458.442
450.358
442.512
434.885
427.429
420.145
413.048
406.132
399.381
392.775
386.305
379.977
373.796
367.771
361.907
356.21
350.682
345.323
340.13
335.096
330.219
325.491
320.905
316.456
312.134
307.935
303.85
299.875
296.001
292.224
288.535
284.932
281.407
277.955
274.573
271.257
268.006
264.812
261.681
258.598
255.585
252.598
249.71
246.796
244.069
241.162
238.7
235.626
233.7
229.863
702.886
747.657
791.339
831.392
867.77
896.107
917.553
931.464
939.107
939.1
936.068
928.011
914.366
897.221
877.088
854.512
830.223
804.708
778.528
752.138
725.914
700.275
675.434
651.621
628.996
607.521
587.405
568.476
550.967
534.523
519.289
505.118
491.79
479.707
468.425
458.463
449.182
440.667
432.754
425.385
418.673
412.556
406.918
401.709
396.797
392.133
387.604
383.238
378.961
374.701
370.482
366.209
361.967
357.756
353.533
349.314
345.094
340.896
336.716
332.558
328.429
324.354
320.342
316.416
312.58
308.846
305.213
301.683
298.25
294.906
291.648
288.469
285.36
282.316
279.332
276.403
273.524
270.694
267.905
265.157
262.444
259.765
257.118
254.497
251.907
249.342
246.808
244.295
241.817
239.352
236.937
234.517
232.183
229.791
227.58
225.168
223.173
220.612
219.016
215.849
520.321
530.27
542.683
553.713
567.242
577.086
584.102
588.522
586.915
581.388
570.433
554.961
535.846
514.033
490.472
465.858
441.019
416.413
392.618
369.969
348.719
329.123
311.24
295.134
280.953
268.265
257.569
248.002
240.128
233.263
227.563
223.228
219.316
217.251
215.468
215.324
215.611
216.22
217.68
219.408
221.66
224.352
227.155
230.149
232.96
235.623
237.993
240.135
242.024
243.48
244.65
245.317
245.786
245.982
245.959
245.756
245.261
244.601
243.854
243.018
242.103
241.156
240.183
239.215
238.251
237.304
236.369
235.445
234.521
233.58
232.621
231.634
230.61
229.549
228.45
227.319
226.148
224.944
223.698
222.424
221.106
219.765
218.385
216.976
215.546
214.09
212.622
211.125
209.621
208.089
206.573
205.016
203.517
201.936
200.498
198.87
197.562
195.818
194.731
192.587
193.686
195.919
199.641
201.446
203.29
203.331
202.053
199.062
193.808
186.863
178.232
168.373
157.714
146.753
135.818
125.203
115.115
105.681
96.9908
89.0948
81.9892
75.6599
70.1185
65.2296
61.1659
57.519
54.7033
52.1304
50.2401
48.5734
47.3993
46.5437
46.1134
46.2225
46.5677
47.153
48.1829
49.7681
51.6896
53.9349
56.5158
59.6513
62.9546
66.7408
70.5425
74.5637
78.5413
82.5883
86.6801
90.6561
94.874
99.0536
103.136
107.261
111.288
115.189
118.881
122.408
125.747
128.954
131.979
134.886
137.651
140.317
142.871
145.315
147.66
149.858
151.867
153.706
155.367
156.869
158.225
159.448
160.536
161.496
162.326
163.048
163.643
164.152
164.527
164.844
165.019
165.136
165.18
165.146
165.048
164.839
164.572
164.242
163.875
163.45
163.02
162.522
162.066
161.504
161.06
160.428
160.013
159.208
70.9576
70.9062
70.3196
69.0938
67.1545
64.6103
61.478
57.9745
54.1416
50.1413
46.0703
42.0592
38.1785
34.5161
31.0955
27.9618
25.105
22.543
20.2476
18.2231
16.4377
14.878
13.5261
12.3421
11.3463
10.4568
9.733
9.07778
8.5524
8.07914
7.70302
7.37494
7.11687
6.92313
6.79411
6.69533
6.69185
6.74308
6.84262
7.01254
7.2496
7.64734
8.06735
8.67809
9.30036
10.0955
10.9188
11.8831
12.9449
14.1052
15.3676
16.7997
18.25
19.9458
21.695
23.6712
25.6771
27.9004
30.1683
32.6477
35.1756
37.9122
40.712
43.7257
46.791
50.0521
53.3243
56.7337
60.21
63.7348
67.2366
70.7016
74.0813
77.3706
80.526
83.5498
86.3992
89.1076
91.6248
94.0054
96.1919
98.248
100.132
101.869
103.443
104.891
106.193
107.393
108.451
109.448
110.311
111.161
111.877
112.628
113.225
113.924
114.409
115.105
115.44
116.23
25.7399
26.3493
26.3163
26.1162
25.6532
24.9119
23.9416
22.7832
21.48
20.0884
18.6533
17.2242
15.8315
14.5064
13.2598
12.1091
11.0505
10.0951
9.22955
8.46191
7.77517
7.17317
6.63795
6.17082
5.75908
5.39852
5.08271
4.80543
4.56114
4.34756
4.15732
3.99161
3.84089
3.71348
3.59184
3.49164
3.39638
3.31724
3.24257
3.17848
3.11898
3.07005
3.02514
2.99038
2.95989
2.93697
2.922
2.91124
2.91406
2.92449
2.9444
2.9854
3.02128
3.09933
3.16219
3.29308
3.39745
3.58831
3.76127
4.03131
4.29833
4.67798
5.07398
5.60662
6.1757
6.90545
7.69215
8.65136
9.68629
10.9121
12.2118
13.7133
15.2735
17.0317
18.8242
20.8032
22.7784
24.919
27.0157
29.2502
31.407
33.6671
35.8252
38.0668
40.1889
42.4104
44.4623
46.6391
48.5878
50.7093
52.5315
54.6023
56.2832
58.3209
59.8393
61.8725
63.19
65.2686
66.2657
68.7983
14.1676
14.1635
14.1032
13.9584
13.6717
13.2846
12.8025
12.2396
11.6154
10.9553
10.2782
9.60717
8.95299
8.33059
7.74262
7.19892
6.69671
6.24296
5.8297
5.46251
5.13133
4.83988
4.57848
4.34949
4.14475
3.965
3.80485
3.66319
3.53638
3.42424
3.32209
3.23165
3.14779
3.07417
3.00246
2.94172
2.88168
2.82962
2.77785
2.73264
2.68758
2.64829
2.60826
2.57429
2.53828
2.50787
2.47495
2.44753
2.41749
2.39278
2.36521
2.34284
2.31735
2.29704
2.27418
2.25557
2.23556
2.21867
2.20224
2.18751
2.17535
2.16391
2.1571
2.15108
2.15157
2.1553
2.16451
2.18556
2.20817
2.25588
2.29835
2.38447
2.45533
2.59753
2.70663
2.92532
3.0834
3.40007
3.61695
4.05166
4.33517
4.90368
5.26006
5.97274
6.40701
7.27209
7.78996
8.81905
9.42592
10.6357
11.3382
12.7365
13.5388
15.1372
16.036
17.8349
18.8273
20.8249
21.7485
24.5695
8.38187
8.37904
8.34918
8.28036
8.14824
7.96611
7.74264
7.47821
7.18699
6.87493
6.5533
6.23003
5.91104
5.60393
5.31138
5.03792
4.7835
4.55093
4.33719
4.14516
3.96958
3.8126
3.67036
3.54341
3.42886
3.32602
3.23386
3.14975
3.07441
3.00508
2.94151
2.88312
2.8285
2.77796
2.72892
2.68556
2.64187
2.603
2.56358
2.52854
2.49328
2.46201
2.43
2.40213
2.37277
2.34733
2.32015
2.29669
2.2715
2.24996
2.22633
2.20647
2.18389
2.16541
2.14367
2.12641
2.10531
2.08921
2.0687
2.05368
2.03372
2.01957
2.00015
1.98665
1.96777
1.95475
1.93635
1.92371
1.90604
1.89466
1.8781
1.86798
1.85278
1.84393
1.83055
1.82294
1.81222
1.80604
1.79897
1.79495
1.79285
1.79449
1.79671
1.80612
1.81382
1.83528
1.84984
1.88879
1.9139
1.97749
2.01762
2.1167
2.17802
2.32744
2.41867
2.63593
2.76745
3.08211
3.22359
3.85074
5.63142
5.62572
5.61201
5.57292
5.51258
5.42288
5.31473
5.18246
5.03992
4.88178
4.72231
4.55621
4.39453
4.23373
4.08085
3.93356
3.79628
3.66616
3.54659
3.43469
3.33243
3.23793
3.15151
3.07223
2.99967
2.93279
2.87162
2.81369
2.76174
2.71008
2.66542
2.61838
2.57946
2.53644
2.50067
2.46291
2.4291
2.39481
2.36355
2.33189
2.30383
2.27458
2.24864
2.22221
2.19835
2.17436
2.15231
2.13021
2.10967
2.08923
2.06997
2.05086
2.03251
2.01444
1.99684
1.97969
1.96277
1.94652
1.93025
1.91485
1.89918
1.88461
1.86948
1.85571
1.84112
1.82814
1.81407
1.80184
1.78832
1.77675
1.76372
1.75269
1.74011
1.72948
1.7173
1.70698
1.69517
1.68513
1.67367
1.66386
1.65273
1.64315
1.63236
1.62307
1.6126
1.60371
1.59357
1.58525
1.57548
1.56795
1.55865
1.55213
1.54355
1.53831
1.53092
1.52727
1.52192
1.52031
1.51838
1.5207
4.2989
4.29733
4.28537
4.26367
4.22648
4.17687
4.1159
4.04517
3.9667
3.88316
3.79503
3.70571
3.61396
3.52452
3.43466
3.34958
3.26595
3.18758
3.11264
3.04208
2.97559
2.91316
2.85495
2.80009
2.74864
2.70026
2.65382
2.6107
2.56837
2.52953
2.49142
2.45559
2.42207
2.38782
2.3582
2.32554
2.29801
2.2677
2.2412
2.2134
2.18909
2.1626
2.14044
2.11615
2.09601
2.07378
2.05553
2.03491
2.0182
1.99896
1.98349
1.96525
1.95062
1.93303
1.91899
1.90189
1.88836
1.87175
1.85876
1.84265
1.83025
1.81468
1.80289
1.78789
1.77671
1.76228
1.75169
1.73779
1.72774
1.71433
1.70475
1.69177
1.68264
1.67001
1.66126
1.64893
1.64052
1.62843
1.62032
1.60841
1.60057
1.58882
1.58125
1.56965
1.56233
1.55088
1.54383
1.53255
1.52577
1.51469
1.5082
1.49732
1.49112
1.48044
1.47452
1.46403
1.45841
1.4479
1.44339
1.42847
3.60112
3.59393
3.58585
3.56638
3.54136
3.50829
3.47122
3.42662
3.38037
3.32796
3.2755
3.21774
3.16162
3.10177
3.04514
2.98687
2.93212
2.8778
2.8262
2.7764
2.72869
2.68318
2.63895
2.59687
2.5557
2.51646
2.4785
2.44217
2.4079
2.37453
2.34403
2.31334
2.28595
2.25751
2.23182
2.20567
2.18123
2.15583
2.13303
2.10917
2.08766
2.06532
2.04564
2.02468
2.00643
1.98709
1.97034
1.95221
1.93666
1.91951
1.90492
1.88848
1.87459
1.85869
1.84538
1.82995
1.8172
1.80225
1.7901
1.77561
1.76403
1.75001
1.73899
1.72543
1.71496
1.70183
1.69187
1.67915
1.66965
1.65728
1.6482
1.63614
1.62745
1.61566
1.60731
1.59574
1.5877
1.57634
1.5686
1.55741
1.54997
1.53893
1.53175
1.52085
1.51392
1.50314
1.49644
1.4858
1.47934
1.46884
1.46263
1.45229
1.44636
1.43619
1.43053
1.42052
1.41516
1.40514
1.40085
1.38672
3.20822
3.19908
3.19037
3.17532
3.15604
3.13245
3.10566
3.07568
3.04301
3.0081
2.9711
2.93256
2.89293
2.85229
2.81194
2.77093
2.73154
2.69158
2.65364
2.61524
2.57867
2.54161
2.50637
2.47092
2.43742
2.404
2.3728
2.34212
2.31334
2.2854
2.25905
2.23302
2.20919
2.18396
2.16217
2.13772
2.11684
2.09325
2.07273
2.05126
2.03178
2.01079
1.99278
1.97321
1.95645
1.93788
1.92208
1.90456
1.88975
1.8731
1.85919
1.84331
1.83018
1.81496
1.80253
1.78791
1.7761
1.76199
1.75073
1.73703
1.72626
1.71292
1.7026
1.68961
1.67974
1.6671
1.65766
1.64534
1.63628
1.62425
1.61553
1.60377
1.59537
1.58386
1.57579
1.56452
1.55679
1.54576
1.53837
1.52756
1.52048
1.50985
1.50305
1.49257
1.48602
1.47567
1.46933
1.45909
1.45297
1.44283
1.43693
1.4269
1.42123
1.4113
1.40585
1.39603
1.39076
1.38118
1.37535
1.36459
2.96448
2.95522
2.94551
2.93325
2.91704
2.89882
2.87785
2.8552
2.82978
2.80328
2.77489
2.74545
2.71476
2.68283
2.65056
2.61747
2.58492
2.55177
2.51946
2.48663
2.4546
2.42226
2.39112
2.35954
2.33001
2.29985
2.27247
2.24409
2.21873
2.19256
2.16896
2.145
2.12315
2.10076
2.08062
2.05943
2.04052
2.01993
2.00244
1.98315
1.96566
1.94705
1.93069
1.91245
1.89668
1.87914
1.86416
1.84747
1.83334
1.8175
1.80432
1.78932
1.77707
1.76289
1.75144
1.7379
1.72707
1.714
1.70364
1.69091
1.68095
1.6685
1.6589
1.64671
1.63745
1.6255
1.61659
1.60488
1.59629
1.58482
1.57654
1.5653
1.55732
1.5463
1.53863
1.52783
1.52045
1.50987
1.50279
1.49241
1.48562
1.47541
1.46887
1.4588
1.45248
1.44252
1.43637
1.4265
1.42053
1.41075
1.40497
1.3953
1.38974
1.3802
1.37486
1.36545
1.36034
1.3512
1.34557
1.33523
2.80097
2.78989
2.78095
2.76862
2.75459
2.73701
2.71953
2.69888
2.67823
2.65515
2.63252
2.60727
2.58224
2.5545
2.52746
2.49853
2.47095
2.4421
2.41452
2.38601
2.35861
2.33053
2.30377
2.27649
2.251
2.22499
2.20107
2.17646
2.15427
2.13128
2.11088
2.08956
2.07088
2.05096
2.03383
2.01504
1.99854
1.98071
1.96502
1.94721
1.9314
1.91438
1.89921
1.88204
1.86722
1.85067
1.83644
1.82043
1.80686
1.79163
1.77904
1.76467
1.75297
1.73938
1.72841
1.71538
1.70493
1.69225
1.68216
1.66972
1.65996
1.64777
1.63834
1.62638
1.61729
1.60557
1.5968
1.58533
1.57688
1.56564
1.55751
1.54649
1.53865
1.52785
1.5203
1.5097
1.50242
1.49201
1.48499
1.47475
1.46798
1.45789
1.45134
1.44138
1.43504
1.42521
1.41907
1.40936
1.40342
1.39385
1.38813
1.37871
1.37323
1.36395
1.35872
1.34958
1.34457
1.33569
1.33016
1.32007
2.68882
2.67664
2.66619
2.65306
2.64015
2.62299
2.60731
2.58816
2.57006
2.54976
2.53005
2.5082
2.48625
2.4621
2.43808
2.4127
2.38826
2.36261
2.33814
2.31244
2.2881
2.2628
2.23908
2.21476
2.19224
2.16889
2.1477
2.12533
2.10522
2.08389
2.06472
2.04472
2.02673
2.00793
1.9913
1.97335
1.95773
1.94057
1.92533
1.90875
1.89421
1.87797
1.86357
1.84764
1.83403
1.8186
1.80565
1.79087
1.77867
1.76469
1.75318
1.73966
1.72866
1.7155
1.70476
1.69178
1.68127
1.66848
1.65825
1.64572
1.63586
1.62365
1.6142
1.60233
1.59331
1.58179
1.57319
1.56198
1.55375
1.54282
1.53492
1.52421
1.5166
1.50608
1.49873
1.48838
1.48128
1.47109
1.46423
1.4542
1.44757
1.43768
1.43128
1.42153
1.41535
1.40573
1.39977
1.39028
1.38452
1.37518
1.36963
1.36043
1.35511
1.34604
1.34095
1.33202
1.32713
1.31845
1.31305
1.30314
2.60473
2.59158
2.58166
2.56781
2.5559
2.53811
2.52399
2.50488
2.48878
2.46942
2.45217
2.43165
2.41211
2.38968
2.36828
2.34531
2.32391
2.30072
2.27911
2.25574
2.2343
2.21154
2.19099
2.16946
2.14977
2.12924
2.1102
2.08978
2.07108
2.05072
2.0326
2.013
1.99569
1.97705
1.96061
1.94287
1.92733
1.91009
1.89553
1.87958
1.86518
1.84992
1.83702
1.82265
1.81051
1.79679
1.78534
1.77235
1.76156
1.74883
1.73821
1.72541
1.71458
1.70146
1.6905
1.67735
1.66656
1.65359
1.64317
1.63059
1.62068
1.60856
1.59919
1.5875
1.5786
1.56728
1.55878
1.54776
1.53961
1.52885
1.52099
1.51044
1.50285
1.49249
1.48517
1.47497
1.46791
1.45787
1.45106
1.44117
1.43461
1.42487
1.41857
1.40898
1.40291
1.39346
1.38762
1.37829
1.37267
1.36346
1.35805
1.34895
1.34375
1.33475
1.32975
1.32086
1.31602
1.30735
1.30197
1.29214
2.54689
2.53482
2.52183
2.509
2.49595
2.48009
2.46541
2.44861
2.43201
2.41474
2.39825
2.38017
2.36217
2.34222
2.32205
2.30099
2.28032
2.25874
2.2379
2.21608
2.19561
2.17442
2.15521
2.13509
2.11715
2.09792
2.08039
2.06108
2.04342
2.02406
2.00651
1.98736
1.97032
1.95167
1.9355
1.91767
1.90248
1.88568
1.87144
1.85568
1.84215
1.82756
1.81512
1.80106
1.78936
1.77612
1.76487
1.75175
1.74059
1.72751
1.71636
1.70328
1.69232
1.67947
1.66886
1.65638
1.64626
1.63416
1.62446
1.61268
1.60337
1.59191
1.58296
1.57178
1.56314
1.55219
1.54385
1.53314
1.52512
1.51462
1.50688
1.49658
1.48913
1.479
1.4718
1.46182
1.45486
1.44502
1.43832
1.42862
1.42218
1.41262
1.40643
1.39699
1.39104
1.38172
1.37599
1.36677
1.36126
1.35214
1.34683
1.33782
1.33271
1.3238
1.31889
1.31007
1.30531
1.29671
1.29141
1.28167
2.49886
2.48559
2.47366
2.46109
2.44769
2.43259
2.41791
2.40183
2.38592
2.36975
2.35387
2.3366
2.31985
2.30145
2.28341
2.26398
2.24506
2.22467
2.2052
2.18465
2.16528
2.14503
2.12594
2.10626
2.08784
2.06853
2.05058
2.03148
2.01419
1.9953
1.97857
1.96019
1.94398
1.92631
1.91091
1.89396
1.87967
1.86349
1.85008
1.83478
1.82193
1.80763
1.79539
1.7816
1.76995
1.75626
1.7448
1.7315
1.72049
1.70768
1.69718
1.68484
1.6747
1.66269
1.65281
1.64106
1.63148
1.61994
1.61073
1.59949
1.59058
1.57955
1.57093
1.56006
1.55161
1.54089
1.53267
1.52215
1.5142
1.50387
1.4962
1.48605
1.47864
1.46866
1.46151
1.45171
1.44482
1.43516
1.42854
1.41902
1.41266
1.40328
1.39717
1.38791
1.38203
1.37287
1.36722
1.35814
1.35269
1.34369
1.33843
1.32951
1.32444
1.3156
1.31073
1.30195
1.29729
1.28845
1.28466
1.27225
2.46728
2.45234
2.43969
2.42602
2.41295
2.39601
2.38302
2.36662
2.35166
2.33564
2.32236
2.30622
2.29197
2.27384
2.25693
2.23727
2.21947
2.19996
2.18213
2.16295
2.1452
2.1256
2.10714
2.08688
2.06779
2.04745
2.02862
2.00904
1.99131
1.97279
1.95645
1.93904
1.92394
1.90754
1.89313
1.87771
1.86427
1.84911
1.83641
1.82192
1.80956
1.7957
1.78394
1.77018
1.75845
1.74496
1.73367
1.7204
1.7096
1.69688
1.68662
1.67452
1.66475
1.65286
1.64329
1.63179
1.62258
1.61142
1.60245
1.59135
1.5826
1.57161
1.56294
1.55208
1.54363
1.5329
1.52466
1.5141
1.50613
1.49581
1.48815
1.47806
1.47068
1.46078
1.45366
1.44393
1.43706
1.4275
1.42088
1.41148
1.4051
1.39586
1.38972
1.3806
1.37469
1.36567
1.35998
1.35106
1.34559
1.33675
1.33148
1.32272
1.31766
1.30897
1.30411
1.2955
1.29082
1.28242
1.27721
1.26769
2.43941
2.42585
2.4142
2.40294
2.38822
2.37269
2.35789
2.34022
2.32419
2.30771
2.29243
2.27545
2.26007
2.24251
2.22643
2.20865
2.19199
2.1733
2.15556
2.13593
2.11681
2.09634
2.07708
2.05674
2.03808
2.01853
2.00088
1.98258
1.96628
1.9494
1.93476
1.91921
1.90605
1.89149
1.87928
1.86547
1.85315
1.8395
1.82724
1.81288
1.80045
1.78596
1.7732
1.75898
1.74694
1.73309
1.72155
1.70858
1.69817
1.68596
1.6762
1.66448
1.65519
1.64395
1.6352
1.62429
1.61585
1.60503
1.59655
1.58585
1.5773
1.5664
1.55805
1.5472
1.53891
1.52815
1.52
1.50943
1.50151
1.49114
1.48353
1.47338
1.46608
1.45614
1.44912
1.43939
1.43263
1.42308
1.41655
1.40715
1.40083
1.39155
1.38544
1.37627
1.37035
1.36129
1.35556
1.3466
1.34106
1.3322
1.32686
1.3181
1.31298
1.30432
1.29944
1.29088
1.28621
1.27788
1.27274
1.26326
2.41593
2.40091
2.38939
2.37487
2.36198
2.34286
2.3288
2.31225
2.29609
2.27956
2.2642
2.24827
2.23302
2.21584
2.1996
2.18131
2.16377
2.14421
2.12589
2.10595
2.08784
2.0687
2.0514
2.03315
2.0168
1.99958
1.98418
1.96767
1.9528
1.93689
1.92276
1.90745
1.89422
1.87969
1.86696
1.85311
1.84077
1.82657
1.81447
1.80053
1.7884
1.77469
1.76315
1.75006
1.7387
1.72573
1.71505
1.70284
1.6928
1.68093
1.67139
1.65982
1.65059
1.63943
1.63036
1.61928
1.61052
1.59947
1.59089
1.57999
1.57137
1.5605
1.55216
1.54149
1.5333
1.52275
1.51484
1.50444
1.49678
1.4866
1.47917
1.46915
1.46199
1.45213
1.44523
1.43555
1.4289
1.41937
1.41293
1.40354
1.39732
1.38803
1.38199
1.37279
1.36691
1.3578
1.35209
1.34307
1.33755
1.32863
1.32331
1.31447
1.30935
1.30059
1.29568
1.287
1.28232
1.27358
1.26982
1.25756
2.4092
2.3926
2.37862
2.36812
2.35159
2.3379
2.3222
2.3044
2.28836
2.27084
2.25397
2.23705
2.22065
2.2018
2.18397
2.165
2.14727
2.1283
2.11088
2.09198
2.07486
2.05651
2.04006
2.02251
2.00675
1.98989
1.97455
1.9581
1.94315
1.92706
1.91284
1.89713
1.88366
1.8685
1.85576
1.84134
1.82911
1.81553
1.80341
1.7899
1.77873
1.76573
1.75469
1.74206
1.73132
1.71894
1.7084
1.69603
1.68597
1.67407
1.66408
1.65219
1.64252
1.63063
1.62103
1.60962
1.60038
1.58914
1.58031
1.56926
1.56069
1.54988
1.54163
1.53109
1.52306
1.51271
1.50497
1.4948
1.4873
1.47727
1.46998
1.46011
1.45304
1.44332
1.43648
1.42693
1.42031
1.41089
1.40452
1.39524
1.38907
1.37993
1.37398
1.36496
1.35922
1.3503
1.34476
1.33593
1.33057
1.32182
1.31664
1.30795
1.30296
1.29433
1.28953
1.28096
1.27638
1.26775
1.26404
1.25195
2.38637
2.37018
2.36079
2.34349
2.33185
2.31197
2.29777
2.28132
2.26529
2.25014
2.23338
2.21797
2.20219
2.1841
2.16736
2.14917
2.1319
2.11361
2.09675
2.07888
2.06263
2.04524
2.02929
2.01214
1.9965
1.9797
1.96449
1.94809
1.93335
1.9174
1.90322
1.88784
1.87453
1.85979
1.84731
1.83336
1.82139
1.80768
1.79614
1.78312
1.77191
1.75897
1.74811
1.73563
1.72495
1.71234
1.70184
1.68965
1.67957
1.66754
1.65773
1.646
1.63646
1.62494
1.61566
1.6044
1.59538
1.58431
1.57564
1.56477
1.55635
1.54565
1.53747
1.52699
1.51899
1.50866
1.50092
1.49075
1.48324
1.47326
1.466
1.45616
1.44913
1.43947
1.43267
1.42318
1.41661
1.40726
1.40093
1.39174
1.38563
1.37657
1.37068
1.36175
1.35607
1.34725
1.34179
1.33306
1.3278
1.31916
1.31409
1.30552
1.30063
1.29211
1.28739
1.27892
1.2744
1.26586
1.2622
1.25022
2.38403
2.37001
2.3594
2.34351
2.32755
2.31287
2.29978
2.28265
2.26505
2.24696
2.23119
2.21513
2.19867
2.17985
2.16254
2.14395
2.12628
2.10748
2.09022
2.07196
2.05545
2.03778
2.02177
2.00454
1.98901
1.97235
1.95742
1.94153
1.92729
1.91195
1.89843
1.88347
1.87056
1.85613
1.84373
1.82982
1.8179
1.80446
1.79283
1.77978
1.76865
1.7557
1.74496
1.73252
1.72189
1.70951
1.69913
1.68704
1.67701
1.66515
1.65546
1.64378
1.63437
1.62293
1.61379
1.60258
1.59369
1.58272
1.57412
1.56334
1.55495
1.54436
1.53623
1.52578
1.51786
1.50757
1.49989
1.48976
1.48228
1.47233
1.46509
1.45527
1.44825
1.43861
1.43182
1.42233
1.41578
1.40645
1.40012
1.39093
1.38485
1.37578
1.36992
1.36099
1.35532
1.3465
1.34105
1.33232
1.32707
1.31842
1.31336
1.30479
1.29991
1.2914
1.28669
1.27823
1.27367
1.2654
1.26033
1.251
2.36913
2.35077
2.33953
2.32495
2.3075
2.29042
2.27388
2.2551
2.2396
2.22356
2.20785
2.19288
2.17712
2.15999
2.14395
2.12676
2.11062
2.09372
2.07853
2.06178
2.04667
2.03029
2.01541
1.99927
1.98465
1.96881
1.95451
1.93911
1.92528
1.91022
1.89694
1.88216
1.86937
1.85502
1.84263
1.82882
1.81686
1.80341
1.79187
1.77881
1.76774
1.75493
1.74414
1.73174
1.72122
1.7089
1.6986
1.68656
1.67659
1.66475
1.65507
1.64344
1.63406
1.62264
1.6135
1.60233
1.59345
1.5825
1.57389
1.56313
1.55477
1.54417
1.53606
1.52565
1.51775
1.50747
1.49979
1.48966
1.4822
1.47224
1.465
1.4552
1.44819
1.43854
1.43175
1.42225
1.4157
1.40635
1.40002
1.39082
1.38471
1.37564
1.36976
1.36081
1.35514
1.3463
1.34085
1.3321
1.32684
1.31816
1.31309
1.30449
1.2996
1.29106
1.28634
1.27785
1.27328
1.26499
1.25991
1.25051
3.43988
3.602
3.71903
3.97321
4.12535
4.58663
5.03743
6.16883
9.48771
25.0942
3.15445
3.26237
3.32844
3.51396
3.67893
3.91898
4.33216
4.75949
5.83239
14.0974
3.03723
3.09121
3.16529
3.21739
3.37974
3.50538
3.76523
4.1201
4.51349
8.34619
2.90311
2.92987
2.98738
3.04173
3.11578
3.25019
3.35911
3.6563
3.85633
5.61557
2.82057
2.84722
2.86561
2.92142
2.95565
3.05504
3.11719
3.31098
3.43617
4.29463
2.73944
2.76266
2.77277
2.8107
2.83419
2.90562
2.94655
3.07063
3.15105
3.60197
2.68577
2.69867
2.70447
2.72951
2.74464
2.79291
2.82137
2.90379
2.95629
3.2112
2.64188
2.64672
2.64974
2.66459
2.67438
2.70505
2.72376
2.77901
2.81355
2.96776
2.60973
2.61011
2.61048
2.61793
2.62311
2.6414
2.6528
2.68796
2.71036
2.80511
2.58165
2.57747
2.57601
2.57822
2.58073
2.59094
2.59734
2.61882
2.63248
2.69287
2.56362
2.55697
2.55107
2.54908
2.54861
2.55213
2.55509
2.5666
2.57407
2.6087
2.54397
2.53861
2.53138
2.52555
2.52392
2.52274
2.52257
2.52761
2.53092
2.55285
2.53055
2.52116
2.51635
2.50805
2.5011
2.49889
2.49488
2.49378
2.49457
2.50599
2.5214
2.50831
2.50169
2.49469
2.48845
2.48127
2.47775
2.47263
2.46941
2.47489
2.51194
2.49947
2.4904
2.47986
2.47128
2.46681
2.45861
2.45331
2.446
2.44748
2.50706
2.49185
2.48428
2.47555
2.4625
2.45613
2.44574
2.43998
2.4279
2.42737
2.50287
2.48972
2.47699
2.46887
2.4551
2.44944
2.43985
2.43159
2.42018
2.41611
2.49539
2.48182
2.46826
2.46077
2.44533
2.43541
2.4262
2.4174
2.40404
2.39969
2.49645
2.48514
2.46904
2.46002
2.44813
2.43633
2.42779
2.41362
2.4046
2.39996
2.49013
2.47633
2.46067
2.45317
2.44046
2.42569
2.41862
2.40489
2.39395
2.38501
3.36873
3.60455
3.99969
4.69598
5.79857
7.33891
11.7169
30.8225
177.711
123.099
3.37207
3.57612
3.99307
4.67063
5.75468
7.69274
12.6872
33.1666
192.084
125.952
3.38756
3.56533
4.01394
4.73948
6.08316
7.64815
12.7717
34.9992
194.248
131.266
3.45897
3.59003
3.98761
4.67923
6.05916
8.15278
13.5744
36.6714
207.517
133.153
3.49125
3.64858
4.0911
4.85266
6.35582
8.14339
14.0626
41.4412
208.033
138.7
3.53925
3.67099
4.08409
4.81462
6.59411
8.86997
15.5384
41.0742
212.365
139.951
3.57784
3.72541
4.19161
5.04791
6.63168
8.90736
15.4255
51.8094
231.873
141.571
3.65458
3.80037
4.291
5.21911
7.37973
10.053
18.5546
54.8302
235.067
143.501
3.74203
3.92653
4.49244
5.57877
7.46969
10.4592
19.7177
67.1519
231.346
144.915
3.78312
3.96848
4.54038
5.71876
8.15635
11.9197
24.129
82.7378
226.161
146.332
3.42492
3.67953
3.97173
4.56343
5.27085
7.56286
9.74724
26.0577
123.448
96.5297
3.46123
3.62667
3.96993
4.42325
5.152
6.9047
9.10812
22.2847
116.569
94.0369
3.45392
3.72117
4.00506
4.6077
5.28474
6.99447
9.8143
23.2646
122.361
95.958
3.42969
3.69317
4.04591
4.56809
5.57788
6.98904
10.1458
24.4587
127.979
97.7061
3.44511
3.64779
4.05115
4.55837
5.45483
7.55109
10.2477
24.7086
140.817
102.937
3.39085
3.65331
3.96176
4.59019
5.43226
7.26656
11.2921
26.4056
140.579
105.685
3.4271
3.64473
3.98969
4.47051
5.47191
7.38586
11.3458
27.2276
146.907
108.817
3.39654
3.60332
4.04794
4.54518
5.4445
7.36229
11.3981
28.6459
154.626
112.028
3.43207
3.59084
4.01854
4.61277
5.47322
7.24722
11.2825
28.4449
161.702
115.497
3.40917
3.62947
3.99232
4.71355
5.48332
7.34729
11.8615
30.6832
173.995
119.009
57.8486
49.6818
43.4258
38.5012
34.5284
31.2673
28.5403
26.2349
24.2555
22.5458
21.0477
19.7327
18.5617
17.5209
16.5815
15.7386
14.969
14.2734
13.6318
13.0486
12.5058
12.0103
11.5453
11.1194
10.7166
10.347
9.99472
9.67125
9.36051
9.07523
8.79908
8.5458
8.29874
8.07253
7.85014
7.64704
7.44573
7.26252
7.07936
6.91339
6.74596
6.59502
6.44132
6.30358
6.1619
6.0358
5.90472
5.78896
5.66724
5.5607
5.4473
5.34902
5.24304
5.15219
5.05285
4.96871
4.87532
4.79727
4.70924
4.63673
4.55353
4.48609
4.40727
4.34446
4.26961
4.21106
4.13984
4.08519
4.01733
3.96626
3.9015
3.8537
3.79188
3.74707
3.68804
3.64597
3.5896
3.55009
3.4963
3.45919
3.40793
3.37313
3.32445
3.29192
3.24595
3.21577
3.17283
3.14528
3.10599
3.08172
3.04728
3.02751
3.00079
2.98789
2.97519
2.97741
2.99731
3.03184
3.102
3.25532
57.845
49.6747
43.4163
38.491
34.5173
31.2564
28.529
26.2242
24.2445
22.5357
21.0373
19.7232
18.5519
17.512