/*--------------------------------*- C++ -*----------------------------------*\
  =========                 |
  \\      /  F ield         | OpenFOAM: The Open Source CFD Toolbox
   \\    /   O peration     | Website:  https://openfoam.org
    \\  /    A nd           | Version:  8
     \\/     M anipulation  |
\*---------------------------------------------------------------------------*/
FoamFile
{
    version     2.0;
    format      ascii;
    class       volScalarField;
    location    "19.5000376192658642";
    object      N;
}
// * * * * * * * * * * * * * * * * * * * * * * * * * * * * * * * * * * * * * //

dimensions      [0 -3 0 0 0 0 0];

internalField   nonuniform List<scalar> 
6800
(
6.97774e+06
6.75966e+06
6.76209e+06
6.92645e+06
7.1813e+06
7.16319e+06
7.02768e+06
6.61148e+06
5.57893e+06
4.40874e+06
6.97172e+06
6.64041e+06
6.7773e+06
7.22134e+06
7.22784e+06
7.06784e+06
6.45394e+06
5.11703e+06
3.25258e+06
2.51315e+06
6.99151e+06
6.59901e+06
7.03773e+06
7.34713e+06
7.20669e+06
6.46815e+06
4.61502e+06
2.97989e+06
2.26794e+06
1.94934e+06
6.84948e+06
6.52022e+06
7.36102e+06
7.38167e+06
6.69978e+06
4.61029e+06
2.90466e+06
2.23832e+06
1.89917e+06
1.72684e+06
4.97372e+06
6.49087e+06
7.74692e+06
7.33473e+06
5.16374e+06
3.0501e+06
2.29384e+06
1.94333e+06
1.70091e+06
1.5982e+06
4.95262e+06
7.95817e+06
7.88694e+06
6.34406e+06
3.42616e+06
2.4686e+06
2.01529e+06
1.69856e+06
1.56238e+06
1.53928e+06
4.96839e+06
8.47372e+06
7.72653e+06
4.63709e+06
2.84989e+06
2.15273e+06
1.73428e+06
1.56848e+06
1.51082e+06
1.51227e+06
4.94793e+06
8.99274e+06
6.81984e+06
3.82245e+06
2.26733e+06
1.84625e+06
1.61957e+06
1.48938e+06
1.45358e+06
1.457e+06
4.91993e+06
9.33207e+06
5.82136e+06
3.19513e+06
2.08392e+06
1.74167e+06
1.48548e+06
1.40747e+06
1.40408e+06
1.41289e+06
4.88871e+06
9.40056e+06
4.76692e+06
2.74252e+06
1.80839e+06
1.56287e+06
1.40698e+06
1.37267e+06
1.36285e+06
1.36269e+06
7.03638e+06
7.03215e+06
7.02815e+06
7.02644e+06
7.02568e+06
7.02534e+06
7.02526e+06
7.02558e+06
7.02628e+06
7.02715e+06
7.03725e+06
7.03315e+06
7.02872e+06
7.02778e+06
7.0282e+06
7.03035e+06
7.0334e+06
7.03801e+06
7.04342e+06
7.04823e+06
7.03689e+06
7.03368e+06
7.03052e+06
7.03067e+06
7.03505e+06
7.0429e+06
7.04986e+06
7.0541e+06
7.0565e+06
7.05882e+06
7.03408e+06
7.03538e+06
7.03265e+06
7.03522e+06
7.04316e+06
7.05204e+06
7.05554e+06
7.05713e+06
7.05778e+06
7.0595e+06
7.03414e+06
7.03507e+06
7.03661e+06
7.03955e+06
7.049e+06
7.05438e+06
7.05632e+06
7.05716e+06
7.05913e+06
7.0547e+06
7.03375e+06
7.03549e+06
7.03835e+06
7.03992e+06
7.04814e+06
7.05402e+06
7.05305e+06
7.04505e+06
7.048e+06
7.04137e+06
7.03296e+06
7.03618e+06
7.04172e+06
7.04175e+06
7.04402e+06
7.03495e+06
7.01751e+06
7.02305e+06
7.04375e+06
7.02236e+06
7.03153e+06
7.03674e+06
7.04355e+06
7.03276e+06
6.97363e+06
6.97945e+06
7.00546e+06
7.05461e+06
7.05678e+06
6.9618e+06
7.0299e+06
7.03611e+06
7.01419e+06
6.89606e+06
6.92053e+06
6.99826e+06
7.08818e+06
7.07935e+06
7.03801e+06
6.7022e+06
7.02452e+06
7.03436e+06
6.81066e+06
6.84372e+06
6.99851e+06
7.13056e+06
7.11658e+06
7.03344e+06
6.77036e+06
5.86442e+06
7.0288e+06
7.03164e+06
7.03541e+06
7.03996e+06
7.04507e+06
7.05012e+06
7.05612e+06
7.0616e+06
7.0682e+06
7.0737e+06
7.08018e+06
7.08586e+06
7.09138e+06
7.09657e+06
7.10128e+06
7.10612e+06
7.11061e+06
7.1148e+06
7.11656e+06
7.11744e+06
7.11799e+06
7.11784e+06
7.11918e+06
7.11883e+06
7.11875e+06
7.11903e+06
7.11921e+06
7.11891e+06
7.11858e+06
7.11819e+06
7.1172e+06
7.1172e+06
7.11652e+06
7.11551e+06
7.11429e+06
7.11348e+06
7.11199e+06
7.11103e+06
7.10957e+06
7.10772e+06
7.10632e+06
7.10449e+06
7.10336e+06
7.10226e+06
7.10137e+06
7.10102e+06
7.09894e+06
7.09855e+06
7.09882e+06
7.09948e+06
7.09797e+06
7.09821e+06
7.10031e+06
7.10368e+06
7.10458e+06
7.10689e+06
7.10887e+06
7.11069e+06
7.11036e+06
7.1104e+06
7.11173e+06
7.11158e+06
7.1133e+06
7.11422e+06
7.11425e+06
7.11483e+06
7.11485e+06
7.1142e+06
7.11352e+06
7.11264e+06
7.11196e+06
7.11121e+06
7.11065e+06
7.11005e+06
7.10991e+06
7.10981e+06
7.10974e+06
7.10972e+06
7.10973e+06
7.10977e+06
7.10985e+06
7.10992e+06
7.11006e+06
7.11017e+06
7.11013e+06
7.11058e+06
7.11062e+06
7.11115e+06
7.11118e+06
7.11147e+06
7.11179e+06
7.1123e+06
7.11261e+06
7.11337e+06
7.11361e+06
7.11362e+06
7.11403e+06
7.11455e+06
7.11517e+06
7.11594e+06
7.05365e+06
7.05537e+06
7.06073e+06
7.06306e+06
7.06772e+06
7.07011e+06
7.07513e+06
7.07762e+06
7.08247e+06
7.08531e+06
7.08931e+06
7.09247e+06
7.09616e+06
7.09937e+06
7.10175e+06
7.10551e+06
7.10873e+06
7.10941e+06
7.10751e+06
7.10468e+06
7.09958e+06
7.09587e+06
7.08985e+06
7.08601e+06
7.08023e+06
7.07566e+06
7.06997e+06
7.06454e+06
7.05815e+06
7.05191e+06
7.04485e+06
7.03787e+06
7.03144e+06
7.02444e+06
7.01918e+06
7.01327e+06
7.00801e+06
7.00259e+06
6.99652e+06
6.99137e+06
6.98477e+06
6.97991e+06
6.97385e+06
6.96944e+06
6.96507e+06
6.9614e+06
6.95792e+06
6.95435e+06
6.95092e+06
6.9486e+06
6.94516e+06
6.94322e+06
6.94041e+06
6.93783e+06
6.93476e+06
6.93117e+06
6.92885e+06
6.92471e+06
6.92342e+06
6.91844e+06
6.91745e+06
6.91607e+06
6.92013e+06
6.91722e+06
6.91987e+06
6.92069e+06
6.91981e+06
6.91877e+06
6.91713e+06
6.91589e+06
6.91417e+06
6.91286e+06
6.91115e+06
6.90969e+06
6.90798e+06
6.90634e+06
6.90466e+06
6.90287e+06
6.90123e+06
6.89942e+06
6.89781e+06
6.89612e+06
6.89456e+06
6.89312e+06
6.89166e+06
6.89055e+06
6.88933e+06
6.8885e+06
6.88759e+06
6.88695e+06
6.88632e+06
6.88582e+06
6.88549e+06
6.88502e+06
6.88492e+06
6.88455e+06
6.88449e+06
6.88416e+06
6.88415e+06
6.88387e+06
7.05983e+06
7.06095e+06
7.06461e+06
7.06628e+06
7.07061e+06
7.07335e+06
7.07813e+06
7.08165e+06
7.08517e+06
7.08836e+06
7.09163e+06
7.09433e+06
7.09678e+06
7.09964e+06
7.0999e+06
7.09965e+06
7.09874e+06
7.09645e+06
7.09028e+06
7.08179e+06
7.07297e+06
7.06121e+06
7.05052e+06
7.03785e+06
7.02602e+06
7.01138e+06
6.99869e+06
6.9824e+06
6.96925e+06
6.95245e+06
6.93885e+06
6.92357e+06
6.91127e+06
6.89749e+06
6.8878e+06
6.8765e+06
6.86671e+06
6.85608e+06
6.84334e+06
6.83061e+06
6.81814e+06
6.80539e+06
6.79372e+06
6.78317e+06
6.77322e+06
6.76233e+06
6.74962e+06
6.73464e+06
6.71783e+06
6.69983e+06
6.68164e+06
6.67555e+06
6.67708e+06
6.67138e+06
6.66121e+06
6.64939e+06
6.63661e+06
6.62455e+06
6.61303e+06
6.60283e+06
6.59376e+06
6.5858e+06
6.57911e+06
6.57307e+06
6.56815e+06
6.56342e+06
6.55956e+06
6.55543e+06
6.55207e+06
6.54792e+06
6.5446e+06
6.54014e+06
6.5365e+06
6.53169e+06
6.52749e+06
6.52241e+06
6.5176e+06
6.5123e+06
6.50703e+06
6.50153e+06
6.49597e+06
6.49042e+06
6.48474e+06
6.47933e+06
6.47378e+06
6.46874e+06
6.46364e+06
6.45917e+06
6.45486e+06
6.45098e+06
6.44776e+06
6.44433e+06
6.44204e+06
6.43901e+06
6.43728e+06
6.43454e+06
6.43319e+06
6.43085e+06
6.43003e+06
6.42712e+06
7.05959e+06
7.06106e+06
7.06507e+06
7.06704e+06
7.07009e+06
7.07414e+06
7.07767e+06
7.08216e+06
7.08543e+06
7.08859e+06
7.09077e+06
7.09127e+06
7.09029e+06
7.08874e+06
7.08499e+06
7.08187e+06
7.07627e+06
7.06927e+06
7.0568e+06
7.04199e+06
7.02459e+06
7.00315e+06
6.98269e+06
6.95673e+06
6.93274e+06
6.90272e+06
6.87686e+06
6.84515e+06
6.81818e+06
6.78735e+06
6.75906e+06
6.73049e+06
6.70335e+06
6.67752e+06
6.65265e+06
6.63018e+06
6.60758e+06
6.58186e+06
6.55769e+06
6.53302e+06
6.50948e+06
6.4871e+06
6.46782e+06
6.449e+06
6.43075e+06
6.40952e+06
6.38655e+06
6.35941e+06
6.33065e+06
6.29859e+06
6.26631e+06
6.23244e+06
6.20008e+06
6.1682e+06
6.13899e+06
6.11123e+06
6.08641e+06
6.06361e+06
6.04367e+06
6.02589e+06
6.01062e+06
5.99718e+06
5.98587e+06
5.97557e+06
5.96714e+06
5.95861e+06
5.95187e+06
5.944e+06
5.93771e+06
5.92986e+06
5.92294e+06
5.91478e+06
5.90668e+06
5.89778e+06
5.88859e+06
5.87848e+06
5.86851e+06
5.85708e+06
5.84631e+06
5.83406e+06
5.8223e+06
5.80979e+06
5.79733e+06
5.78475e+06
5.77243e+06
5.75997e+06
5.7486e+06
5.73701e+06
5.72708e+06
5.71718e+06
5.70886e+06
5.70067e+06
5.69425e+06
5.68742e+06
5.6828e+06
5.67709e+06
5.67365e+06
5.66896e+06
5.66633e+06
5.6614e+06
7.05618e+06
7.05942e+06
7.06328e+06
7.06584e+06
7.06859e+06
7.07084e+06
7.07297e+06
7.07489e+06
7.07516e+06
7.07466e+06
7.07307e+06
7.0708e+06
7.06647e+06
7.05916e+06
7.05133e+06
7.04357e+06
7.03162e+06
7.01605e+06
6.99327e+06
6.96646e+06
6.93363e+06
6.89757e+06
6.85609e+06
6.81204e+06
6.76299e+06
6.71396e+06
6.66082e+06
6.6089e+06
6.55463e+06
6.5009e+06
6.44758e+06
6.39467e+06
6.34355e+06
6.29356e+06
6.2469e+06
6.20226e+06
6.16027e+06
6.12137e+06
6.08374e+06
6.04649e+06
6.00795e+06
5.96814e+06
5.92502e+06
5.87993e+06
5.83146e+06
5.78156e+06
5.72949e+06
5.67711e+06
5.62419e+06
5.57173e+06
5.52002e+06
5.46932e+06
5.42067e+06
5.37373e+06
5.33004e+06
5.2886e+06
5.25134e+06
5.217e+06
5.18715e+06
5.16031e+06
5.13748e+06
5.11726e+06
5.1001e+06
5.0848e+06
5.07148e+06
5.05904e+06
5.04772e+06
5.03627e+06
5.02544e+06
5.01359e+06
5.00209e+06
4.98909e+06
4.97604e+06
4.96173e+06
4.94658e+06
4.93103e+06
4.91376e+06
4.89692e+06
4.87805e+06
4.85988e+06
4.84005e+06
4.82097e+06
4.80066e+06
4.78146e+06
4.76147e+06
4.7428e+06
4.72437e+06
4.70693e+06
4.69139e+06
4.67594e+06
4.66421e+06
4.65174e+06
4.64344e+06
4.63418e+06
4.62836e+06
4.6215e+06
4.61723e+06
4.61165e+06
4.60906e+06
4.59843e+06
7.04329e+06
7.04647e+06
7.04976e+06
7.05131e+06
7.0529e+06
7.05363e+06
7.05355e+06
7.05258e+06
7.0506e+06
7.04574e+06
7.04113e+06
7.03217e+06
7.02073e+06
7.00542e+06
6.99135e+06
6.9698e+06
6.94435e+06
6.90775e+06
6.86565e+06
6.8129e+06
6.7538e+06
6.68594e+06
6.61124e+06
6.53067e+06
6.44551e+06
6.35703e+06
6.26649e+06
6.17386e+06
6.08101e+06
5.9876e+06
5.89504e+06
5.80454e+06
5.71531e+06
5.63002e+06
5.54795e+06
5.47157e+06
5.39656e+06
5.32639e+06
5.25699e+06
5.19139e+06
5.12539e+06
5.06344e+06
4.99916e+06
4.93808e+06
4.87237e+06
4.8088e+06
4.74044e+06
4.67415e+06
4.60627e+06
4.5384e+06
4.46832e+06
4.4009e+06
4.33396e+06
4.27175e+06
4.21218e+06
4.15795e+06
4.1081e+06
4.06397e+06
4.02519e+06
3.99131e+06
3.96249e+06
3.93728e+06
3.91609e+06
3.8971e+06
3.8808e+06
3.86538e+06
3.85144e+06
3.83732e+06
3.82376e+06
3.80926e+06
3.79471e+06
3.77882e+06
3.7625e+06
3.74482e+06
3.72652e+06
3.70702e+06
3.68693e+06
3.66584e+06
3.6444e+06
3.62218e+06
3.59999e+06
3.57725e+06
3.55506e+06
3.53244e+06
3.51126e+06
3.48942e+06
3.47036e+06
3.45027e+06
3.43374e+06
3.41742e+06
3.40276e+06
3.39182e+06
3.38e+06
3.37247e+06
3.36288e+06
3.35638e+06
3.35096e+06
3.34558e+06
3.33895e+06
3.3333e+06
7.02572e+06
7.02546e+06
7.02585e+06
7.02581e+06
7.02633e+06
7.02465e+06
7.02119e+06
7.01263e+06
7.00386e+06
6.98828e+06
6.97455e+06
6.95019e+06
6.92677e+06
6.89277e+06
6.8582e+06
6.80606e+06
6.75098e+06
6.67382e+06
6.59358e+06
6.49096e+06
6.38459e+06
6.26048e+06
6.13228e+06
5.99459e+06
5.85342e+06
5.70982e+06
5.5644e+06
5.41673e+06
5.27238e+06
5.12768e+06
4.99017e+06
4.85759e+06
4.73142e+06
4.61547e+06
4.50485e+06
4.40099e+06
4.30076e+06
4.2077e+06
4.11932e+06
4.03513e+06
3.95454e+06
3.87782e+06
3.80333e+06
3.73066e+06
3.65966e+06
3.58867e+06
3.51985e+06
3.45303e+06
3.38814e+06
3.32854e+06
3.27407e+06
3.22441e+06
3.17932e+06
3.13896e+06
3.10303e+06
3.0711e+06
3.04333e+06
3.01941e+06
2.9992e+06
2.982e+06
2.96778e+06
2.95561e+06
2.94568e+06
2.93693e+06
2.92963e+06
2.92296e+06
2.91716e+06
2.91148e+06
2.9062e+06
2.90079e+06
2.8954e+06
2.88972e+06
2.88392e+06
2.87779e+06
2.8715e+06
2.86503e+06
2.85832e+06
2.8516e+06
2.84464e+06
2.8378e+06
2.83076e+06
2.82396e+06
2.81704e+06
2.81048e+06
2.80386e+06
2.79776e+06
2.79165e+06
2.78626e+06
2.78102e+06
2.77641e+06
2.77219e+06
2.76862e+06
2.76533e+06
2.76298e+06
2.76061e+06
2.75893e+06
2.75775e+06
2.75606e+06
2.75533e+06
2.75371e+06
6.96621e+06
6.96398e+06
6.96511e+06
6.96143e+06
6.95844e+06
6.94739e+06
6.93305e+06
6.91049e+06
6.88586e+06
6.85208e+06
6.81328e+06
6.76371e+06
6.70581e+06
6.63221e+06
6.54427e+06
6.43561e+06
6.31188e+06
6.16686e+06
6.00961e+06
5.82874e+06
5.64447e+06
5.44049e+06
5.24398e+06
5.0331e+06
4.8395e+06
4.63511e+06
4.42856e+06
4.22917e+06
4.04288e+06
3.87113e+06
3.71691e+06
3.57965e+06
3.45837e+06
3.35115e+06
3.26104e+06
3.18967e+06
3.12867e+06
3.07892e+06
3.03545e+06
2.99857e+06
2.96592e+06
2.93804e+06
2.91288e+06
2.89018e+06
2.8693e+06
2.84943e+06
2.83049e+06
2.81271e+06
2.79566e+06
2.7795e+06
2.76445e+06
2.75074e+06
2.73802e+06
2.72687e+06
2.71716e+06
2.70855e+06
2.70148e+06
2.69518e+06
2.69027e+06
2.68566e+06
2.68204e+06
2.67858e+06
2.67572e+06
2.67312e+06
2.671e+06
2.66896e+06
2.66702e+06
2.66517e+06
2.66313e+06
2.66121e+06
2.6591e+06
2.65728e+06
2.65527e+06
2.65358e+06
2.65172e+06
2.65033e+06
2.648e+06
2.64763e+06
2.64706e+06
2.64562e+06
2.64577e+06
2.64562e+06
2.64446e+06
2.64402e+06
2.64256e+06
2.64274e+06
2.6413e+06
2.64186e+06
2.64049e+06
2.64085e+06
2.64007e+06
2.63948e+06
2.64027e+06
2.64037e+06
2.63982e+06
2.64055e+06
2.64032e+06
2.64056e+06
2.63996e+06
2.64083e+06
6.71434e+06
6.73104e+06
6.73086e+06
6.72695e+06
6.71677e+06
6.69693e+06
6.66428e+06
6.61956e+06
6.55962e+06
6.48237e+06
6.38645e+06
6.26901e+06
6.1287e+06
5.96372e+06
5.77625e+06
5.56662e+06
5.34397e+06
5.10479e+06
4.83095e+06
4.56914e+06
4.29678e+06
4.05739e+06
3.81831e+06
3.61913e+06
3.42468e+06
3.26866e+06
3.14577e+06
3.04459e+06
2.96547e+06
2.89852e+06
2.84558e+06
2.80193e+06
2.76535e+06
2.73741e+06
2.71291e+06
2.69534e+06
2.68004e+06
2.66808e+06
2.65758e+06
2.6504e+06
2.64471e+06
2.64149e+06
2.63946e+06
2.63868e+06
2.63852e+06
2.64028e+06
2.63726e+06
2.63727e+06
2.63764e+06
2.63936e+06
2.64138e+06
2.64302e+06
2.64484e+06
2.64601e+06
2.64718e+06
2.64818e+06
2.64978e+06
2.65138e+06
2.65375e+06
2.6547e+06
2.65786e+06
2.65664e+06
2.65893e+06
2.65725e+06
2.65878e+06
2.6587e+06
2.65676e+06
2.65818e+06
2.65658e+06
2.65689e+06
2.6554e+06
2.65215e+06
2.65306e+06
2.6532e+06
2.65271e+06
2.65242e+06
2.64962e+06
2.64928e+06
2.64626e+06
2.64745e+06
2.64588e+06
2.64724e+06
2.64757e+06
2.64746e+06
2.64757e+06
2.64574e+06
2.64571e+06
2.6445e+06
2.64416e+06
2.64276e+06
2.64269e+06
2.64267e+06
2.64263e+06
2.64203e+06
2.64177e+06
2.63829e+06
2.6393e+06
2.63796e+06
2.6373e+06
2.63904e+06
5.91233e+06
5.96785e+06
6.02725e+06
6.03817e+06
6.02176e+06
5.98026e+06
5.88895e+06
5.76333e+06
5.58785e+06
5.39442e+06
5.16251e+06
4.92467e+06
4.65977e+06
4.40214e+06
4.13158e+06
3.88547e+06
3.63898e+06
3.43247e+06
3.26695e+06
3.13387e+06
3.02538e+06
2.93682e+06
2.86283e+06
2.8012e+06
2.74888e+06
2.70515e+06
2.66843e+06
2.63757e+06
2.61221e+06
2.59112e+06
2.57345e+06
2.55988e+06
2.54764e+06
2.54006e+06
2.53279e+06
2.5298e+06
2.52772e+06
2.52469e+06
2.5251e+06
2.52796e+06
2.53328e+06
2.54038e+06
2.54838e+06
2.55787e+06
2.5678e+06
2.57881e+06
2.58925e+06
2.60024e+06
2.61024e+06
2.61933e+06
2.62917e+06
2.63625e+06
2.64527e+06
2.65069e+06
2.65827e+06
2.66594e+06
2.6726e+06
2.67946e+06
2.68618e+06
2.69502e+06
2.69961e+06
2.70124e+06
2.70757e+06
2.70752e+06
2.70296e+06
2.70833e+06
2.7059e+06
2.70559e+06
2.70697e+06
2.70893e+06
2.70994e+06
2.71182e+06
2.71372e+06
2.71597e+06
2.71799e+06
2.72041e+06
2.72063e+06
2.7215e+06
2.71646e+06
2.7194e+06
2.71726e+06
2.72105e+06
2.72208e+06
2.72358e+06
2.7245e+06
2.72524e+06
2.72426e+06
2.72484e+06
2.72536e+06
2.72165e+06
2.72387e+06
2.72312e+06
2.72287e+06
2.71617e+06
2.71808e+06
2.71519e+06
2.71444e+06
2.71624e+06
2.71762e+06
2.72135e+06
3.15867e+06
3.25839e+06
3.34198e+06
3.38228e+06
3.40871e+06
3.40495e+06
3.38818e+06
3.34976e+06
3.29295e+06
3.22859e+06
3.15822e+06
3.0865e+06
3.01341e+06
2.94377e+06
2.87634e+06
2.81559e+06
2.75958e+06
2.7107e+06
2.66687e+06
2.6289e+06
2.5951e+06
2.56619e+06
2.54056e+06
2.51925e+06
2.50145e+06
2.48716e+06
2.47442e+06
2.46559e+06
2.45719e+06
2.45233e+06
2.44683e+06
2.44417e+06
2.44122e+06
2.44085e+06
2.44101e+06
2.44136e+06
2.44291e+06
2.44677e+06
2.45408e+06
2.46147e+06
2.47168e+06
2.48116e+06
2.49299e+06
2.50384e+06
2.51577e+06
2.52729e+06
2.53765e+06
2.55006e+06
2.55898e+06
2.57081e+06
2.57824e+06
2.58822e+06
2.59515e+06
2.60357e+06
2.61241e+06
2.62134e+06
2.6313e+06
2.64301e+06
2.65316e+06
2.6655e+06
2.67631e+06
2.68479e+06
2.69871e+06
2.70718e+06
2.71881e+06
2.73054e+06
2.73682e+06
2.75048e+06
2.75712e+06
2.76366e+06
2.75835e+06
2.76937e+06
2.76547e+06
2.76601e+06
2.77115e+06
2.77646e+06
2.78321e+06
2.78882e+06
2.79585e+06
2.80105e+06
2.80832e+06
2.81292e+06
2.81905e+06
2.82271e+06
2.82755e+06
2.83095e+06
2.83459e+06
2.8379e+06
2.84581e+06
2.84838e+06
2.8505e+06
2.84983e+06
2.85011e+06
2.83948e+06
2.84322e+06
2.83794e+06
2.8368e+06
2.83891e+06
2.84113e+06
2.84673e+06
2.34717e+06
2.4031e+06
2.46115e+06
2.49801e+06
2.53209e+06
2.5469e+06
2.5631e+06
2.56308e+06
2.5587e+06
2.54854e+06
2.53271e+06
2.51384e+06
2.49317e+06
2.47294e+06
2.45249e+06
2.43493e+06
2.41807e+06
2.4045e+06
2.39184e+06
2.38221e+06
2.37374e+06
2.36788e+06
2.36346e+06
2.36058e+06
2.35956e+06
2.35822e+06
2.35867e+06
2.35967e+06
2.36119e+06
2.36291e+06
2.36404e+06
2.36613e+06
2.36898e+06
2.3711e+06
2.37326e+06
2.37827e+06
2.38427e+06
2.39324e+06
2.40241e+06
2.41278e+06
2.42342e+06
2.4346e+06
2.44651e+06
2.4581e+06
2.47032e+06
2.48036e+06
2.49222e+06
2.50092e+06
2.51225e+06
2.51986e+06
2.52986e+06
2.53632e+06
2.54466e+06
2.5506e+06
2.55781e+06
2.56373e+06
2.57051e+06
2.57742e+06
2.58389e+06
2.59181e+06
2.59881e+06
2.60689e+06
2.61523e+06
2.62258e+06
2.63181e+06
2.6394e+06
2.64986e+06
2.65935e+06
2.67008e+06
2.68327e+06
2.69295e+06
2.70999e+06
2.72069e+06
2.73609e+06
2.74907e+06
2.76143e+06
2.77744e+06
2.7877e+06
2.80613e+06
2.81701e+06
2.83285e+06
2.84424e+06
2.85661e+06
2.87023e+06
2.87887e+06
2.89097e+06
2.89823e+06
2.91095e+06
2.9171e+06
2.9168e+06
2.92984e+06
2.92015e+06
2.93048e+06
2.92627e+06
2.92576e+06
2.93248e+06
2.93656e+06
2.94574e+06
2.95091e+06
2.96074e+06
1.97782e+06
2.02527e+06
2.06845e+06
2.10628e+06
2.14009e+06
2.17095e+06
2.19614e+06
2.21632e+06
2.23095e+06
2.24116e+06
2.24817e+06
2.25238e+06
2.25535e+06
2.2569e+06
2.25797e+06
2.25879e+06
2.25944e+06
2.2609e+06
2.26226e+06
2.2653e+06
2.26833e+06
2.27371e+06
2.27889e+06
2.28542e+06
2.2919e+06
2.2982e+06
2.30424e+06
2.30999e+06
2.31414e+06
2.3189e+06
2.32198e+06
2.32584e+06
2.32876e+06
2.33357e+06
2.33736e+06
2.34409e+06
2.34949e+06
2.35855e+06
2.36601e+06
2.37684e+06
2.3857e+06
2.39819e+06
2.40833e+06
2.42209e+06
2.43244e+06
2.44577e+06
2.45489e+06
2.46662e+06
2.4744e+06
2.48479e+06
2.49123e+06
2.50054e+06
2.50584e+06
2.51422e+06
2.51881e+06
2.52649e+06
2.53064e+06
2.53809e+06
2.54191e+06
2.54933e+06
2.5533e+06
2.56103e+06
2.56512e+06
2.57334e+06
2.5779e+06
2.58682e+06
2.59184e+06
2.60186e+06
2.60737e+06
2.61869e+06
2.62497e+06
2.63789e+06
2.64485e+06
2.65943e+06
2.66742e+06
2.68321e+06
2.69213e+06
2.70835e+06
2.71778e+06
2.73396e+06
2.74373e+06
2.7596e+06
2.76935e+06
2.78489e+06
2.79443e+06
2.80971e+06
2.8189e+06
2.83406e+06
2.84282e+06
2.85816e+06
2.86656e+06
2.88217e+06
2.89031e+06
2.90624e+06
2.91447e+06
2.93074e+06
2.93907e+06
2.95525e+06
2.96453e+06
2.9819e+06
1.81928e+06
1.86273e+06
1.90324e+06
1.94014e+06
1.97471e+06
2.00832e+06
2.03756e+06
2.06348e+06
2.08412e+06
2.10168e+06
2.11648e+06
2.12925e+06
2.14168e+06
2.15192e+06
2.16237e+06
2.17075e+06
2.17924e+06
2.18699e+06
2.19512e+06
2.20353e+06
2.21246e+06
2.2221e+06
2.231e+06
2.24033e+06
2.24802e+06
2.25458e+06
2.26043e+06
2.26352e+06
2.26685e+06
2.26816e+06
2.26972e+06
2.27038e+06
2.27173e+06
2.27287e+06
2.27515e+06
2.27846e+06
2.28284e+06
2.28908e+06
2.29595e+06
2.30437e+06
2.31305e+06
2.32353e+06
2.33303e+06
2.34504e+06
2.35492e+06
2.36699e+06
2.37541e+06
2.38594e+06
2.39262e+06
2.40186e+06
2.40749e+06
2.4161e+06
2.42105e+06
2.42958e+06
2.43418e+06
2.44292e+06
2.44766e+06
2.45689e+06
2.46177e+06
2.47154e+06
2.4766e+06
2.48664e+06
2.49194e+06
2.50207e+06
2.50749e+06
2.51804e+06
2.52365e+06
2.53489e+06
2.5411e+06
2.5535e+06
2.56023e+06
2.57321e+06
2.58058e+06
2.59376e+06
2.60129e+06
2.61462e+06
2.62231e+06
2.63586e+06
2.64379e+06
2.65757e+06
2.66544e+06
2.67931e+06
2.6872e+06
2.70107e+06
2.7088e+06
2.7228e+06
2.73026e+06
2.74454e+06
2.75191e+06
2.7665e+06
2.77401e+06
2.78897e+06
2.79674e+06
2.8122e+06
2.82018e+06
2.83634e+06
2.84476e+06
2.86208e+06
2.86959e+06
2.89332e+06
1.72577e+06
1.76648e+06
1.80744e+06
1.8431e+06
1.87764e+06
1.91039e+06
1.94295e+06
1.97135e+06
1.99571e+06
2.01626e+06
2.03361e+06
2.05015e+06
2.06464e+06
2.0792e+06
2.09187e+06
2.10443e+06
2.11549e+06
2.12664e+06
2.13669e+06
2.14713e+06
2.15644e+06
2.16567e+06
2.1734e+06
2.18031e+06
2.18534e+06
2.1891e+06
2.1916e+06
2.19213e+06
2.19542e+06
2.19728e+06
2.19851e+06
2.19655e+06
2.19668e+06
2.19764e+06
2.2008e+06
2.20353e+06
2.20917e+06
2.21448e+06
2.22189e+06
2.22882e+06
2.23779e+06
2.24576e+06
2.2552e+06
2.26375e+06
2.27336e+06
2.2822e+06
2.29147e+06
2.2994e+06
2.30758e+06
2.31442e+06
2.32213e+06
2.32813e+06
2.33573e+06
2.34134e+06
2.34865e+06
2.35476e+06
2.36121e+06
2.36864e+06
2.37417e+06
2.38246e+06
2.38877e+06
2.39618e+06
2.40503e+06
2.41108e+06
2.42222e+06
2.42843e+06
2.44112e+06
2.44838e+06
2.46166e+06
2.4715e+06
2.48481e+06
2.49781e+06
2.51214e+06
2.52739e+06
2.54335e+06
2.55758e+06
2.57484e+06
2.58785e+06
2.60376e+06
2.6171e+06
2.62934e+06
2.64268e+06
2.65413e+06
2.66488e+06
2.67704e+06
2.68645e+06
2.69854e+06
2.7074e+06
2.71996e+06
2.72916e+06
2.74206e+06
2.75238e+06
2.76186e+06
2.78252e+06
2.77866e+06
2.79232e+06
2.7897e+06
2.79158e+06
2.79382e+06
2.81635e+06
1.65223e+06
1.69062e+06
1.73168e+06
1.76866e+06
1.80501e+06
1.83602e+06
1.86701e+06
1.89396e+06
1.91925e+06
1.9429e+06
1.96302e+06
1.98262e+06
1.99794e+06
2.01416e+06
2.02732e+06
2.04164e+06
2.05417e+06
2.06662e+06
2.07752e+06
2.08752e+06
2.09574e+06
2.10303e+06
2.10847e+06
2.11318e+06
2.11613e+06
2.1191e+06
2.12055e+06
2.12295e+06
2.12433e+06
2.12673e+06
2.1291e+06
2.13189e+06
2.13549e+06
2.1388e+06
2.14245e+06
2.1472e+06
2.15082e+06
2.15705e+06
2.16099e+06
2.16821e+06
2.17292e+06
2.18074e+06
2.18639e+06
2.19471e+06
2.20115e+06
2.21021e+06
2.21739e+06
2.22665e+06
2.2332e+06
2.24229e+06
2.2477e+06
2.25656e+06
2.2612e+06
2.26981e+06
2.27441e+06
2.28289e+06
2.28807e+06
2.29613e+06
2.303e+06
2.31048e+06
2.31863e+06
2.32686e+06
2.33513e+06
2.34585e+06
2.35348e+06
2.36715e+06
2.37494e+06
2.39052e+06
2.39987e+06
2.41589e+06
2.42689e+06
2.44315e+06
2.45599e+06
2.47086e+06
2.48595e+06
2.49783e+06
2.51405e+06
2.52389e+06
2.53913e+06
2.55026e+06
2.5634e+06
2.57614e+06
2.58741e+06
2.60246e+06
2.61374e+06
2.62719e+06
2.63926e+06
2.65122e+06
2.66258e+06
2.67386e+06
2.68252e+06
2.69166e+06
2.7045e+06
2.71318e+06
2.72031e+06
2.73451e+06
2.7382e+06
2.75779e+06
2.76319e+06
2.77003e+06
1.59576e+06
1.63245e+06
1.67137e+06
1.70694e+06
1.74292e+06
1.77256e+06
1.80026e+06
1.82534e+06
1.85088e+06
1.87449e+06
1.89322e+06
1.91185e+06
1.92721e+06
1.94534e+06
1.96048e+06
1.97683e+06
1.98917e+06
2.00064e+06
2.0087e+06
2.01592e+06
2.02058e+06
2.02646e+06
2.02978e+06
2.03578e+06
2.03982e+06
2.04642e+06
2.05124e+06
2.05798e+06
2.06269e+06
2.0686e+06
2.07272e+06
2.07687e+06
2.08003e+06
2.08244e+06
2.08377e+06
2.08525e+06
2.08606e+06
2.08712e+06
2.08779e+06
2.09008e+06
2.09157e+06
2.09501e+06
2.09794e+06
2.10349e+06
2.10836e+06
2.11637e+06
2.12367e+06
2.13338e+06
2.14207e+06
2.15174e+06
2.16057e+06
2.16972e+06
2.17836e+06
2.18729e+06
2.19575e+06
2.20485e+06
2.21341e+06
2.22307e+06
2.2319e+06
2.24217e+06
2.25163e+06
2.26253e+06
2.273e+06
2.28466e+06
2.29646e+06
2.30921e+06
2.32251e+06
2.33668e+06
2.35154e+06
2.36732e+06
2.38379e+06
2.40113e+06
2.41909e+06
2.43778e+06
2.45697e+06
2.47672e+06
2.48335e+06
2.4785e+06
2.48248e+06
2.48562e+06
2.49053e+06
2.50207e+06
2.50969e+06
2.52293e+06
2.53062e+06
2.54408e+06
2.55122e+06
2.56447e+06
2.5712e+06
2.5842e+06
2.59072e+06
2.60375e+06
2.61033e+06
2.62356e+06
2.63037e+06
2.64388e+06
2.65119e+06
2.66481e+06
2.6743e+06
2.69146e+06
1.54863e+06
1.58067e+06
1.61472e+06
1.64659e+06
1.67979e+06
1.70711e+06
1.73423e+06
1.7575e+06
1.7808e+06
1.80188e+06
1.82233e+06
1.84227e+06
1.86002e+06
1.87725e+06
1.8909e+06
1.90342e+06
1.91287e+06
1.92081e+06
1.92778e+06
1.93321e+06
1.93928e+06
1.94537e+06
1.95101e+06
1.95875e+06
1.965e+06
1.97266e+06
1.97833e+06
1.98427e+06
1.9887e+06
1.99353e+06
1.99598e+06
2.00007e+06
2.00374e+06
2.00575e+06
2.00775e+06
2.01145e+06
2.01249e+06
2.01311e+06
2.01351e+06
2.01789e+06
2.01829e+06
2.02352e+06
2.02522e+06
2.02403e+06
2.02566e+06
2.03194e+06
2.03716e+06
2.04879e+06
2.05623e+06
2.06937e+06
2.07798e+06
2.09194e+06
2.10122e+06
2.11586e+06
2.12549e+06
2.14056e+06
2.1502e+06
2.16519e+06
2.1747e+06
2.18932e+06
2.19879e+06
2.21306e+06
2.22274e+06
2.2368e+06
2.24688e+06
2.26093e+06
2.27143e+06
2.28558e+06
2.29636e+06
2.3106e+06
2.32159e+06
2.3358e+06
2.34705e+06
2.3612e+06
2.37274e+06
2.38695e+06
2.39881e+06
2.41345e+06
2.42556e+06
2.44018e+06
2.45202e+06
2.46656e+06
2.47776e+06
2.4924e+06
2.50268e+06
2.51731e+06
2.52651e+06
2.54077e+06
2.54896e+06
2.56258e+06
2.57001e+06
2.58303e+06
2.59e+06
2.60253e+06
2.60936e+06
2.6214e+06
2.62856e+06
2.64074e+06
2.64623e+06
2.66998e+06
1.51065e+06
1.54246e+06
1.56986e+06
1.59581e+06
1.6237e+06
1.65068e+06
1.67636e+06
1.69895e+06
1.71805e+06
1.73565e+06
1.75454e+06
1.77323e+06
1.79044e+06
1.80663e+06
1.81873e+06
1.83099e+06
1.83889e+06
1.84904e+06
1.85523e+06
1.86414e+06
1.87041e+06
1.87801e+06
1.88356e+06
1.8904e+06
1.89448e+06
1.90058e+06
1.90384e+06
1.90955e+06
1.91273e+06
1.91785e+06
1.92074e+06
1.92519e+06
1.92751e+06
1.93178e+06
1.93449e+06
1.9389e+06
1.94131e+06
1.94577e+06
1.94863e+06
1.95373e+06
1.95673e+06
1.96316e+06
1.96766e+06
1.97566e+06
1.98144e+06
1.99065e+06
1.99765e+06
2.0081e+06
2.01616e+06
2.02791e+06
2.03729e+06
2.05066e+06
2.06147e+06
2.07649e+06
2.08849e+06
2.1044e+06
2.11683e+06
2.13253e+06
2.14469e+06
2.15959e+06
2.17124e+06
2.18539e+06
2.19668e+06
2.21039e+06
2.22162e+06
2.23515e+06
2.24643e+06
2.25991e+06
2.27135e+06
2.28462e+06
2.29614e+06
2.30893e+06
2.32039e+06
2.33258e+06
2.34384e+06
2.3556e+06
2.36656e+06
2.37819e+06
2.38881e+06
2.40059e+06
2.41084e+06
2.42299e+06
2.43271e+06
2.44528e+06
2.4542e+06
2.4672e+06
2.47514e+06
2.48854e+06
2.49565e+06
2.50924e+06
2.51607e+06
2.52973e+06
2.53664e+06
2.55063e+06
2.55776e+06
2.57209e+06
2.5797e+06
2.59411e+06
2.60372e+06
2.62119e+06
1.48397e+06
1.51263e+06
1.53847e+06
1.56133e+06
1.58664e+06
1.60964e+06
1.63339e+06
1.6545e+06
1.67415e+06
1.6932e+06
1.71043e+06
1.72809e+06
1.7421e+06
1.75652e+06
1.76741e+06
1.7791e+06
1.78861e+06
1.79938e+06
1.80742e+06
1.81742e+06
1.82407e+06
1.83167e+06
1.83612e+06
1.84202e+06
1.8451e+06
1.85081e+06
1.85448e+06
1.86098e+06
1.86566e+06
1.87253e+06
1.87758e+06
1.88463e+06
1.88965e+06
1.89645e+06
1.90132e+06
1.9074e+06
1.91141e+06
1.91703e+06
1.92042e+06
1.92442e+06
1.9267e+06
1.93124e+06
1.93405e+06
1.93992e+06
1.94403e+06
1.95177e+06
1.95828e+06
1.96823e+06
1.97712e+06
1.98893e+06
1.99983e+06
2.01317e+06
2.02539e+06
2.03971e+06
2.05237e+06
2.06683e+06
2.07921e+06
2.0932e+06
2.10503e+06
2.11839e+06
2.12989e+06
2.14278e+06
2.15433e+06
2.16712e+06
2.17907e+06
2.19226e+06
2.20496e+06
2.21872e+06
2.23216e+06
2.24632e+06
2.26018e+06
2.27439e+06
2.28822e+06
2.30212e+06
2.31545e+06
2.3288e+06
2.34139e+06
2.35414e+06
2.36589e+06
2.37812e+06
2.389e+06
2.40095e+06
2.41093e+06
2.42289e+06
2.43181e+06
2.44414e+06
2.45187e+06
2.46471e+06
2.47154e+06
2.48459e+06
2.4912e+06
2.50425e+06
2.5109e+06
2.52438e+06
2.53138e+06
2.54544e+06
2.55295e+06
2.5682e+06
2.57478e+06
2.5983e+06
1.46215e+06
1.49027e+06
1.51301e+06
1.53605e+06
1.55467e+06
1.57703e+06
1.59524e+06
1.61824e+06
1.63342e+06
1.65237e+06
1.66476e+06
1.68142e+06
1.6915e+06
1.70538e+06
1.71541e+06
1.73008e+06
1.74226e+06
1.75576e+06
1.76572e+06
1.77656e+06
1.78366e+06
1.79142e+06
1.7957e+06
1.80211e+06
1.80544e+06
1.81199e+06
1.81632e+06
1.82396e+06
1.8289e+06
1.83712e+06
1.84253e+06
1.8512e+06
1.85709e+06
1.86588e+06
1.87177e+06
1.8803e+06
1.88546e+06
1.89304e+06
1.89677e+06
1.90376e+06
1.90774e+06
1.91527e+06
1.91921e+06
1.92727e+06
1.93162e+06
1.9404e+06
1.94564e+06
1.95592e+06
1.96265e+06
1.97399e+06
1.982e+06
1.99431e+06
2.00357e+06
2.01666e+06
2.02672e+06
2.04013e+06
2.05073e+06
2.06437e+06
2.0757e+06
2.08978e+06
2.10194e+06
2.11655e+06
2.1293e+06
2.14424e+06
2.15739e+06
2.17245e+06
2.18593e+06
2.201e+06
2.21476e+06
2.22966e+06
2.2435e+06
2.25802e+06
2.27163e+06
2.2856e+06
2.29867e+06
2.31198e+06
2.32433e+06
2.33702e+06
2.3486e+06
2.36093e+06
2.3717e+06
2.38409e+06
2.39398e+06
2.40683e+06
2.41582e+06
2.42928e+06
2.43743e+06
2.45141e+06
2.45891e+06
2.47316e+06
2.48034e+06
2.49462e+06
2.50181e+06
2.51615e+06
2.52346e+06
2.53788e+06
2.54556e+06
2.56001e+06
2.56978e+06
2.58753e+06
1.445e+06
1.47015e+06
1.49268e+06
1.5146e+06
1.53275e+06
1.55455e+06
1.57075e+06
1.592e+06
1.60645e+06
1.62641e+06
1.63735e+06
1.65437e+06
1.66226e+06
1.67725e+06
1.68591e+06
1.7006e+06
1.70997e+06
1.72193e+06
1.72929e+06
1.73888e+06
1.7449e+06
1.75379e+06
1.75925e+06
1.76789e+06
1.77265e+06
1.78034e+06
1.78467e+06
1.7923e+06
1.79674e+06
1.80561e+06
1.81136e+06
1.82151e+06
1.8279e+06
1.83891e+06
1.84563e+06
1.8568e+06
1.86349e+06
1.87496e+06
1.88207e+06
1.89347e+06
1.89994e+06
1.91008e+06
1.91565e+06
1.92537e+06
1.93038e+06
1.94037e+06
1.94564e+06
1.95603e+06
1.96185e+06
1.97315e+06
1.9801e+06
1.99259e+06
2.00091e+06
2.0145e+06
2.02406e+06
2.03848e+06
2.04887e+06
2.0639e+06
2.07482e+06
2.09042e+06
2.10182e+06
2.11828e+06
2.13055e+06
2.14704e+06
2.1595e+06
2.17535e+06
2.18766e+06
2.20277e+06
2.21522e+06
2.22975e+06
2.24211e+06
2.25625e+06
2.26855e+06
2.28239e+06
2.29424e+06
2.30761e+06
2.31877e+06
2.3317e+06
2.34216e+06
2.3549e+06
2.3648e+06
2.37772e+06
2.38715e+06
2.4005e+06
2.40947e+06
2.42334e+06
2.43188e+06
2.44625e+06
2.45443e+06
2.46924e+06
2.4772e+06
2.49235e+06
2.50028e+06
2.51569e+06
2.52376e+06
2.53942e+06
2.54765e+06
2.56379e+06
2.57073e+06
2.59489e+06
1.43099e+06
1.45472e+06
1.47495e+06
1.49729e+06
1.51337e+06
1.53322e+06
1.54749e+06
1.56624e+06
1.57975e+06
1.59749e+06
1.60947e+06
1.62554e+06
1.63472e+06
1.6494e+06
1.6582e+06
1.67071e+06
1.6786e+06
1.68874e+06
1.69586e+06
1.70586e+06
1.7131e+06
1.72329e+06
1.73012e+06
1.73917e+06
1.74433e+06
1.75127e+06
1.75488e+06
1.76087e+06
1.76461e+06
1.77278e+06
1.77834e+06
1.78969e+06
1.79799e+06
1.81192e+06
1.82239e+06
1.83791e+06
1.84917e+06
1.8651e+06
1.87532e+06
1.88936e+06
1.89757e+06
1.90919e+06
1.91569e+06
1.92595e+06
1.93119e+06
1.94135e+06
1.94672e+06
1.95734e+06
1.96311e+06
1.97497e+06
1.98147e+06
1.99479e+06
2.00289e+06
2.01796e+06
2.02751e+06
2.04375e+06
2.05424e+06
2.07119e+06
2.08219e+06
2.09985e+06
2.11146e+06
2.12977e+06
2.14183e+06
2.15994e+06
2.17149e+06