/*--------------------------------*- C++ -*----------------------------------*\
  =========                 |
  \\      /  F ield         | OpenFOAM: The Open Source CFD Toolbox
   \\    /   O peration     | Website:  https://openfoam.org
    \\  /    A nd           | Version:  8
     \\/     M anipulation  |
\*---------------------------------------------------------------------------*/
FoamFile
{
    version     2.0;
    format      ascii;
    class       volScalarField;
    location    "19.5000376192658642";
    object      nut;
}
// * * * * * * * * * * * * * * * * * * * * * * * * * * * * * * * * * * * * * //

dimensions      [0 2 -1 0 0 0 0];

internalField   nonuniform List<scalar> 
6800
(
0.077903
0.261552
0.27144
0.253141
0.195611
0.148278
0.124066
0.106162
0.0843837
0.0861524
0.0787346
0.218143
0.194549
0.143319
0.139298
0.136285
0.119921
0.103089
0.0854764
0.0569412
0.0749879
0.142578
0.136174
0.14396
0.151645
0.150706
0.124072
0.077845
0.0433113
0.0323298
0.0626248
0.125585
0.130178
0.161209
0.168637
0.113629
0.0553553
0.0380752
0.0309266
0.0278652
0.065084
0.113788
0.137666
0.180037
0.132748
0.0687246
0.0430008
0.033728
0.0298185
0.0270029
0.0663363
0.125087
0.15692
0.195515
0.0977367
0.0541973
0.0382065
0.0325021
0.027043
0.0241019
0.0690297
0.129673
0.197387
0.142742
0.0614372
0.0359733
0.0311774
0.027595
0.0247536
0.0236238
0.0692277
0.150654
0.214296
0.101229
0.0491688
0.0401152
0.0346092
0.0291589
0.0245871
0.0230252
0.0692978
0.179746
0.190192
0.074798
0.0443311
0.0349077
0.0276899
0.0241511
0.0224325
0.022027
0.0692455
0.205054
0.171071
0.0634531
0.0404479
0.0347665
0.0301931
0.0257604
0.0229666
0.0220549
0.0767927
0.653698
1.07956
1.29004
1.39824
1.44958
1.47849
1.50208
1.52605
1.55179
0.0759442
0.639723
1.05462
1.25825
1.36108
1.40516
1.42696
1.44237
1.45742
1.47474
0.0745128
0.611548
1.00225
1.19607
1.28517
1.31669
1.32422
1.32348
1.32301
1.32857
0.0724338
0.571735
0.929349
1.10466
1.17323
1.18571
1.17282
1.1492
1.12469
1.11148
0.0697169
0.523824
0.839342
0.985242
1.02688
1.01522
0.977737
0.929559
0.877676
0.826446
0.0668568
0.479173
0.744618
0.843641
0.844591
0.799687
0.742203
0.690647
0.647307
0.559293
0.0645797
0.452962
0.64106
0.664408
0.624631
0.566353
0.526106
0.490013
0.469871
0.447391
0.063372
0.421005
0.501301
0.480263
0.446581
0.407268
0.395407
0.401263
0.391238
0.307609
0.0657702
0.373932
0.388833
0.371329
0.336205
0.353686
0.340887
0.289231
0.238739
0.130894
0.06775
0.333253
0.310157
0.316052
0.300069
0.267338
0.195321
0.1396
0.105303
0.0808391
1.59049
1.64115
1.68781
1.73162
1.77262
1.81082
1.8463
1.87922
1.90979
1.93791
1.96332
1.98577
2.00522
2.02211
2.03646
2.04861
2.05815
2.06521
2.07011
2.07364
2.07437
2.07317
2.07004
2.06509
2.05852
2.05055
2.0414
2.03126
2.0203
2.00865
1.99643
1.98376
1.97072
1.95741
1.94389
1.93023
1.91652
1.90283
1.88922
1.87577
1.86253
1.84956
1.8369
1.82459
1.81266
1.80112
1.78997
1.77922
1.76884
1.75879
1.74906
1.7396
1.73038
1.72136
1.71252
1.70381
1.69524
1.68676
1.67836
1.67003
1.66174
1.6535
1.6453
1.63716
1.62908
1.62109
1.61319
1.60541
1.59776
1.59027
1.58295
1.5758
1.56883
1.56206
1.55548
1.54909
1.54289
1.53687
1.53103
1.52536
1.51985
1.51449
1.50927
1.50417
1.49919
1.49432
1.48953
1.48484
1.4802
1.47567
1.47112
1.46676
1.4622
1.45808
1.45338
1.44962
1.4447
1.44116
1.43664
1.43263
1.50744
1.5595
1.60619
1.65018
1.69142
1.72963
1.76492
1.79747
1.82789
1.85597
1.88149
1.90408
1.92351
1.94027
1.95446
1.96643
1.97578
1.98257
1.98834
1.99151
1.99282
1.99224
1.98968
1.98531
1.97938
1.97215
1.96386
1.95468
1.94477
1.93423
1.9232
1.91177
1.90002
1.88804
1.87587
1.86362
1.85135
1.8391
1.82695
1.81496
1.80319
1.79167
1.78046
1.76958
1.75905
1.74888
1.73906
1.72958
1.72043
1.71155
1.70294
1.69454
1.68632
1.67826
1.67033
1.6625
1.65476
1.64709
1.63947
1.6319
1.62435
1.61683
1.60934
1.60188
1.59449
1.58716
1.57993
1.57281
1.56581
1.55896
1.55227
1.54574
1.53938
1.5332
1.52719
1.52136
1.51571
1.51021
1.50488
1.4997
1.49466
1.48975
1.48496
1.48028
1.4757
1.47121
1.4668
1.46247
1.45816
1.45397
1.44973
1.44569
1.44142
1.4376
1.43319
1.42971
1.42507
1.42178
1.41759
1.41388
1.36261
1.42347
1.47674
1.52635
1.57229
1.61431
1.65271
1.68805
1.72047
1.75008
1.77697
1.80051
1.81982
1.83584
1.84898
1.85986
1.86747
1.87442
1.8781
1.88048
1.88121
1.88013
1.87684
1.87178
1.86528
1.85776
1.84942
1.8404
1.83086
1.82089
1.81058
1.80003
1.7893
1.77847
1.76757
1.75662
1.74569
1.7349
1.72431
1.71398
1.70395
1.69426
1.68492
1.67594
1.66732
1.65904
1.6511
1.64345
1.63607
1.62891
1.62193
1.61511
1.6084
1.60179
1.59525
1.58876
1.58231
1.5759
1.56951
1.56313
1.55676
1.55038
1.54401
1.53768
1.53139
1.52516
1.51903
1.513
1.50709
1.50132
1.49569
1.49021
1.48488
1.4797
1.47468
1.4698
1.46506
1.46047
1.456
1.45166
1.44743
1.4433
1.43926
1.43531
1.43143
1.42762
1.42385
1.42016
1.41645
1.41286
1.40917
1.4057
1.40196
1.39868
1.39477
1.39181
1.3877
1.38484
1.38123
1.37813
1.16462
1.2445
1.31244
1.37361
1.42913
1.47857
1.52275
1.5624
1.59766
1.62917
1.65618
1.67778
1.69322
1.70493
1.71363
1.72025
1.72476
1.72621
1.72578
1.72489
1.72259
1.71891
1.71511
1.71083
1.7059
1.70019
1.69374
1.68665
1.67903
1.67099
1.6626
1.65395
1.64512
1.63617
1.62713
1.61808
1.60909
1.60024
1.5916
1.58322
1.57518
1.56749
1.56018
1.55325
1.54667
1.54042
1.53448
1.5288
1.52334
1.51805
1.51291
1.50787
1.5029
1.49799
1.49309
1.4882
1.48332
1.47844
1.47355
1.46864
1.46372
1.45878
1.45385
1.44894
1.44407
1.43926
1.43453
1.42991
1.4254
1.42101
1.41675
1.41262
1.40862
1.40476
1.40101
1.39738
1.39387
1.39045
1.38714
1.38391
1.38075
1.37766
1.37463
1.37166
1.36871
1.36581
1.36291
1.36005
1.35715
1.35436
1.35142
1.34871
1.34568
1.34314
1.33991
1.33765
1.33425
1.33204
1.329
1.32699
0.912587
1.01621
1.10166
1.17424
1.2369
1.28899
1.33289
1.37122
1.40712
1.43958
1.46772
1.49325
1.51424
1.53038
1.5467
1.55898
1.56743
1.57337
1.57711
1.57666
1.57337
1.56822
1.56142
1.55356
1.54508
1.53616
1.52698
1.51766
1.50833
1.49904
1.48985
1.4808
1.47194
1.46338
1.45507
1.44711
1.43949
1.43232
1.42558
1.4193
1.41355
1.40834
1.40362
1.39937
1.39551
1.39199
1.38873
1.38568
1.38278
1.37997
1.37721
1.37446
1.37172
1.36897
1.36615
1.36327
1.36035
1.35737
1.35434
1.35124
1.34806
1.34483
1.34158
1.33832
1.3351
1.33195
1.32887
1.3259
1.32305
1.3203
1.31768
1.31517
1.31277
1.31047
1.30826
1.30614
1.30408
1.3021
1.30016
1.29826
1.2964
1.29455
1.29269
1.29084
1.28897
1.28712
1.28521
1.28335
1.28139
1.27953
1.27748
1.27568
1.27349
1.27184
1.26944
1.26802
1.26545
1.26411
1.26154
1.26107
0.647376
0.751753
0.843486
0.922475
0.993269
1.05646
1.11251
1.16195
1.20593
1.23772
1.26274
1.28096
1.29715
1.30821
1.31384
1.3167
1.31683
1.31466
1.3106
1.30547
1.29948
1.29274
1.28539
1.27758
1.26961
1.26151
1.25359
1.24595
1.23872
1.23182
1.22527
1.21911
1.21321
1.20797
1.20319
1.19914
1.19555
1.19258
1.19015
1.18826
1.18704
1.18646
1.18642
1.18689
1.18767
1.18868
1.18979
1.19098
1.19213
1.19317
1.19413
1.19493
1.19563
1.1962
1.19658
1.19679
1.19683
1.19671
1.19644
1.196
1.19541
1.19471
1.19394
1.19314
1.19235
1.19161
1.19094
1.19036
1.18987
1.18948
1.18916
1.18892
1.18874
1.1886
1.1885
1.18842
1.18835
1.18828
1.18819
1.18809
1.18794
1.18775
1.18751
1.18723
1.18686
1.18646
1.18596
1.18546
1.18481
1.18425
1.18343
1.18287
1.18184
1.18139
1.18012
1.17984
1.17839
1.17824
1.17634
1.17779
0.493395
0.550505
0.611466
0.670203
0.729107
0.779731
0.82346
0.86082
0.893321
0.916785
0.938653
0.955191
0.964649
0.970444
0.972666
0.971904
0.968759
0.963699
0.957183
0.949655
0.941534
0.933206
0.924964
0.916966
0.909609
0.902566
0.896685
0.891857
0.88798
0.884597
0.881704
0.879416
0.877181
0.876487
0.876474
0.878036
0.880235
0.883102
0.88672
0.890869
0.896014
0.902004
0.908597
0.915806
0.922968
0.930279
0.937225
0.944141
0.950656
0.956534
0.962218
0.967442
0.972477
0.977199
0.981627
0.985787
0.989605
0.993122
0.996361
0.999353
1.00212
1.00473
1.00723
1.0097
1.01216
1.01467
1.01722
1.01985
1.02253
1.02524
1.02796
1.03068
1.03336
1.03602
1.03861
1.04115
1.04359
1.04594
1.04818
1.05032
1.05231
1.05421
1.05596
1.0576
1.05909
1.06051
1.06176
1.06299
1.06398
1.06507
1.06579
1.0668
1.06726
1.06831
1.06849
1.06967
1.0696
1.07099
1.07004
1.0737
0.322863
0.346742
0.373979
0.400889
0.43059
0.458707
0.4852
0.509399
0.529367
0.546231
0.557502
0.564031
0.566403
0.565331
0.561464
0.555368
0.547693
0.538888
0.529507
0.519957
0.510584
0.501777
0.493754
0.486707
0.481031
0.476256
0.473192
0.469716
0.468072
0.467079
0.467671
0.470438
0.473551
0.479949
0.486133
0.494783
0.504206
0.512867
0.52415
0.535253
0.548914
0.563616
0.579123
0.595839
0.609615
0.625686
0.638095
0.653152
0.664959
0.672912
0.682279
0.690966
0.699882
0.708088
0.716503
0.725268
0.73323
0.740921
0.748415
0.75571
0.762779
0.769732
0.776567
0.783388
0.790176
0.796998
0.803796
0.810636
0.817355
0.824005
0.830462
0.836783
0.842931
0.849001
0.854853
0.860508
0.865913
0.87114
0.876115
0.880947
0.885486
0.889931
0.894063
0.898071
0.901854
0.905555
0.909003
0.912389
0.915405
0.918508
0.921137
0.924078
0.926355
0.929269
0.931209
0.934219
0.935827
0.939122
0.939513
0.945594
0.137573
0.147121
0.15849
0.168783
0.179501
0.188288
0.197152
0.203978
0.208097
0.210177
0.209925
0.207587
0.203481
0.198084
0.191725
0.184771
0.177511
0.170191
0.163018
0.156175
0.149785
0.14392
0.138786
0.13414
0.130635
0.127268
0.125436
0.123407
0.122832
0.122011
0.122647
0.123053
0.125555
0.128724
0.132723
0.135884
0.141115
0.148757
0.156713
0.165356
0.175232
0.186863
0.199126
0.212997
0.226855
0.241491
0.255925
0.270878
0.285726
0.300386
0.316548
0.333316
0.350222
0.367858
0.385062
0.401895
0.418012
0.433579
0.448475
0.462918
0.476732
0.490191
0.503193
0.515975
0.52845
0.540724
0.552802
0.564564
0.575434
0.586172
0.595918
0.60621
0.616072
0.626793
0.635689
0.644586
0.652926
0.661331
0.66939
0.677366
0.684832
0.692391
0.699237
0.706173
0.712816
0.719354
0.725527
0.731327
0.736618
0.742026
0.746824
0.751992
0.756382
0.761462
0.765415
0.770617
0.774115
0.779757
0.781942
0.79048
0.0811051
0.0821098
0.0832725
0.0844206
0.0849725
0.0850419
0.0845379
0.0835837
0.0820451
0.0800021
0.077481
0.074595
0.0714088
0.0680526
0.0645856
0.0611251
0.0577062
0.0544256
0.0512909
0.0483765
0.04568
0.0432216
0.0410344
0.0390294
0.0373679
0.0357753
0.0345797
0.0333679
0.0325544
0.0316563
0.0311768
0.0305362
0.0303641
0.0299948
0.0302946
0.0300229
0.0306952
0.0311663
0.0317596
0.0327714
0.0340399
0.0361014
0.0380144
0.0406454
0.0433575
0.0467776
0.050347
0.0545415
0.0591499
0.0642309
0.0697611
0.0761483
0.082696
0.0904459
0.0985476
0.107774
0.117208
0.127687
0.138377
0.150066
0.161931
0.174778
0.187793
0.20184
0.215925
0.231015
0.245908
0.261604
0.277842
0.294387
0.311105
0.327556
0.34351
0.359137
0.374157
0.388658
0.402399
0.415677
0.428191
0.440343
0.451727
0.462843
0.473282
0.483368
0.49274
0.501851
0.510315
0.518645
0.526271
0.534141
0.54124
0.548799
0.55572
0.562598
0.568755
0.576568
0.58238
0.591105
0.595428
0.606843
0.0591071
0.0582379
0.0581561
0.0580092
0.0575615
0.0567858
0.0556781
0.0542829
0.0526299
0.0507846
0.0487895
0.0467154
0.0446002
0.0425019
0.0404396
0.0384609
0.0365662
0.0348019
0.0331498
0.0316546
0.0302839
0.0290754
0.0279868
0.027043
0.0262117
0.025494
0.0248773
0.0243466
0.0238942
0.023511
0.0231836
0.0229097
0.022671
0.0224823
0.0223058
0.0221743
0.0220483
0.0219576
0.021882
0.0218104
0.0217777
0.021734
0.0217428
0.0217297
0.0217801
0.02179
0.0219055
0.0219311
0.0221314
0.0222649
0.0224428
0.0228018
0.0230183
0.0235162
0.0238829
0.024692
0.0253193
0.0264259
0.0274572
0.029039
0.0306265
0.0328674
0.0352105
0.0383589
0.0417115
0.0460065
0.0506271
0.0562291
0.0622805
0.0694242
0.0770017
0.085743
0.094801
0.104972
0.115304
0.126669
0.137956
0.150147
0.16202
0.174654
0.186777
0.199496
0.211575
0.224175
0.236214
0.248929
0.260765
0.273445
0.284851
0.297195
0.307875
0.319915
0.329857
0.34173
0.350778
0.36276
0.370722
0.383365
0.388829
0.406182
0.0385106
0.038771
0.0390636
0.0393734
0.0392721
0.0389471
0.0383885
0.0376162
0.0366622
0.0355842
0.0344167
0.0332191
0.0320113
0.0308344
0.0296934
0.0286218
0.0276195
0.0267122
0.0258885
0.0251653
0.0245274
0.0239871
0.0235169
0.0231268
0.0227898
0.0225142
0.0222779
0.0220857
0.021918
0.021786
0.0216608
0.0215667
0.0214678
0.0213969
0.021308
0.0212552
0.0211753
0.0211291
0.0210563
0.0210152
0.0209502
0.0209139
0.0208539
0.0208254
0.0207686
0.0207445
0.0206904
0.0206702
0.0206205
0.0206042
0.02056
0.020544
0.0205079
0.02049
0.0204703
0.0204451
0.0204487
0.0204147
0.0204505
0.0204111
0.0204828
0.020454
0.0205575
0.0205729
0.0207031
0.0208086
0.0209526
0.0212394
0.0214675
0.0219275
0.0222887
0.02301
0.0235638
0.0246868
0.0255098
0.0271833
0.0283825
0.0307374
0.0324096
0.0355872
0.0377546
0.0419221
0.0446052
0.0498399
0.0530883
0.0594133
0.06328
0.070777
0.0752916
0.0841041
0.0892973
0.0994107
0.105338
0.116761
0.123285
0.136034
0.143112
0.157021
0.163528
0.182789
0.0278081
0.0279166
0.0280812
0.0282094
0.0282036
0.0280934
0.0279027
0.0275998
0.0272315
0.0267873
0.0263047
0.0257932
0.0252721
0.0247642
0.0242804
0.0238374
0.0234356
0.0230868
0.0227803
0.0225267
0.0223099
0.0221224
0.0219639
0.021826
0.0217101
0.0216071
0.0215212
0.0214409
0.0213715
0.0213064
0.0212406
0.0211833
0.021117
0.0210612
0.0209883
0.0209394
0.0208626
0.0208145
0.0207374
0.0206921
0.0206187
0.0205785
0.0205088
0.0204745
0.0204082
0.0203768
0.0203135
0.0202847
0.0202247
0.0201996
0.0201412
0.0201205
0.0200611
0.0200453
0.0199839
0.0199735
0.0199095
0.0199046
0.0198388
0.0198382
0.0197725
0.0197733
0.0197102
0.0197093
0.0196506
0.019647
0.0195924
0.0195797
0.0195278
0.0195201
0.0194783
0.0194756
0.0194472
0.0194489
0.0194405
0.0194449
0.0194669
0.0194745
0.0195351
0.0195593
0.0196633
0.0197772
0.0198785
0.0200602
0.0202009
0.0205158
0.0207047
0.0211936
0.0214841
0.0222047
0.0226376
0.0236914
0.0243133
0.025877
0.0266964
0.0290024
0.0300379
0.0335326
0.0335979
0.0415891
0.0233761
0.0234048
0.0234676
0.0235246
0.0235674
0.023533
0.0234811
0.023352
0.0232226
0.0230257
0.0228557
0.0226377
0.0224583
0.0222518
0.0220876
0.0219126
0.0217773
0.021632
0.0215198
0.0213977
0.0212972
0.021187
0.0210963
0.0209962
0.0209156
0.020822
0.0207493
0.0206554
0.0205888
0.0204901
0.0204278
0.0203239
0.0202652
0.0201603
0.0200976
0.0200042
0.0199349
0.0198488
0.0197804
0.0196999
0.0196384
0.0195651
0.0195065
0.0194442
0.0193898
0.0193373
0.0192866
0.0192417
0.019194
0.019156
0.0191107
0.0190783
0.019034
0.0190058
0.0189618
0.0189377
0.0188936
0.018874
0.0188296
0.0188148
0.0187697
0.0187601
0.018714
0.0187096
0.018663
0.0186637
0.0186168
0.0186221
0.0185757
0.0185848
0.018539
0.0185505
0.0185058
0.018518
0.0184749
0.0184866
0.0184455
0.0184567
0.0184182
0.0184275
0.018392
0.018399
0.0183674
0.0183728
0.0183449
0.0183503
0.0183256
0.0183346
0.0183116
0.0183293
0.0183066
0.0183389
0.0183168
0.0183698
0.0183521
0.018432
0.0184279
0.0185414
0.0185668
0.0187579
0.0216387
0.0216723
0.0217092
0.0217695
0.0217805
0.0217774
0.0217506
0.0217129
0.0216533
0.021596
0.0215233
0.0214603
0.0213824
0.021314
0.0212318
0.021153
0.0210635
0.0209746
0.0208826
0.0207872
0.0206934
0.020597
0.020505
0.0204095
0.0203177
0.0202231
0.020129
0.0200352
0.0199408
0.0198489
0.019761
0.0196696
0.0195948
0.0195004
0.0194379
0.0193437
0.0192857
0.0191975
0.0191403
0.0190604
0.0190116
0.0189352
0.018895
0.0188277
0.0187957
0.0187368
0.0187121
0.0186593
0.01864
0.0185923
0.0185768
0.0185322
0.0185184
0.0184751
0.018462
0.0184195
0.018407
0.0183656
0.0183541
0.0183144
0.0183045
0.0182668
0.0182587
0.0182235
0.0182172
0.0181846
0.0181799
0.0181498
0.0181464
0.0181185
0.0181159
0.0180898
0.0180876
0.0180629
0.0180608
0.0180372
0.0180349
0.018012
0.0180091
0.0179867
0.0179832
0.0179613
0.0179572
0.0179358
0.0179311
0.0179103
0.0179052
0.0178853
0.01788
0.0178613
0.0178559
0.0178386
0.0178331
0.0178173
0.0178116
0.0177971
0.0177925
0.0177715
0.0178078
0.0177096
0.020581
0.0206026
0.0206787
0.0207031
0.0207279
0.0207269
0.0207305
0.0207041
0.0206913
0.02065
0.0206206
0.0205601
0.0205117
0.0204338
0.0203683
0.0202793
0.0202007
0.0201077
0.0200206
0.0199265
0.0198353
0.0197407
0.0196459
0.0195497
0.0194532
0.019357
0.0192645
0.0191732
0.0190914
0.0190085
0.0189406
0.0188663
0.0188102
0.0187428
0.0186916
0.0186317
0.018583
0.0185237
0.01848
0.0184252
0.0183857
0.0183359
0.0183034
0.0182581
0.0182307
0.0181911
0.018169
0.018133
0.0181146
0.0180812
0.0180655
0.0180335
0.0180193
0.0179882
0.0179753
0.0179449
0.0179334
0.0179042
0.0178942
0.0178662
0.0178577
0.017831
0.017824
0.0177985
0.0177928
0.0177686
0.0177639
0.0177407
0.0177368
0.0177145
0.017711
0.0176894
0.0176863
0.0176652
0.0176621
0.0176415
0.0176384
0.0176182
0.0176153
0.0175956
0.0175926
0.0175734
0.0175703
0.0175514
0.017548
0.0175297
0.017526
0.0175083
0.0175042
0.0174873
0.017483
0.0174673
0.0174627
0.0174483
0.0174435
0.0174302
0.0174263
0.0174068
0.0174415
0.017349
0.0197569
0.0197981
0.0198543
0.0198864
0.0199141
0.0199233
0.0199288
0.0199193
0.0199063
0.0198798
0.0198504
0.0198073
0.0197637
0.0197055
0.0196515
0.0195826
0.0195234
0.0194488
0.0193859
0.019308
0.0192414
0.0191605
0.0190919
0.0190112
0.018945
0.0188685
0.0188089
0.0187413
0.018689
0.0186304
0.0185855
0.0185317
0.0184945
0.0184401
0.0184088
0.0183538
0.0183231
0.0182687
0.0182362
0.0181895
0.0181588
0.0181116
0.0180857
0.0180431
0.0180207
0.01798
0.0179593
0.0179215
0.0179035
0.0178682
0.0178527
0.0178196
0.0178063
0.017775
0.0177635
0.0177337
0.0177238
0.0176952
0.0176865
0.0176588
0.017651
0.0176239
0.0176171
0.0175909
0.0175852
0.0175599
0.0175551
0.0175309
0.0175268
0.0175035
0.0174999
0.0174775
0.0174742
0.0174526
0.0174497
0.0174291
0.0174267
0.0174071
0.0174052
0.0173864
0.0173846
0.0173664
0.0173644
0.0173467
0.0173443
0.0173269
0.0173239
0.0173069
0.0173034
0.017287
0.017283
0.0172674
0.017263
0.0172484
0.0172435
0.0172299
0.0172244
0.0172121
0.0172045
0.0171909
0.0190641
0.019115
0.0191634
0.0192011
0.019228
0.0192449
0.0192542
0.0192543
0.019246
0.0192303
0.0192092
0.0191794
0.0191463
0.0191024
0.0190588
0.0190049
0.0189551
0.0188952
0.0188407
0.0187762
0.0187169
0.0186489
0.0185882
0.0185182
0.0184602
0.0183917
0.0183395
0.0182748
0.0182282
0.0181698
0.018128
0.0180765
0.0180401
0.0179927
0.0179619
0.0179172
0.0178894
0.0178445
0.0178208
0.0177796
0.0177529
0.0177121
0.0176885
0.0176471
0.0176243
0.0175853
0.0175654
0.0175294
0.0175124
0.0174793
0.0174658
0.0174358
0.0174256
0.0173985
0.0173909
0.0173658
0.0173597
0.0173358
0.0173306
0.0173073
0.0173029
0.01728
0.0172761
0.0172537
0.0172503
0.0172283
0.0172254
0.0172038
0.0172011
0.01718
0.0171774
0.0171568
0.0171545
0.0171346
0.0171325
0.0171132
0.0171112
0.0170927
0.0170906
0.017073
0.0170711
0.0170542
0.0170522
0.0170359
0.0170335
0.0170178
0.0170148
0.0169996
0.016996
0.0169814
0.0169772
0.0169634
0.0169587
0.0169458
0.0169407
0.016929
0.0169236
0.0169133
0.0169064
0.0168946
0.0185183
0.0185575
0.0186067
0.018637
0.0186676
0.0186773
0.0186938
0.0186902
0.0186928
0.0186783
0.0186713
0.0186457
0.0186263
0.0185874
0.0185566
0.0185093
0.0184727
0.0184216
0.0183806
0.0183264
0.0182815
0.0182247
0.0181782
0.0181207
0.0180763
0.0180208
0.0179804
0.017928
0.0178929
0.0178454
0.0178162
0.0177741
0.0177508
0.0177132
0.0176952
0.0176608
0.0176437
0.0176118
0.0175963
0.0175621
0.0175436
0.017511
0.0174936
0.017458
0.0174402
0.017406
0.0173894
0.0173562
0.0173414
0.0173109
0.0172996
0.0172722
0.017264
0.0172391
0.0172331
0.0172099
0.0172049
0.0171822
0.0171776
0.0171551
0.0171509
0.0171286
0.0171248
0.017103
0.0170997
0.0170783
0.0170755
0.0170547
0.0170523
0.0170322
0.01703
0.0170105
0.0170085
0.0169896
0.0169876
0.0169693
0.0169673
0.0169495
0.0169474
0.0169302
0.0169279
0.0169112
0.0169085
0.0168924
0.0168892
0.0168736
0.0168699
0.016855
0.0168509
0.0168368
0.0168324
0.0168194
0.0168149
0.0168031
0.0167983
0.0167881
0.0167817
0.0167797
0.0167357
0.0167962
0.0181008
0.0181405
0.0181812
0.0182056
0.0182369
0.0182442
0.018263
0.0182604
0.0182674
0.0182584
0.0182567
0.0182391
0.0182256
0.0181958
0.0181709
0.0181331
0.0181037
0.0180613
0.0180284
0.0179819
0.0179458
0.0178975
0.0178608
0.0178137
0.0177795
0.0177337
0.0177032
0.017659
0.0176315
0.0175896
0.0175644
0.0175268
0.0175051
0.0174712
0.0174542
0.0174222
0.017408
0.0173777
0.0173633
0.0173342
0.0173212
0.0172918
0.0172776
0.0172479
0.017236
0.0172071
0.0171967
0.0171694
0.0171611
0.0171363
0.0171298
0.0171057
0.0171
0.0170762
0.0170701
0.0170458
0.0170393
0.0170149
0.0170084
0.0169844
0.0169785
0.0169553
0.0169504
0.0169283
0.0169245
0.0169036
0.0169008
0.0168809
0.0168789
0.01686
0.0168584
0.0168401
0.0168387
0.0168209
0.0168195
0.0168022
0.0168007
0.0167839
0.0167823
0.016766
0.0167642
0.0167484
0.0167464
0.0167311
0.0167288
0.016714
0.0167114
0.0166974
0.0166944
0.0166812
0.0166778
0.0166656
0.0166619
0.0166508
0.0166467
0.0166366
0.0166321
0.0166233
0.0166171
0.0166063
0.0177619
0.0177973
0.0178377
0.0178565
0.0178905
0.0178916
0.0179147
0.017908
0.0179208
0.0179117
0.0179178
0.0179017
0.0178956
0.0178688
0.0178522
0.0178204
0.0178011
0.0177652
0.017742
0.0177022
0.017677
0.0176372
0.0176136
0.0175769
0.0175547
0.0175202
0.0174986
0.017462
0.01744
0.0174013
0.0173801
0.0173429
0.0173237
0.0172891
0.0172722
0.01724
0.0172256
0.0171941
0.0171827
0.0171563
0.0171438
0.0171196
0.0171133
0.0170919
0.0170877
0.0170679
0.0170652
0.0170474
0.017046
0.0170275
0.0170248
0.0170039
0.0169982
0.0169741
0.016966
0.0169405
0.016932
0.0169066
0.0168987
0.0168745
0.0168682
0.0168455
0.0168408
0.0168196
0.0168161
0.0167961
0.0167933
0.0167743
0.016772
0.0167536
0.0167515
0.0167337
0.0167317
0.0167144
0.0167124
0.0166955
0.0166935
0.016677
0.0166751
0.0166591
0.0166573
0.0166419
0.01664
0.0166252
0.0166233
0.0166091
0.0166069
0.0165933
0.0165909
0.0165779
0.0165751
0.0165629
0.0165595
0.0165481
0.0165442
0.0165339
0.0165281
0.0165256
0.0164828
0.0165417
0.0175165
0.0175689
0.0175884
0.0176051
0.0176294
0.017637
0.0176558
0.0176583
0.0176668
0.0176652
0.0176723
0.0176648
0.017663
0.017645
0.0176314
0.0176065
0.0175883
0.0175587
0.0175373
0.0175039
0.0174819
0.0174492
0.0174313
0.0174014
0.0173876
0.0173594
0.0173452
0.0173137
0.0172964
0.0172618
0.0172426
0.0172066
0.0171877
0.0171521
0.0171359
0.0171024
0.0170895
0.0170594
0.0170492
0.0170228
0.0170141
0.0169921
0.0169871
0.016966
0.0169629
0.0169444
0.0169415
0.0169219
0.0169174
0.0168965
0.0168904
0.0168681
0.0168615
0.0168392
0.0168329
0.0168114
0.0168062
0.0167857
0.0167813
0.0167613
0.0167577
0.0167384
0.0167353
0.0167166
0.0167137
0.0166954
0.0166928
0.0166751
0.0166728
0.0166556
0.0166535
0.0166367
0.0166348
0.0166184
0.0166165
0.0166004
0.0165984
0.0165827
0.0165808
0.0165655
0.0165638
0.016549
0.0165473
0.016533
0.0165312
0.0165173
0.0165154
0.016502
0.0164998
0.016487
0.0164844
0.0164722
0.0164692
0.0164577
0.0164541
0.0164435
0.016438
0.016435
0.0163933
0.0164508
0.017323
0.0173514
0.0173819
0.0174029
0.0174247
0.0174335
0.0174494
0.0174524
0.0174615
0.0174626
0.0174706
0.0174653
0.0174678
0.0174555
0.0174503
0.0174318
0.0174206
0.0173958
0.01738
0.017352
0.0173343
0.0173054
0.017287
0.0172588
0.0172417
0.017213
0.017196
0.0171654
0.0171492
0.0171165
0.0171003
0.0170672
0.0170513
0.0170194
0.0170055
0.0169751
0.0169651
0.0169366
0.0169295
0.0169039
0.0168975
0.0168756
0.0168706
0.0168498
0.0168463
0.0168245
0.0168201
0.0167991
0.0167952
0.0167755
0.0167726
0.0167541
0.0167513
0.0167331
0.01673
0.016712
0.0167088
0.0166909
0.0166882
0.0166709
0.0166684
0.0166513
0.0166489
0.0166317
0.0166288
0.0166116
0.0166087
0.0165919
0.0165892
0.0165728
0.0165703
0.0165542
0.0165519
0.0165362
0.016534
0.0165188
0.0165168
0.0165019
0.0165001
0.0164857
0.0164841
0.0164701
0.0164686
0.016455
0.0164534
0.0164402
0.0164385
0.0164256
0.0164235
0.016411
0.0164085
0.0163964
0.0163934
0.0163818
0.0163782
0.0163672
0.0163631
0.0163526
0.0163484
0.0163346
0.0171947
0.0172056
0.0172312
0.0172469
0.0172708
0.0172714
0.0172954
0.0172959
0.0173084
0.0173089
0.0173271
0.0173252
0.0173377
0.0173254
0.0173247
0.0173044
0.0172982
0.0172768
0.0172681
0.0172458
0.0172347
0.0172075
0.0171907
0.0171581
0.0171363
0.0171011
0.0170786
0.0170449
0.0170257
0.0169948
0.01698
0.0169521
0.0169409
0.0169155
0.0169055
0.0168826
0.0168755
0.0168518
0.016847
0.0168248
0.0168198
0.0167995
0.0167961
0.0167748
0.0167701
0.0167488
0.0167449
0.0167233
0.0167203
0.0167004
0.0166987
0.0166811
0.0166803
0.0166626
0.0166612
0.0166446
0.0166436
0.0166277
0.0166263
0.0166097
0.016608
0.0165908
0.016588
0.0165707
0.0165676
0.0165501
0.0165468
0.0165295
0.0165264
0.0165098
0.0165071
0.0164911
0.0164886
0.0164733
0.0164709
0.0164561
0.0164538
0.0164395
0.0164372
0.0164235
0.0164212
0.0164081
0.0164058
0.0163932
0.0163907
0.0163785
0.0163759
0.0163641
0.0163613
0.0163499
0.0163468
0.0163358
0.0163323
0.0163219
0.0163179
0.0163084
0.0163026
0.0163006
0.0162587
0.0163164
0.0170766
0.0171006
0.0171314
0.017155
0.0171699
0.0171748
0.0171888
0.017183
0.0171907
0.0171892
0.0171991
0.0171942
0.0172023
0.0171924
0.0171947
0.0171817
0.0171791
0.0171598
0.0171504
0.0171249
0.0171068
0.0170751
0.0170539
0.0170199
0.0169987
0.0169655
0.0169467
0.0169173
0.0169031
0.0168785
0.0168706
0.0168503
0.0168474
0.0168299
0.0168293
0.0168132
0.0168101
0.0167926
0.0167879
0.0167651
0.0167581
0.0167334
0.0167232
0.0166986
0.016691
0.016667
0.016661
0.0166406
0.0166395
0.0166222
0.0166233
0.0166073
0.0166095
0.016595
0.0165985
0.0165846
0.0165881
0.0165733
0.0165749
0.0165597
0.0165594
0.0165421
0.0165416
0.0165238
0.0165222
0.0165042
0.016502
0.0164844
0.0164821
0.0164649
0.016463
0.0164463
0.0164447
0.0164286
0.0164272
0.0164117
0.0164104
0.0163954
0.016394
0.0163796
0.0163779
0.0163639
0.016362
0.0163484
0.0163461
0.0163329
0.0163302
0.0163175
0.0163146
0.0163025
0.0162992
0.0162878
0.0162844
0.0162738
0.0162701
0.0162605
0.0162565
0.0162478
0.0162429
0.0162323
0.0169849
0.0169939
0.0170229
0.0170335
0.0170563
0.0170468
0.0170641
0.0170627
0.0170683
0.0170655
0.0170737
0.0170716
0.0170781
0.0170685
0.0170689
0.017052
0.0170444
0.0170196
0.017006
0.0169774
0.0169624
0.0169351
0.0169216
0.0168963
0.0168854
0.0168628
0.0168543
0.0168324
0.0168241
0.0168032
0.0167967
0.0167771
0.0167737
0.0167562
0.0167538
0.0167383
0.0167356
0.0167162
0.016713
0.0166926
0.0166871
0.0166664
0.0166623
0.0166434
0.0166388
0.0166196
0.0166177
0.0166015
0.0166019
0.0165864
0.0165882
0.0165732
0.0165751
0.016561
0.0165622
0.0165472
0.0165485
0.0165323
0.016533
0.0165165
0.0165153
0.0164978
0.0164968
0.0164795
0.0164779
0.0164606
0.0164593
0.0164422
0.0164411
0.0164247
0.0164236
0.0164076
0.0164067
0.0163911
0.0163905
0.0163754
0.0163749
0.0163604
0.0163596
0.0163454
0.0163444
0.0163305
0.016329
0.0163153
0.0163131
0.0162997
0.0162969
0.0162839
0.0162806
0.0162681
0.0162643
0.0162524
0.0162481
0.0162368
0.0162322
0.0162213
0.0162177
0.016201
0.0162314
0.0161505
0.0169487
0.0169529
0.0169725
0.0169999
0.0170078
0.0170213
0.0170305
0.0170234
0.0170295
0.0170224
0.0170233
0.0170169
0.0170178
0.0170003
0.0169928
0.0169729
0.0169642
0.016942
0.0169323
0.0169077
0.016897
0.0168726
0.0168627
0.01684
0.0168313
0.0168097
0.016801
0.0167792
0.0167703
0.0167487
0.0167416
0.0167197
0.0167147
0.0166939
0.0166912
0.0166723
0.0166703
0.0166541
0.0166507
0.016633
0.016633
0.0166164
0.0166155
0.0165992
0.0165982
0.0165818
0.0165803
0.0165625
0.016562
0.0165455
0.0165439
0.0165262
0.0165249
0.016506
0.0165037
0.0164865
0.0164848
0.0164673
0.0164665
0.016449
0.0164482
0.016431
0.0164306
0.0164141
0.0164134
0.0163971
0.0163967
0.0163806
0.0163801
0.0163643
0.0163636
0.016348
0.0163473
0.0163321
0.0163313
0.0163167
0.016316
0.0163017
0.016301
0.0162872
0.0162863
0.0162732
0.0162721
0.0162593
0.016258
0.0162456
0.0162438
0.0162318
0.0162295
0.0162179
0.016215
0.0162037
0.0162004
0.0161894
0.0161856
0.0161753
0.0161709
0.0161612
0.0161571
0.016144
0.0168489
0.0168538
0.016892
0.0168899
0.0169179
0.0169041
0.0169202
0.0169193
0.0169251
0.0169277
0.0169287
0.0169282
0.0169313
0.0169168
0.0169138
0.016897
0.0168895
0.01687
0.0168623
0.0168425
0.0168354
0.0168155
0.0168077
0.0167866
0.0167783
0.0167567
0.0167482
0.0167264
0.0167185
0.0166966
0.0166897
0.0166695
0.0166653
0.0166464
0.0166446
0.0166279
0.016627
0.0166099
0.0166095
0.0165942
0.0165938
0.0165773
0.0165771
0.0165615
0.0165606
0.0165428
0.0165413
0.0165243
0.0165236
0.0165062
0.0165056
0.0164886
0.016488
0.0164711
0.0164704
0.0164538
0.0164532
0.0164366
0.0164366
0.01642
0.0164199
0.0164032
0.016403
0.0163867
0.016386
0.0163697
0.016369
0.0163529
0.0163522
0.0163364
0.0163358
0.0163203
0.0163196
0.0163047
0.016304
0.0162897
0.016289
0.0162752
0.0162746
0.0162613
0.0162606
0.0162479
0.0162471
0.016235
0.016234
0.0162223
0.0162211
0.0162098
0.0162082
0.0161974
0.0161953
0.0161848
0.0161821
0.0161719
0.0161686
0.0161587
0.016156
0.0161403
0.0161704
0.016093
0.0168328
0.0168476
0.0168806
0.0168851
0.0168948
0.0169033
0.0169238
0.0169192
0.0169183
0.016909
0.0169145
0.0169116
0.016912
0.0168945
0.0168892
0.0168704
0.0168612
0.0168392
0.01683
0.0168086
0.0168008
0.0167796
0.0167717
0.0167501
0.0167422
0.0167214
0.0167144
0.0166951
0.0166894
0.0166708
0.0166668
0.0166481
0.0166455
0.0166276
0.0166259
0.0166091
0.0166082
0.0165923
0.0165913
0.0165758
0.0165757
0.0165591
0.0165595
0.0165441
0.0165433
0.0165267
0.0165257
0.0165093
0.0165087
0.0164922
0.0164921
0.0164753
0.0164753
0.0164588
0.0164589
0.0164425
0.0164426
0.0164266
0.0164268
0.0164108
0.0164108
0.0163948
0.0163949
0.0163787
0.0163785
0.0163624
0.0163621
0.0163461
0.0163456
0.0163299
0.0163294
0.016314
0.0163134
0.0162985
0.016298
0.0162835
0.016283
0.0162692
0.0162686
0.0162554
0.0162549
0.0162422
0.0162416
0.0162294
0.0162285
0.0162168
0.0162158
0.0162044
0.0162029
0.016192
0.0161901
0.0161796
0.0161771
0.0161669
0.0161637
0.0161542
0.0161491
0.0161467
0.016107
0.0161631
0.0167698
0.016767
0.016798
0.0168065
0.0168102
0.0168086
0.0168137
0.0168028
0.0168107
0.0168095
0.0168152
0.0168165
0.0168195
0.016809
0.0168087
0.0167956
0.0167929
0.0167793
0.0167791
0.0167642
0.0167623
0.0167468
0.0167437
0.0167269
0.0167229
0.0167055
0.0167012
0.016684
0.0166801
0.0166627
0.0166597
0.0166417
0.0166395
0.016622
0.0166201
0.0166037
0.0166026
0.0165866
0.016586
0.0165704
0.0165707
0.0165548