/*--------------------------------*- C++ -*----------------------------------*\
  =========                 |
  \\      /  F ield         | OpenFOAM: The Open Source CFD Toolbox
   \\    /   O peration     | Website:  https://openfoam.org
    \\  /    A nd           | Version:  8
     \\/     M anipulation  |
\*---------------------------------------------------------------------------*/
FoamFile
{
    version     2.0;
    format      ascii;
    class       volScalarField;
    location    "19.5000376192658642";
    object      p;
}
// * * * * * * * * * * * * * * * * * * * * * * * * * * * * * * * * * * * * * //

dimensions      [1 -1 -2 0 0 0 0];

internalField   nonuniform List<scalar> 
6800
(
99173.7
99475.3
99583.8
99614.5
99623.4
99715.4
99745.8
99789.3
99841.6
99896.4
98959.5
99275.4
99568.9
99619.5
99618
99692.7
99758.7
99821.5
99877.6
99918.6
99032.1
98976.7
99367
99598.3
99606.2
99674.5
99750.5
99811.1
99867.7
99932.2
99322.6
99138
99152.2
99557.7
99598.7
99664.5
99730.8
99810.4
99890.4
99961.9
99679.3
100029
99350.9
99591.2
99615.7
99657.6
99719.5
99815.9
99886
99959
99693.9
100204
99263.3
99502.7
99538.4
99595.9
99658.6
99757.4
99844.6
99933
98790
99800.4
99039.1
99327.1
99395.9
99503
99593.8
99742.7
99851.4
99949
97662.9
99185.6
98689.5
99059.2
99175.6
99361.7
99476.2
99651.2
99795.4
99940.6
96407.4
98449.4
98281.1
98737.5
98974.1
99256
99422.1
99633.5
99769.5
99905.3
95401.5
97782
97797.9
98458.6
98751
99146.2
99390.3
99625.4
99774.9
99916.8
99794
99735.4
99680.8
99661.5
99653.2
99650.2
99651
99655.4
99663.7
99675.6
99777.6
99720.1
99672.3
99653.3
99645.4
99642
99641.8
99645.6
99653.7
99666.1
99741.5
99691.3
99654.2
99638.4
99630.9
99626.3
99625.3
99628.2
99636.7
99653.1
99693.2
99659.6
99633.4
99622.1
99615.1
99610.2
99608
99608.8
99619.7
99646.4
99645.5
99630.4
99615.8
99609.1
99603.2
99597.5
99593.2
99593.1
99609.8
99662.3
99603.3
99607.1
99602.2
99602.8
99602.1
99598.3
99593.5
99586.6
99599.9
99697.9
99564.6
99589.2
99596.7
99611
99616.6
99613.6
99606.3
99604.8
99604.6
99750.7
99522.5
99571.5
99603.5
99629.2
99639.7
99636.9
99627.1
99651.6
99634.1
99761.1
99465.3
99552.5
99610.5
99642.4
99656.4
99662.2
99660.5
99654.9
99696.7
99793.9
99364.9
99535.4
99597.3
99639.5
99661.1
99659
99707.6
99791.8
99784.8
99819.4
99694.7
99733.1
99781.4
99841.8
99910.4
99988.3
100074
100166
100264
100366
100471
100577
100683
100787
100889
100986
101078
101165
101245
101319
101386
101446
101499
101545
101585
101618
101646
101669
101687
101701
101710
101717
101720
101720
101719
101715
101710
101703
101695
101686
101677
101666
101656
101645
101634
101623
101611
101600
101589
101579
101568
101558
101548
101538
101529
101519
101511
101502
101494
101486
101479
101471
101464
101457
101451
101445
101439
101433
101427
101422
101417
101412
101407
101402
101398
101394
101390
101386
101383
101379
101376
101373
101369
101366
101364
101361
101358
101355
101353
101350
101348
101346
101343
101341
101339
101336
101334
101332
101329
101329
99682
99723.5
99772.8
99832.3
99901.2
99979.3
100065
100158
100255
100357
100463
100570
100677
100781
100882
100980
101073
101160
101241
101315
101383
101443
101496
101543
101583
101616
101645
101667
101686
101699
101709
101716
101719
101720
101718
101714
101709
101702
101695
101686
101676
101666
101655
101644
101633
101622
101611
101600
101589
101578
101568
101558
101548
101538
101528
101519
101510
101502
101494
101486
101478
101471
101464
101457
101451
101444
101438
101433
101427
101422
101417
101412
101407
101402
101398
101394
101390
101386
101383
101379
101376
101372
101369
101366
101364
101361
101358
101355
101353
101350
101348
101346
101343
101341
101338
101336
101334
101332
101329
101328
99664.7
99709.8
99758.6
99817.3
99886.4
99964.8
100052
100144
100241
100343
100448
100553
100661
100767
100870
100968
101062
101150
101232
101307
101375
101436
101490
101537
101577
101611
101640
101663
101682
101696
101706
101713
101716
101717
101716
101712
101707
101701
101693
101684
101675
101665
101654
101643
101632
101621
101610
101599
101588
101578
101567
101557
101547
101537
101528
101519
101510
101501
101493
101485
101478
101471
101464
101457
101450
101444
101438
101432
101427
101421
101416
101411
101407
101402
101398
101394
101390
101386
101382
101379
101376
101372
101369
101366
101363
101361
101358
101355
101353
101350
101348
101345
101343
101341
101338
101336
101334
101332
101329
101328
99651.2
99696.9
99745.5
99803.5
99871.4
99947.9
100031
100123
100221
100324
100429
100535
100642
100749
100852
100951
101046
101135
101217
101293
101362
101424
101478
101526
101567
101602
101632
101656
101675
101689
101700
101707
101711
101712
101711
101708
101703
101697
101690
101681
101672
101662
101652
101641
101630
101619
101608
101598
101587
101576
101566
101556
101546
101536
101526
101517
101509
101500
101492
101485
101477
101470
101463
101456
101450
101443
101437
101432
101426
101421
101416
101411
101406
101402
101397
101393
101389
101386
101382
101379
101375
101372
101369
101366
101363
101360
101358
101355
101353
101350
101348
101345
101343
101341
101338
101336
101334
101332
101329
101328
99655.1
99691.6
99739
99794.9
99860.1
99934.6
100017
100106
100203
100305
100409
100515
100622
100728
100831
100931
101026
101115
101198
101275
101344
101407
101462
101511
101553
101589
101619
101644
101663
101679
101690
101698
101702
101704
101704
101701
101697
101691
101684
101676
101667
101658
101648
101637
101627
101616
101606
101595
101584
101574
101564
101553
101544
101534
101525
101516
101507
101499
101491
101483
101476
101469
101462
101455
101449
101442
101436
101431
101425
101420
101415
101410
101405
101401
101397
101393
101389
101385
101381
101378
101375
101372
101369
101366
101363
101360
101357
101355
101352
101350
101347
101345
101343
101340
101338
101336
101334
101332
101329
101327
99686
99706.3
99747.3
99799.2
99860.1
99931
100011
100097
100190
100290
100392
100497
100602
100707
100810
100909
101004
101093
101176
101253
101323
101386
101442
101492
101535
101571
101602
101628
101649
101665
101677
101685
101691
101693
101694
101692
101689
101684
101677
101669
101661
101652
101642
101632
101622
101612
101602
101591
101581
101571
101561
101551
101541
101531
101522
101513
101505
101497
101489
101481
101474
101467
101460
101454
101447
101441
101435
101430
101424
101419
101414
101409
101405
101400
101396
101392
101388
101384
101381
101377
101374
101371
101368
101365
101362
101360
101357
101354
101352
101349
101347
101345
101342
101340
101338
101336
101333
101331
101329
101327
99744.8
99748.1
99776
99820.2
99874.6
99940.1
100017
100097
100186
100281
100380
100482
100585
100687
100788
100886
100979
101068
101151
101228
101298
101361
101418
101468
101512
101549
101581
101608
101629
101647
101660
101669
101676
101677
101680
101679
101678
101673
101667
101661
101653
101644
101635
101626
101616
101606
101596
101586
101576
101567
101557
101547
101538
101528
101519
101510
101502
101494
101487
101479
101472
101465
101458
101452
101445
101439
101434
101428
101423
101418
101413
101408
101403
101399
101395
101391
101387
101384
101380
101377
101373
101370
101367
101365
101362
101359
101356
101354
101351
101349
101347
101344
101342
101340
101338
101336
101333
101331
101329
101327
99786.2
99803.4
99827.2
99861.1
99907
99964.4
100031
100106
100192
100281
100374
100471
100569
100668
100765
100860
100952
101038
101120
101196
101265
101329
101386
101436
101481
101520
101553
101581
101604
101622
101637
101648
101656
101661
101665
101664
101662
101658
101654
101650
101642
101635
101627
101618
101609
101600
101590
101581
101571
101561
101552
101542
101533
101524
101515
101507
101499
101491
101483
101476
101469
101462
101456
101449
101443
101437
101432
101426
101421
101416
101411
101406
101402
101398
101394
101390
101386
101383
101379
101376
101373
101370
101367
101364
101361
101358
101356
101353
101351
101349
101346
101344
101342
101340
101337
101335
101333
101331
101329
101326
99786.1
99833.1
99877.2
99913
99953.8
100004
100061
100136
100214
100296
100383
100473
100565
100658
100750
100841
100928
101011
101090
101164
101233
101296
101352
101403
101448
101487
101521
101550
101575
101595
101611
101624
101634
101641
101645
101644
101642
101640
101637
101635
101629
101622
101615
101608
101599
101591
101582
101573
101564
101555
101546
101537
101529
101519
101511
101503
101496
101488
101480
101473
101466
101459
101453
101447
101441
101435
101429
101424
101419
101414
101409
101405
101400
101396
101392
101388
101385
101381
101378
101375
101372
101369
101366
101363
101360
101358
101355
101353
101350
101348
101346
101344
101341
101339
101337
101335
101333
101331
101328
101326
99832.2
99870.8
99923.3
99965.9
100005
100052
100105
100167
100236
100309
100388
100470
100554
100640
100726
100810
100893
100972
101047
101119
101186
101249
101305
101357
101403
101444
101479
101510
101536
101559
101577
101591
101603
101611
101618
101618
101620
101618
101620
101618
101612
101607
101601
101594
101587
101580
101572
101564
101555
101547
101539
101530
101522
101514
101507
101499
101491
101483
101476
101469
101463
101456
101450
101444
101438
101432
101427
101421
101417
101412
101408
101403
101399
101395
101391
101387
101384
101380
101377
101374
101371
101367
101365
101362
101359
101357
101354
101352
101350
101347
101345
101343
101341
101339
101337
101335
101333
101330
101328
101326
99903
99922.6
99983.8
100030
100069
100112
100162
100220
100283
100352
100425
100501
100580
100660
100740
100819
100897
100972
101043
101111
101174
101233
101288
101338
101383
101422
101458
101489
101516
101538
101556
101572
101583
101593
101599
101602
101600
101603
101607
101601
101596
101593
101588
101582
101575
101568
101561
101553
101546
101538
101530
101522
101514
101508
101500
101492
101485
101477
101470
101464
101457
101451
101445
101439
101434
101428
101423
101418
101414
101409
101405
101400
101396
101392
101389
101385
101382
101378
101375
101372
101369
101366
101364
101361
101359
101356
101354
101351
101349
101347
101345
101343
101341
101339
101336
101334
101332
101330
101328
101326
99996.5
100021
100082
100124
100160
100202
100251
100304
100363
100425
100492
100561
100632
100704
100777
100850
100921
100991
101058
101121
101180
101234
101284
101330
101372
101409
101443
101472
101497
101518
101536
101551
101562
101571
101577
101580
101581
101585
101583
101579
101577
101575
101570
101565
101559
101553
101546
101540
101533
101525
101518
101511
101504
101497
101490
101483
101476
101469
101462
101456
101450
101444
101439
101433
101428
101423
101418
101414
101409
101405
101400
101396
101393
101389
101385
101382
101379
101376
101373
101370
101367
101364
101362
101359
101357
101355
101352
101350
101348
101346
101344
101342
101340
101338
101336
101334
101332
101330
101328
101326
100087
100111
100164
100202
100235
100274
100319
100369
100422
100480
100541
100604
100670
100737
100804
100871
100937
101001
101063
101122
101177
101228
101276
101319
101359
101395
101426
101454
101478
101499
101516
101532
101542
101552
101558
101561
101566
101567
101564
101563
101562
101561
101556
101551
101546
101541
101535
101528
101522
101515
101508
101501
101495
101488
101482
101475
101469
101462
101456
101450
101444
101439
101433
101428
101423
101419
101414
101410
101405
101401
101397
101393
101390
101386
101383
101380
101377
101374
101371
101368
101365
101363
101360
101358
101355
101353
101351
101349
101347
101345
101343
101341
101339
101337
101335
101334
101332
101330
101328
101326
100163
100189
100243
100280
100312
100350
100393
100440
100490
100543
100599
100658
100718
100779
100841
100902
100962
101020
101077
101131
101181
101229
101273
101314
101351
101385
101415
101441
101464
101484
101500
101515
101525
101536
101539
101547
101548
101549
101546
101547
101546
101544
101539
101535
101531
101527
101521
101515
101509
101503
101497
101491
101484
101478
101472
101466
101460
101454
101448
101443
101437
101432
101427
101422
101417
101413
101409
101405
101401
101397
101393
101389
101386
101383
101380
101376
101374
101371
101368
101365
101363
101361
101358
101356
101354
101352
101350
101348
101346
101344
101342
101340
101338
101337
101335
101333
101331
101329
101328
101326
100241
100267
100320
100355
100386
100421
100461
100504
100549
100598
100649
100702
100757
100812
100869
100924
100980
101033
101086
101136
101183
101228
101269
101307
101341
101372
101401
101426
101448
101466
101483
101496
101507
101517
101522
101531
101530
101532
101531
101530
101531
101529
101524
101521
101517
101513
101508
101503
101498
101492
101486
101480
101475
101469
101463
101458
101452
101447
101441
101436
101431
101426
101421
101417
101413
101408
101404
101400
101397
101393
101389
101386
101383
101380
101377
101374
101371
101369
101366
101363
101361
101359
101357
101354
101352
101350
101348
101346
101345
101343
101341
101339
101338
101336
101334
101333
101331
101329
101327
101326
100325
100351
100396
100429
100458
100491
100528
100567
100609
100654
100701
100750
100800
100851
100902
100954
101004
101053
101100
101146
101189
101230
101268
101304
101336
101365
101391
101415
101435
101454
101469
101482
101492
101501
101508
101512
101516
101516
101518
101516
101515
101513
101510
101508
101504
101501
101496
101491
101486
101481
101475
101470
101465
101459
101454
101449
101444
101439
101434
101429
101424
101420
101415
101411
101407
101403
101399
101395
101392
101389
101385
101382
101379
101376
101373
101371
101368
101366
101363
101361
101359
101357
101355
101352
101351
101349
101347
101345
101343
101342
101340
101338
101337
101335
101334
101332
101330
101329
101327
101326
100406
100430
100471
100502
100529
100559
100593
100629
100667
100707
100750
100794
100839
100885
100932
100978
101024
101069
101112
101154
101194
101232
101267
101300
101330
101356
101381
101403
101422
101439
101453
101466
101476
101484
101491
101495
101502
101501
101503
101500
101500
101498
101494
101493
101489
101488
101483
101479
101474
101469
101465
101460
101455
101450
101445
101440
101435
101431
101426
101422
101417
101413
101409
101405
101401
101398
101394
101391
101388
101385
101382
101379
101376
101373
101370
101368
101366
101363
101361
101359
101357
101355
101353
101351
101349
101347
101345
101344
101342
101341
101339
101338
101336
101335
101333
101332
101330
101329
101327
101326
100483
100506
100545
100573
100597
100625
100656
100688
100723
100760
100798
100838
100879
100921
100963
101005
101047
101088
101127
101166
101202
101236
101268
101298
101325
101351
101373
101394
101411
101428
101441
101453
101463
101470
101478
101482
101487
101488
101484
101487
101488
101484
101481
101481
101479
101476
101472
101468
101463
101459
101454
101450
101445
101441
101436
101432
101427
101423
101419
101415
101411
101407
101403
101399
101396
101392
101389
101386
101383
101380
101377
101375
101372
101370
101367
101365
101363
101360
101358
101356
101354
101352
101351
101349
101347
101346
101344
101342
101341
101339
101338
101337
101335
101334
101332
101331
101330
101328
101327
101326
100560
100584
100619
100643
100664
100689
100717
100746
100777
100811
100845
100881
100918
100956
100994
101032
101069
101106
101141
101176
101209
101240
101269
101296
101321
101345
101365
101384
101400
101415
101428
101439
101447
101456
101461
101466
101470
101472
101472
101474
101471
101467
101469
101469
101465
101461
101458
101456
101451
101447
101443
101439
101435
101431
101427
101423
101419
101415
101411
101407
101404
101400
101397
101393
101390
101387
101384
101381
101379
101376
101373
101371
101368
101366
101364
101362
101360
101358
101356
101354
101352
101350
101349
101347
101346
101344
101343
101341
101340
101338
101337
101336
101334
101333
101332
101331
101329
101328
101327
101326
100634
100659
100688
100709
100729
100751
100776
100803
100830
100860
100891
100923
100956
100990
101024
101058
101091
101125
101157
101188
101217
101246
101272
101297
101319
101341
101359
101377
101392
101405
101417
101427
101436
101443
101448
101453
101456
101458
101461
101460
101456
101455
101458
101455
101453
101449
101447
101445
101440
101437
101433
101429
101425
101421
101418
101414
101411
101407
101404
101400
101397
101394
101390
101387
101385
101382
101379
101377
101374
101372
101369
101367
101365
101363
101361
101359
101357
101355
101353
101352
101350
101348
101347
101345
101344
101342
101341
101340
101338
101337
101336
101335
101334
101332
101331
101330
101329
101328
101327
101326
100707
100728
100754
100774
100793
100813
100835
100858
100882
100908
100936
100964
100993
101024
101054
101084
101114
101144
101172
101200
101226
101251
101274
101297
101317
101336
101353
101369
101382
101395
101405
101415
101422
101429
101434
101438
101442
101443
101445
101444
101444
101445
101445
101443
101442
101438
101436
101432
101428
101425
101422
101418
101415
101411
101408
101405
101402
101399
101396
101393
101390
101387
101384
101381
101378
101376
101374
101372
101369
101367
101365
101363
101361
101359
101357
101356
101354
101352
101351
101349
101348
101346
101345
101343
101342
101341
101340
101338
101337
101336
101335
101334
101333
101332
101331
101330
101329
101328
101327
101326
100780
100791
100818
100837
100854
100872
100891
100911
100933
100956
100980
101004
101030
101056
101083
101110
101136
101162
101188
101213
101236
101258
101279
101298
101316
101333
101349
101363
101375
101386
101395
101404
101411
101417
101421
101425
101428
101429
101431
101434
101435
101433
101432
101429
101427
101426
101423
101420
101417
101414
101412
101408
101405
101401
101399
101397
101394
101392
101389
101386
101383
101380
101378
101375
101373
101371
101369
101367
101365
101363
101361
101359
101358
101356
101354
101353
101351
101350
101348
101347
101345
101344
101343
101341
101340
101339
101338
101337
101336
101335
101334
101333
101332
101331
101330
101329
101328
101327
101326
101326
100851
100859
100883
100901
100916
100931
100946
100964
100982
101002
101023
101044
101066
101089
101113
101137
101160
101182
101205
101226
101246
101265
101283
101300
101316
101330
101344
101356
101367
101377
101386
101393
101399
101405
101409
101412
101414
101415
101418
101422
101420
101420
101418
101415
101414
101412
101410
101408
101405
101403
101401
101397
101394
101391
101389
101387
101386
101384
101381
101378
101376
101373
101370
101369
101366
101365
101363
101362
101360
101358
101357
101355
101354
101352
101351
101349
101348
101347
101345
101344
101343
101342
101341
101339
101338
101337
101336
101336
101335
101334
101333
101332
101331
101330
101329
101329
101328
101327
101326
101326
100919
100929
100947
100964
100979
100990
101001
101015
101031
101048
101065
101083
101102
101122
101142
101161
101181
101201
101221
101239
101256
101272
101288
101302
101316
101329
101340
101351
101361
101369
101376
101383
101388
101392
101397
101399
101402
101403
101406
101406
101403
101406
101404
101402
101400
101398
101398
101396
101394
101392
101390
101388
101385
101383
101380
101379
101378
101376
101373
101371
101369
101367
101365
101363
101361
101360
101359
101357
101356
101354
101353
101351
101350
101349
101347
101346
101345
101344
101343
101342
101341
101339
101338
101338
101337
101336
101335
101334
101333
101333
101332
101331
101330
101330
101329
101328
101327
101327
101326
101325
100988
100998
101015
101024
101041
101047
101055
101065
101079
101093
101106
101121
101137
101153
101170
101187
101205
101222
101239
101255
101268
101280
101293
101306
101317
101328
101338
101346
101355
101361
101368
101373
101378
101381
101385
101388
101390
101391
101393
101390
101392
101393
101392
101390
101388
101387
101387
101384
101382
101381
101380
101378
101377
101375
101373
101372
101369
101368
101365
101363
101363
101361
101360
101357
101356
101355
101353
101352
101351
101350
101348
101347
101346
101345
101344
101343
101342
101341
101340
101339
101338
101337
101336
101336
101335
101334
101333
101333
101332
101331
101331
101330
101330
101329
101328
101328
101327
101326
101326
101325
101051
101064
101077
101087
101092
101099
101108
101117
101126
101137
101147
101158
101172
101185
101199
101213
101227
101241
101255
101266
101277
101286
101297
101307
101317
101326
101334
101342
101349
101354
101360
101364
101368
101371
101374
101377
101377
101379
101381
101379
101382
101379
101380
101377
101377
101376
101374
101372
101371
101370
101370
101368
101366
101365
101366
101363
101361
101359
101357
101356
101356
101354
101353
101351
101350
101350
101347
101348
101346
101345
101344
101343
101342
101341
101341
101340
101339
101338
101337
101337
101336
101335
101334
101334
101333
101332
101332
101331
101331
101330
101330
101329
101329
101328
101328
101327
101327
101326
101326
101325
101112
101118
101140
101142
101142
101147
101156
101173
101171
101183
101187
101195
101206
101216
101227
101238
101249
101258
101269
101277
101286
101295
101303
101311
101319
101326
101332
101338
101343
101347
101351
101355
101357
101361
101363
101362
101364
101369
101369
101368
101368
101367
101368
101365
101363
101363
101362
101360
101359
101359
101360
101357
101356
101356
101355
101354
101352
101351
101349
101350
101348
101347
101347
101346
101345
101343
101342
101342
101340
101340
101340
101339
101338
101338
101337
101337
101336
101335
101335
101334
101333
101333
101332
101332
101331
101331
101330
101330
101329
101329
101329
101328
101328
101327
101327
101327
101326
101326
101325
101325
101176
101182
101196
101198
101194
101194
101208
101217
101218
101220
101222
101231
101240
101246
101255
101265
101272
101278
101285
101290
101295
101302
101309
101314
101320
101325
101330
101334
101338
101341
101343
101347
101348
101351
101351
101352
101353
101356
101355
101357
101355
101356
101356
101354
101352
101352
101350
101349
101348
101349
101348
101347
101347
101347
101345
101345
101344
101342
101342
101342
101342
101342
101340
101341
101339
101338
101338
101337
101336
101336
101335
101334
101334
101334
101334
101334
101333
101332
101332
101332
101331
101331
101330
101330
101329
101329
101329
101328
101328
101328
101328
101327
101327
101327
101327
101326
101326
101326
101325
101325
101235
101252
101240
101254
101245
101250
101256
101255
101257
101258
101259
101273
101274
101278
101283
101290
101295
101296
101301
101304
101306
101312
101316
101319
101322
101325
101328
101330
101332
101335
101336
101338
101339
101340
101342
101342
101344
101344
101342
101345
101344
101343
101342
101343
101341
101342
101341
101340
101340
101340
101338
101338
101338
101338
101338
101337
101335
101335
101336
101335
101335
101335
101334
101334
101333
101333
101333
101333
101331
101331
101331
101331
101330
101330
101331
101329
101329
101330
101329
101329
101328
101328
101328
101328
101328
101327
101327
101327
101327
101327
101326
101326
101326
101326
101326
101326
101325
101325
101325
101325
101295
101301
101292
101301
101300
101303
101299
101299
101297
101304
101302
101310
101308
101310
101311
101314
101316
101315
101318
101318
101320
101322
101323
101324
101324
101325
101326
101327
101328
101328
101329
101329
101330
101330
101332
101331
101332
101332
101331
101332
101332
101330
101330
101331
101331
101331
101332
101330
101331
101330
101330
101329
101329
101329
101330
101329
101328
101329
101329
101328
101328
101328
101328
101328
101327
101328
101327
101327
101327
101327
101327
101327
101327
101327
101327
101326
101327
101327
101326
101326
101326
101326
101326
101326
101326
101326
101326
101326
101326
101326
101326
101325
101325
101325
101325
101325
101325
101325
101325
101325
100032
100029
100054
100037
100036
100034
100033
100012
99982.8
99955.7
100136
100146
100149
100118
100128
100103
100105
100077
100059
100045
100248
100261
100243
100211
100219
100187
100190
100162
100127
100113
100342
100336
100316
100305
100300
100268
100259
100246
100204
100185
100444
100418
100399
100389
100381
100358
100330
100325
100289
100271
100528
100504
100481
100468
100453
100437
100406
100398
100368
100351
100609
100584
100561
100545
100526
100513
100484
100470
100446
100425
100682
100658
100635
100619
100597
100585
100560
100540
100522
100500
100751
100727
100706
100689
100668
100654
100634
100610
100592
100571
100814
100792
100773
100756
100736
100722
100705
100681
100663
100641
100875
100854
100836
100821
100802
100787
100774
100751
100736
100715
100931
100913
100896
100882
100866
100849
100840
100821
100806
100794
100985
100969
100954
100940
100928
100912
100899
100890
100876
100865
101037
101022
101011
100997
100984
100974
100960
100948
100941
100929
101087
101075
101062
101057
101039
101030
101027
101011
101000
100992
101132
101130
101114
101110
101097
101082
101082
101073
101059
101048
101175
101177
101169
101159
101152
101140
101135
101133
101127
101118
101220
101217
101217
101210
101206
101201
101189
101182
101176
101187
101262
101256
101251
101258
101257
101246
101244
101233
101227
101237
101305
101301
101291
101303
101303
101293
101297
101297
101293
101294
101767
101731
101683
101582
101445
101211
100938
100439
99942.7
98479.8
101478
101366
101271
101122
100933
100670
100327
99714
99129.7
97381.6
101183
101026
100902
100714
100477
100113
99729
99011.8
98371.9
96533.5
100883
100689
100531
100306
100049
99683.1
99243.3
98467.4
97744.9
95693.3
100616
100418
100247
99991.2
99677.7
99228
98783.4
97961.1
97198.7
95281.3
100380
100154
99951.1
99674.7
99389
98980
98512.9
97733.7
96952.7
94648.5
100184
99973.9
99780.3
99478.1
99101.6
98668.6
98246.7
97507.9
96896.6
94339.5
100057
99818.1
99582.3
99326.3
99043.5
98617.6
98128.6
97337.8
96766.3
94294.4
99918
99726.7
99559.8
99315.5
99012.6
98631.5
98252.9
97357
96994
94082.9
99930.7
99726.8
99561.3
99324.1
99046.6
98657
98327.1
97529.1
97252.7
94410.9
104097
104288
104502
104732
104990
105262
105558
105844
106099
106311
104067
104264
104471
104703
104946
105220
105495
105776
105998
106224
103947
104133
104323
104536
104755
104999
105250
105485
105670
105853
103797
103956
104143
104309
104523
104704
104921
105097
105200
105270
103585
103732
103893
104053
104204
104389
104524
104643
104670
104591
103346
103475
103601
103725
103842
103924
104064
104075
104006
103774
103086
103187
103298
103345
103450
103481
103476
103449
103278
102841
102757
102833
102948
102951
102941
102933
102876
102737
102502
101797
102456
102470
102555
102531
102460
102374
102241
101975
101649
100713
102094
102084
102101
102062
101950
101806
101603
101213
100792
99564.8
101328
101328
101328
101328
101328
101328
101328
101328
101328
101328
101329
101329
101329
101329
101329
101330
101330
101330
101331
101331
101332
101332
101333
101333
101334
101335
101336
101336
101337
101338
101339
101340
101341
101342
101344
101345
101347
101348
101350
101352
101354
101356
101358
101360
101363
101366
101369
101372
101376
101379
101384
101387
101393
101397
101403
101408
101415
101421
101429
101435
101444
101452
101463
101472
101484
101495
101509
101521
101537
101552
101570
101587
101609
101628
101653
101675
101704
101730
101764
101794
101833
101869
101914
101956
102009
102059
102121
102181
102254
102327
102416
102505
102613
102726
102860
103004
103178
103368
103598
103853
101328
101328
101328
101328
101328
101328
101328
101328
101328
101328
101329
101329
101329
101329
101329
101330
101330
101330
101331
101331
101332
101332
101333
101333
101334
101335
101336
101336
101337
101338
101339
101340
101341
101342
101344
101345
101347
101348
101350
101352
101354
101356
101358
101360
101363
101366
101369
101372
101376
101379
101384
101387
101393
101397
101403
101408
101415
101421
101429
101435
101444
101452
101463
101472
101484
101495
101509
101521
101537
101552
101570
101587
101609
101628
101653
101675
101704
101730
101764
101794
101833
101868
101914
101955
102009
102058
102121
102179
102255
102325
102415
102502
102612
102720
102855
102995
103168
103351
103577
103825
101328
101328
101328
101328
101328
101328
101328
101328
101328
101328
101329
101329
101329
101329
101329
101330
101330
101330
101331
101331
101332
101332
101333
101333
101334
101335
101336
101336
101337
101338
101339
101340
101341
101342
101344
101345
101347
101348
101350
101352
101354
101356
101358
101360
101363
101366
101369
101372
101376
101379
101383
101387
101392
101397
101403
101408
101415
101420
101428
101435
101444
101452
101463
101472
101484
101495
101508
101521
101537
101552
101570
101587
101608
101628
101652
101675
101704
101730
101763
101794
101832
101869
101913
101956
102007
102058
102118
102179
102250
102323
102407
102498
102600
102711
102837
102976
103135
103312
103516
103742
101328
101328
101328
101328
101328
101328
101328
101328
101328
101328
101328
101329
101329
101329
101329
101330
101330
101330
101331
101331
101332
101332
101333
101333
101334
101335
101335
101336
101337
101338
101339
101340
101341
101342
101344
101345
101347
101348
101350
101352
101354
101356
101358
101360
101363
101366
101369
101372
101376
101379
101383
101387
101392
101397
101402
101408
101414
101420
101428
101435
101444
101452
101462
101472
101484
101495
101508
101521
101537
101552
101570
101587
101608
101628
101653
101675
101704
101730
101763
101794
101833
101868
101913
101955
102008
102056
102118
102175
102249
102317
102405
102485
102592
102690
102819
102941
103098
103248
103439
103618
101327
101327
101328
101328
101328
101328
101328
101328
101328
101328
101328
101329
101329
101329
101329
101330
101330
101330
101331
101331
101332
101332
101333
101333
101334
101335
101335
101336
101337
101338
101339
101340
101341
101342
101344
101345
101346
101348
101350
101351
101354
101355
101358
101360
101363
101365
101369
101372
101375
101379
101383
101387
101392
101396
101402
101407
101414
101420
101428
101435
101444
101452
101462
101472
101483
101495
101508
101521
101536
101552
101569
101587
101607
101628
101652
101675
101703
101730
101762
101794
101831
101868
101911
101954
102004
102054
102113
102172
102241
102311
102392
102474
102570
102668
102782
102898
103031
103163
103311
103454
101327
101327
101328
101328
101328
101328
101328
101328
101328
101328
101328
101328
101329
101329
101329
101330
101330
101330
101331
101331
101332
101332
101333
101333
101334
101334
101335
101336
101337
101338
101339
101340
101341
101342
101343
101345
101346
101348
101350
101351
101353
101355
101358
101360
101363
101365
101368
101371