/*--------------------------------*- C++ -*----------------------------------*\
  =========                 |
  \\      /  F ield         | OpenFOAM: The Open Source CFD Toolbox
   \\    /   O peration     | Website:  https://openfoam.org
    \\  /    A nd           | Version:  8
     \\/     M anipulation  |
\*---------------------------------------------------------------------------*/
FoamFile
{
    version     2.0;
    format      ascii;
    class       surfaceScalarField;
    location    "19.5000376192658642";
    object      phi;
}
// * * * * * * * * * * * * * * * * * * * * * * * * * * * * * * * * * * * * * //

dimensions      [1 0 -1 0 0 0 0];

internalField   nonuniform List<scalar> 
13330
(
-0.138353
1.05933
-0.920976
0.370213
-0.41943
-0.0891364
1.02959
-1.1869
0.527519
1.9614
-2.02789
1.09608
2.89146
-2.70697
1.77691
3.56111
-3.02904
2.3594
3.9756
-3.14594
2.73145
4.28371
-3.17696
2.86885
4.53164
-3.18705
2.93912
-3.19019
2.96145
4.76038
0.0646357
0.994693
0.79112
-1.14591
1.68053
-2.07631
2.58163
-2.92899
3.16155
-3.28689
3.51452
-3.38202
3.77312
-3.40454
3.99713
-3.40098
4.20285
-3.39276
-3.3741
4.38676
0.353111
0.641582
1.25938
-2.05218
2.16093
-2.97785
2.70772
-3.47579
3.02107
-3.60023
3.25777
-3.61872
3.46573
-3.61249
3.65217
-3.58742
3.83038
-3.57097
-3.53496
3.99123
0.697187
-0.0556046
1.62743
-2.98243
2.23646
-3.58688
2.55187
-3.7912
2.76768
-3.81604
2.957
-3.80803
3.12486
-3.78035
3.28462
-3.74719
3.43675
-3.7231
-3.69329
3.59508
1.24656
-1.30216
1.82747
-3.56334
2.09546
-3.85487
2.30364
-3.99939
2.46812
-3.98052
2.62571
-3.96562
2.76547
-3.92011
2.89698
-3.8787
3.0334
-3.85951
-3.83376
3.17388
1.07452
-2.37668
1.47507
-3.96388
1.74313
-4.12293
1.94744
-4.2037
2.1061
-4.13918
2.25303
-4.11256
2.38854
-4.05563
2.53038
-4.02054
2.66521
-3.99434
-3.97041
2.80186
0.834064
-3.21074
1.2515
-4.38132
1.48107
-4.3525
1.67387
-4.3965
1.80178
-4.26709
1.92939
-4.24017
2.04521
-4.17144
2.15382
-4.12915
2.25383
-4.09435
-4.06855
2.35197
0.662391
-3.87314
0.96009
-4.67902
1.1611
-4.55351
1.32387
-4.55928
1.45245
-4.39566
1.57294
-4.36066
1.68464
-4.28314
1.79331
-4.23781
1.89171
-4.19275
-4.15322
1.97638
0.513605
-4.38674
0.767484
-4.9329
0.936304
-4.72233
1.06146
-4.68443
1.16772
-4.50192
1.25523
-4.44818
1.32755
-4.35545
1.39791
-4.30818
1.4737
-4.26853
-4.23371
1.55419
0.35081
-4.73755
0.55065
-5.13274
0.704514
-4.87619
0.791115
-4.77103
0.87583
-4.58664
0.936695
-4.50905
0.981591
-4.40035
1.02196
-4.34855
1.05897
-4.30554
1.10017
-4.27491
-0.152334
0.152333
-0.274801
0.122468
-0.381408
0.106607
-0.480493
0.0990854
-0.574988
0.0944945
-0.666418
0.0914297
-0.755121
0.0887036
-0.840214
0.0850925
-0.920926
0.0807126
0.0759555
-0.996882
-0.139666
0.291999
-0.255529
0.238331
-0.354222
0.205299
-0.444045
0.188909
-0.527752
0.178201
-0.606528
0.170205
-0.680641
0.162816
-0.747874
0.152326
-0.806642
0.13948
0.124887
-0.855574
-0.124843
0.416842
-0.220169
0.333657
-0.301503
0.286633
-0.371419
0.258826
-0.432635
0.239417
-0.485179
0.222749
-0.528259
0.205896
-0.559536
0.183603
-0.573907
0.153852
0.119016
-0.568037
-0.101183
0.518026
-0.171833
0.404306
-0.22733
0.342131
-0.268646
0.300141
-0.296512
0.267283
-0.310918
0.237155
-0.309188
0.204166
-0.287775
0.162191
-0.234918
0.100995
0.0233668
-0.139269
-0.0711629
0.589188
-0.114045
0.447188
-0.13868
0.366765
-0.143817
0.305279
-0.125672
0.249139
-0.0824439
0.193926
-0.0155563
0.137278
0.0786708
0.067964
0.223231
-0.0435652
-0.21191
0.458507
-0.0473536
0.636542
-0.0620418
0.461876
-0.0537523
0.358476
-0.0101432
0.26167
0.0737008
0.165295
0.192637
0.0749902
0.362258
-0.0323433
0.596682
-0.16646
0.911331
-0.358214
-0.664793
1.36421
-0.0347043
0.671246
-0.0287308
0.455903
0.0220552
0.30769
0.138755
0.14497
0.312777
-0.00872745
0.560948
-0.17318
0.923977
-0.395373
1.41317
-0.655655
1.98752
-0.932563
-1.35667
2.67939
-0.0443743
0.715621
-0.0169158
0.428444
0.113598
0.177176
0.335995
-0.0774271
0.661113
-0.333845
1.13018
-0.64225
1.76765
-1.03284
2.53196
-1.41996
3.39066
-1.79126
-2.14213
4.17612
-0.0773157
0.792936
0.0103238
0.340804
0.271518
-0.0840183
0.65992
-0.465829
1.22845
-0.902371
1.99137
-1.40517
2.89981
-1.94128
3.79197
-2.31213
4.55502
-2.55431
-2.66385
5.07674
-0.12804
0.123628
0.567129
1.19738
2.07192
3.02615
3.81631
4.37303
4.75785
5.05545
-1.03786
0.0409735
-1.05899
0.0211394
-1.06448
0.00549003
-1.05331
-0.0111776
-1.027
-0.0263086
-0.986771
-0.0402279
-0.933529
-0.0532413
-0.868441
-0.0650886
-0.792188
-0.0762529
-0.705411
-0.0867768
-0.609321
-0.0960906
-0.504346
-0.104975
-0.392416
-0.111929
-0.274545
-0.117871
-0.15237
-0.122175
-0.0253866
-0.126984
0.105808
-0.131194
0.239467
-0.133659
0.375143
-0.135676
0.511358
-0.136215
0.647078
-0.13572
0.78156
-0.134482
0.914155
-0.132595
1.04431
-0.130156
1.17157
-0.127263
1.29558
-0.124004
1.41603
-0.120456
1.53273
-0.116696
1.64551
-0.112777
1.75427
-0.108766
1.85896
-0.10469
1.95955
-0.100592
2.05605
-0.0964946
2.14846
-0.0924068
2.23682
-0.0883611
2.32118
-0.084366
2.40165
-0.0804716
2.47833
-0.0766795
2.55134
-0.07301
2.62082
-0.0694795
2.68691
-0.0660825
2.74972
-0.0628132
2.8094
-0.0596833
2.86609
-0.0566908
2.91994
-0.0538485
2.9711
-0.0511596
3.01973
-0.0486266
3.06597
-0.0462397
3.10996
-0.0439891
3.15183
-0.0418699
3.1917
-0.03987
3.22969
-0.0379903
3.26591
-0.0362263
3.30049
-0.0345756
3.33353
-0.0330462
3.36518
-0.0316444
3.39553
-0.0303561
3.42469
-0.0291527
3.4527
-0.0280085
3.4796
-0.0269021
3.50542
-0.0258239
3.53019
-0.0247655
3.55391
-0.0237264
3.57662
-0.0227054
3.59833
-0.0217059
3.61906
-0.0207302
3.63884
-0.0197825
3.6577
-0.0188661
3.67569
-0.0179841
3.69283
-0.0171397
3.70916
-0.0163345
3.72473
-0.0155685
3.73957
-0.0148422
3.75373
-0.0141552
3.76724
-0.0135073
3.78013
-0.0128971
3.79246
-0.012324
3.80424
-0.0117861
3.81552
-0.011282
3.82633
-0.0108095
3.8367
-0.0103669
3.84665
-0.00995236
3.85622
-0.00956397
3.86542
-0.0092003
3.87428
-0.00885971
3.88282
-0.00854051
3.89106
-0.00824162
3.89902
-0.00796119
3.90672
-0.00769881
3.91417
-0.00745117
3.92139
-0.00722015
3.92839
-0.00699775
3.93518
-0.00679391
3.94177
-0.00658512
3.94818
-0.00640859
3.95437
-0.00619141
3.96042
-0.00605734
3.96621
-0.00578728
3.97196
-0.00574855
-0.00514374
-0.880959
0.0663584
-0.891602
0.031783
-0.887227
0.00111517
-0.868404
-0.0300009
-0.836031
-0.0586813
-0.79103
-0.085229
-0.734256
-0.110015
-0.666913
-0.132432
-0.589319
-0.153847
-0.502019
-0.174077
-0.407055
-0.191054
-0.307023
-0.205007
-0.199798
-0.219154
-0.0839023
-0.233767
0.0388088
-0.244886
0.165924
-0.254099
0.295376
-0.260647
0.426828
-0.265111
0.558961
-0.267809
0.691234
-0.268488
0.822882
-0.267369
0.953143
-0.264743
1.0814
-0.260848
1.20712
-0.255884
1.32991
-0.250048
1.44941
-0.243502
1.56535
-0.236398
1.67755
-0.228896
1.78586
-0.221091
1.89023
-0.213128
1.99058
-0.205045
2.08693
-0.196936
2.17928
-0.188851
2.26766
-0.180783
2.35212
-0.172827
2.43272
-0.164957
2.50954
-0.157301
2.58271
-0.149843
2.65233
-0.142632
2.71856
-0.135708
2.78153
-0.129051
2.84136
-0.122643
2.89819
-0.116513
2.95214
-0.110648
3.00338
-0.105079
3.05203
-0.0998121
3.09826
-0.0948543
3.1422
-0.0901846
3.18399
-0.0857811
3.22376
-0.0816373
3.26161
-0.0777245
3.29767
-0.0740487
3.33204
-0.0705979
3.36483
-0.067365
3.39616
-0.0643698
3.42615
-0.0616351
3.45492
-0.0591302
3.48256
-0.0567948
3.50913
-0.0545722
3.53464
-0.0524174
3.55913
-0.0503136
3.58261
-0.0482449
3.6051
-0.0462123
3.62661
-0.0442136
3.64716
-0.0422577
3.66678
-0.0403484
3.68549
-0.038495
3.70333
-0.036704
3.72032
-0.0349818
3.73652
-0.0333349
3.75195
-0.031766
3.76666
-0.030275
3.78068
-0.0288627
3.79405
-0.0275285
3.80682
-0.0262719
3.81901
-0.0250899
3.83067
-0.023981
3.84182
-0.0229406
3.8525
-0.0219663
3.86275
-0.0210532
3.87258
-0.0201983
3.88203
-0.0193977
3.89111
-0.0186478
3.89985
-0.0179458
3.90828
-0.0172887
3.91642
-0.0166728
3.92427
-0.0160966
3.93187
-0.0155556
3.93922
-0.0150504
3.94634
-0.0145722
3.95325
-0.0141284
3.95995
-0.0136971
3.96646
-0.0133076
3.97277
-0.0128984
3.97893
-0.0125665
3.98487
-0.0121317
3.9907
-0.0118874
3.99624
-0.0113299
4.00172
-0.011228
-0.0103899
-0.570905
0.0692262
-0.561328
0.0222065
-0.538836
-0.0213774
-0.50566
-0.0631765
-0.46315
-0.101191
-0.412731
-0.135649
-0.35693
-0.165816
-0.291777
-0.197585
-0.213985
-0.231639
-0.126809
-0.261253
-0.0306064
-0.287257
0.0754243
-0.311038
0.188197
-0.331927
0.303759
-0.349329
0.422721
-0.363848
0.544292
-0.375669
0.667864
-0.384219
0.792517
-0.389763
0.917383
-0.392676
1.04186
-0.39296
1.16529
-0.390807
1.28708
-0.386528
1.40669
-0.380464
1.52369
-0.372878
1.63769
-0.364047
1.74839
-0.354206
1.85557
-0.343577
1.95907
-0.332396
2.05878
-0.320802
2.15468
-0.309029
2.24673
-0.297094
2.33494
-0.285141
2.41935
-0.273261
2.49992
-0.261361
2.5768
-0.249705
2.64999
-0.238145
2.71966
-0.226966
2.78589
-0.21608
2.84883
-0.20557
2.90864
-0.195519
2.96545
-0.185861
3.01937
-0.176564
3.07055
-0.167687
3.11909
-0.159191
3.16515
-0.151139
3.20887
-0.143531
3.2504
-0.136384
3.28987
-0.129657
3.3274
-0.12331
3.36311
-0.117344
3.39708
-0.111704
3.42945
-0.106412
3.46029
-0.101442
3.4897
-0.0967748
3.51778
-0.0924462
3.54466
-0.0885165
3.57046
-0.0849281
3.59525
-0.0815867
3.61907
-0.0783959
3.64194
-0.0752858
3.66387
-0.0722423
3.68487
-0.0692435
3.70495
-0.0662979
3.72414
-0.0634015
3.74246
-0.0605717
3.75992
-0.0578121
3.77656
-0.0551383
3.79242
-0.0525584
3.80752
-0.0500818
3.8219
-0.0477186
3.83561
-0.0454715
3.84867
-0.0433388
3.86113
-0.0413217
3.87302
-0.0394185
3.88438
-0.0376294
3.89524
-0.0359484
3.90563
-0.0343739
3.91558
-0.0328973
3.92513
-0.0315164
3.9343
-0.0302224
3.94312
-0.0290118
3.9516
-0.0278785
3.95977
-0.0268173
3.96765
-0.0258247
3.97525
-0.0248961
3.98261
-0.0240259
3.98972
-0.023213
3.99662
-0.0224494
4.00331
-0.0217382
4.0098
-0.0210629
4.01611
-0.0204396
4.02224
-0.0198283
4.02821
-0.0192836
4.03401
-0.0186986
4.03969
-0.0182387
4.04517
-0.0176117
4.05056
-0.0172763
4.05571
-0.0164841
4.0608
-0.0163214
-0.0152395
-0.109436
0.0393935
-0.0771634
-0.0100662
-0.0383515
-0.0601894
0.00689257
-0.108421
0.0588873
-0.153186
0.119427
-0.196188
0.19149
-0.237879
0.271318
-0.277413
0.354943
-0.315264
0.444263
-0.350573
0.539488
-0.382482
0.6401
-0.41165
0.745494
-0.437322
0.854724
-0.458558
0.966638
-0.475762
1.0802
-0.489231
1.19475
-0.498771
1.30957
-0.504579
1.4239
-0.507011
1.53715
-0.506208
1.64882
-0.502472
1.75847
-0.496178
1.86568
-0.487682
1.9701
-0.477299
2.07146
-0.465398
2.16952
-0.452268
2.26413
-0.438192
2.35523
-0.423492
2.44272
-0.408296
2.52665
-0.392957
2.60698
-0.377423
2.68372
-0.361878
2.75698
-0.346521
2.82658
-0.330965
2.89283
-0.31595
2.95563
-0.300949
3.01527
-0.286606
3.07182
-0.272633
3.12542
-0.259164
3.17627
-0.246374
3.22449
-0.234079
3.27016
-0.222239
3.31345
-0.210972
3.35444
-0.200184
3.3933
-0.189994
3.43015
-0.180387
3.46516
-0.171388
3.49842
-0.162925
3.53005
-0.154932
3.56014
-0.147434
3.58876
-0.140329
3.61603
-0.133678
3.64202
-0.127431
3.66678
-0.121541
3.69039
-0.116056
3.713
-0.111124
3.7347
-0.106627
3.75557
-0.102455
3.77561
-0.0984416
3.79482
-0.0944943
3.8132
-0.0906232
3.83076
-0.0868007
3.84752
-0.0830526
3.86348
-0.0793693
3.8787
-0.0757837
3.89318
-0.0722928
3.90696
-0.0689219
3.92008
-0.0656761
3.93256
-0.0625681
3.94446
-0.059612
3.95579
-0.0568088
3.96661
-0.0541526
3.97693
-0.0516452
3.9868
-0.0492828
3.99623
-0.0470676
4.00527
-0.0449887
4.01395
-0.0430459
4.02227
-0.0412244
4.03028
-0.0395243
4.03799
-0.037931
4.04542
-0.0364424
4.05259
-0.0350493
4.05952
-0.0337457
4.06622
-0.0325281
4.07272
-0.0313903
4.07902
-0.0303245
4.08513
-0.0293311
4.09108
-0.0283976
4.09688
-0.0275314
4.10252
-0.0267054
4.10803
-0.0259488
4.1134
-0.0251974
4.11865
-0.0245395
4.12377
-0.0238138
4.12879
-0.0232632
4.13366
-0.0224807
4.13847
-0.0220825
4.14309
-0.021112
4.14767
-0.0208986
-0.0196328
0.519451
-0.0215501
0.578982
-0.0695972
0.638412
-0.11962
0.69979
-0.169798
0.763662
-0.217058
0.831924
-0.264451
0.905955
-0.31191
0.983716
-0.355175
1.06573
-0.397277
1.15163
-0.43647
1.24124
-0.472096
1.3341
-0.504513
1.42993
-0.533144
1.5284
-0.557029
1.62862
-0.575983
1.72965
-0.590262
1.83094
-0.600064
1.93187
-0.605508
2.03179
-0.606926
2.13022
-0.604646
2.22682
-0.599069
2.32119
-0.590551
2.41304
-0.57953
2.50206
-0.566321
2.58807
-0.551408
2.67092
-0.535119
2.75052
-0.517783
2.82684
-0.499817
2.89983
-0.48129
2.96959
-0.462712
3.03609
-0.443926
3.09932
-0.425102
3.15955
-0.40675
3.2162
-0.387615
3.27
-0.36975
3.32062
-0.351568
3.36857
-0.334559
3.41384
-0.317901
3.45652
-0.301847
3.49695
-0.286808
3.53518
-0.272303
3.57126
-0.258319
3.60537
-0.245085
3.63758
-0.232393
3.66806
-0.220472
3.69693
-0.209258
3.72434
-0.198802
3.7504
-0.188983
3.77515
-0.179682
3.79871
-0.170997
3.82112
-0.162732
3.84247
-0.155029
3.86284
-0.147804
3.88224
-0.140938
3.90067
-0.134487
3.91833
-0.128788
3.93526
-0.123557
3.95158
-0.118779
3.96725
-0.114107
3.9822
-0.10945
3.99646
-0.104879
4.01001
-0.100355
4.0229
-0.0959382
4.03513
-0.091602
4.04676
-0.0874058
4.05779
-0.0833277
4.06828
-0.07941
4.07825
-0.0756455
4.08773
-0.0720522
4.09677
-0.0686509
4.1054
-0.0654363
4.11364
-0.0623957
4.12153
-0.0595323
4.12908
-0.0568392
4.13634
-0.0543225
4.14331
-0.0519632
4.15003
-0.0497659
4.15651
-0.0477049
4.16278
-0.0457879
4.16884
-0.0439896
4.17471
-0.0423138
4.18041
-0.040746
4.18594
-0.0392804
4.19133
-0.0379153
4.19658
-0.0366414
4.2017
-0.0354489
4.20671
-0.0343415
4.21162
-0.0333
4.21642
-0.0323389
4.22113
-0.0314162
4.22577
-0.0305802
4.2303
-0.0297353
4.23478
-0.0290122
4.23915
-0.0281879
4.24347
-0.027588
4.24769
-0.026696
4.25187
-0.0262641
4.25594
-0.0251826
4.25997
-0.0249297
-0.0235625
1.41153
-0.0688686
1.46394
-0.122007
1.51706
-0.172739
1.57229
-0.225029
1.62892
-0.273682
1.68837
-0.323909
1.75374
-0.377278
1.8194
-0.420836
1.88841
-0.466286
1.96089
-0.508953
2.0367
-0.547901
2.11526
-0.583077
2.19589
-0.613775
2.27812
-0.639253
2.36155
-0.659411
2.44551
-0.674225
2.52942
-0.683974
2.61271
-0.688802
2.69492
-0.689134
2.7756
-0.685325
2.85443
-0.677897
2.93108
-0.667201
3.00534
-0.653792
3.07696
-0.637937
3.14581
-0.620259
3.21179
-0.601102
3.27484
-0.580835
3.335
-0.559979
3.39219
-0.538479
3.44654
-0.517061
3.4981
-0.495487
3.54669
-0.473689
3.59324
-0.453298
3.63576
-0.430137
3.67638
-0.41037
3.71404
-0.389224
3.74969
-0.370214
3.7831
-0.35131
3.81422
-0.33297
3.84371
-0.316293
3.87143
-0.300025
3.89743
-0.284323
3.92193
-0.269585
3.94493
-0.255387
3.96663
-0.242176
3.98714
-0.229767
4.00662
-0.218276
4.02514
-0.207504
4.0427
-0.197239
4.05945
-0.187755
4.07538
-0.178656
4.09059
-0.170241
4.10518
-0.16239
4.11906
-0.154824
4.13213
-0.14755
4.14475
-0.141412
4.1567
-0.135508
4.16841
-0.130492
4.1796
-0.125296
4.19021
-0.120054
4.20025
-0.114919
4.20972
-0.109826
4.21867
-0.104891
4.22712
-0.100049
4.23512
-0.0954053
4.24268
-0.0908943
4.24987
-0.086595
4.25669
-0.0824649
4.26318
-0.0785382
4.26937
-0.0748459
4.2753
-0.0713705
4.281
-0.0680886
4.28647
-0.0650074
4.29175
-0.0621155
4.29685
-0.0594269
4.3018
-0.0569079
4.30661
-0.0545744
4.31128
-0.0523815
4.31585
-0.0503551
4.32031
-0.0484482
4.32468
-0.0466814
4.32896
-0.0450273
4.33316
-0.0434835
4.3373
-0.0420534
4.34138
-0.04072
4.3454
-0.0394738
4.34938
-0.038322
4.35332
-0.0372375
4.35722
-0.0362433
4.36109
-0.0352799
4.36493
-0.0344188
4.36872
-0.0335295
4.3725
-0.0327886
4.37622
-0.0319119
4.37993
-0.0313007
4.38359
-0.0303527
4.38724
-0.0299107
4.39085
-0.0287941
4.39443
-0.028514
-0.0271351
2.65907
-0.0485445
2.6476
-0.11054
2.64513
-0.170264
2.65288
-0.232778
2.66713
-0.287929
2.68761
-0.344397
2.72215
-0.411818
2.75662
-0.455303
2.79822
-0.507889
2.84558
-0.556306
2.89772
-0.600041
2.95352
-0.63888
3.01219
-0.672444
3.07294
-0.700001
3.13516
-0.721636
3.19803
-0.737092
3.26094
-0.746885
3.32324
-0.751106
3.38451
-0.750399
3.44424
-0.74506
3.50228
-0.735934
3.55836
-0.72328
3.61239
-0.707826
3.66417
-0.689712
3.71363
-0.669725
3.76077
-0.64824
3.80548
-0.625541
3.84785
-0.602355
3.88779
-0.578412
3.92546
-0.554732
3.96111
-0.531139
3.99401
-0.506595
4.02685
-0.486135
4.05436
-0.457644
4.08188
-0.437888
4.10646
-0.413803
4.12993
-0.393693
4.15165
-0.373026
4.17116
-0.352485
4.18987
-0.334996
4.2072
-0.317354
4.22327
-0.300393
4.23833
-0.28465
4.25229
-0.26935
4.26543
-0.255312
4.2778
-0.242139
4.28958
-0.230056
4.30081
-0.218729
4.3114
-0.207835
4.32165
-0.197999
4.3314
-0.188411
4.3408
-0.179644
4.34999
-0.171576
4.35877
-0.163603
4.36679
-0.155572
4.37493
-0.149554
4.38224
-0.142813
4.38996
-0.138222
4.39718
-0.13251
4.4039
-0.126776
4.41018
-0.121194
4.416
-0.115652
4.42146
-0.110353
4.42656
-0.105143
4.43137
-0.100218
4.43589
-0.0954129
4.44019
-0.0908943
4.44426
-0.0865347
4.44813
-0.0824129
4.45186
-0.0785713
4.45546
-0.0749742
4.45896
-0.0715832
4.46236
-0.0684155
4.4657
-0.0654499
4.46898
-0.0627134
4.47222
-0.0601461
4.47544
-0.0577898
4.47862
-0.0555638
4.4818
-0.053534
4.48496
-0.0516077
4.48812
-0.0498457
4.49128
-0.0481874
4.49444
-0.046644
4.49762
-0.0452304
4.50081
-0.0439102
4.50402
-0.0426808
4.50725
-0.0415492
4.51049
-0.0404823
4.51376
-0.0395102
4.51704
-0.0385584
4.52034
-0.0377201
4.52364
-0.0368336
4.52697
-0.0361149
4.53029
-0.0352338
4.53363
-0.0346407
4.53697
-0.0336943
4.54032
-0.0332584
4.54371
-0.032181
4.54709
-0.0319028
-0.0305743
4.09972
0.0278525
4.01454
-0.0253585
3.94145
-0.0971695
3.88149
-0.172822
3.83505
-0.241491
3.79747
-0.306811
3.77491
-0.389261
3.7668
-0.447191
3.76735
-0.508441
3.7764
-0.565354
3.79319
-0.616832
3.8161
-0.661795
3.84373
-0.70007
3.87463
-0.730903
3.90789
-0.754898
3.94245
-0.771652
3.9777
-0.782133
4.01283
-0.786235
4.0476
-0.785171
4.08147
-0.778929
4.11456
-0.769021
4.14653
-0.755257
4.1774
-0.738692
4.2069
-0.719209
4.23503
-0.697859
4.26185
-0.67506
4.28721
-0.650899
4.31126
-0.626402
4.33407
-0.601219
4.35536
-0.576025
4.37585
-0.551633
4.39421
-0.524953
4.41318
-0.505102
4.42945
-0.473917
4.44499
-0.453431
4.45768
-0.426485
4.4696
-0.405621
4.48039
-0.383815
4.48937
-0.361459
4.49875
-0.344381
4.50678
-0.325377
4.51404
-0.307653
4.5208
-0.291415
4.52687
-0.275422
4.5327
-0.261139
4.5382
-0.247641
4.54363
-0.235483
4.54888
-0.223982
4.55395
-0.212899
4.5592
-0.20325
4.56426
-0.193474
4.56933
-0.184719
4.5748
-0.177038
4.57978
-0.168584
4.58482
-0.16061
4.58953
-0.154268
4.59415
-0.147431
4.59882
-0.142894
4.60315
-0.136841
4.60703
-0.130657
4.61058
-0.124744
4.61377
-0.118841
4.61672
-0.113304
4.6194
-0.107819
4.62193
-0.10275
4.62426
-0.097745
4.62651
-0.093143
4.62862
-0.0886379
4.63065
-0.0844518
4.63266
-0.0805768
4.63466
-0.0769788
4.63668
-0.0735935
4.63872
-0.07046
4.6408
-0.067531
4.64294
-0.0648497
4.64511
-0.0623212
4.64736
-0.0600416
4.64966
-0.0578613
4.65205
-0.0559254
4.65449
-0.0540462
4.65702
-0.052379
4.65962
-0.050778
4.66227
-0.0492963
4.66501
-0.0479748
4.66783
-0.0467244
4.67072
-0.0455703
4.67367
-0.0445054
4.67669
-0.0435048
4.67978
-0.0425944
4.68292
-0.0416999
4.68612
-0.0409177
4.68936
-0.0400791
4.69266
-0.0394078
4.69599
-0.0385726
4.69937
-0.038012
4.7028
-0.037127
4.70624
-0.0367015
4.70979
-0.0357252
4.71334
-0.0354594
-0.0343507
5.00228
0.102316
4.92916
0.047755
4.85372
-0.0217257
4.7823
-0.101397
4.71954
-0.178732
4.66715
-0.254423
4.61185
-0.333967
4.5705
-0.405835
4.53594
-0.473886
4.50708
-0.53649
4.48316
-0.592912
4.46338
-0.642012
4.44719
-0.68388
4.43406
-0.717779
4.42382
-0.744654
4.41614
-0.76397
4.41107
-0.777071
4.40825
-0.783408
4.40789
-0.784817
4.40935
-0.780387
4.41296
-0.772627
4.41811
-0.760408
4.42516
-0.745745
4.43358
-0.727634
4.44351
-0.707787
4.45467
-0.686221
4.46703
-0.663259
4.48008
-0.639448
4.49431
-0.615446
4.5085
-0.59022
4.52371
-0.566842
4.53861
-0.539847
4.55312
-0.519613
4.56814
-0.488938
4.58563
-0.470927
4.60163
-0.44248
4.61668
-0.420672
4.63041
-0.397542
4.64061
-0.371662
4.65433
-0.3581
4.66657
-0.337622
4.67796
-0.319034
4.68877
-0.302234
4.69866
-0.285309
4.70798
-0.270458
4.71668
-0.256336
4.72476
-0.243565
4.73251
-0.231736
4.73926
-0.21965
4.74561
-0.209599
4.75106
-0.198919
4.75579
-0.189453
4.76135
-0.182598
4.76521
-0.17244
4.76953
-0.164931
4.77244
-0.157181
4.77563
-0.150623
4.77811
-0.14537
4.78042
-0.139153
4.78246
-0.132693
4.78434
-0.126622
4.78601
-0.120511
4.78758
-0.114872
4.78899
-0.109232
4.79039
-0.104148
4.79168
-0.0990378
4.79311
-0.0945735
4.79444
-0.0899731
4.79598
-0.0859904
4.79758
-0.0821777
4.79934
-0.0787337
4.80118
-0.0754364
4.80313
-0.0724066
4.80516
-0.0695605
4.8073
-0.066994
4.80952
-0.0645417
4.81188
-0.0623998
4.8143
-0.0602851
4.81688
-0.0585051
4.81952
-0.0566842
4.82231
-0.0551668
4.82517
-0.0536418
4.82812
-0.0522472
4.83121
-0.0510595
4.83438
-0.0498968
4.83767
-0.0488599
4.84105
-0.0478846
4.84454
-0.0469913
4.84811
-0.0461622
4.85177
-0.0453663
4.85551
-0.0446514
4.85933
-0.0439063
4.86321
-0.0432804
4.86718
-0.0425471
4.87117
-0.0420015
4.8753
-0.0412548
4.8794
-0.0408056
4.88372
-0.0400437
4.888
-0.0397445
-0.0389627
5.00139
0.156375
4.94738
0.101761
4.89589
0.0297679
4.84392
-0.0494273
4.79156
-0.12637
4.73996
-0.202824
4.68673
-0.280741
4.63654
-0.355645
4.5885
-0.425843
4.54286
-0.490848
4.50016
-0.550216
4.46075
-0.602608
4.42503
-0.648154
4.39305
-0.685798
4.36498
-0.716589
4.34058
-0.739564
4.32054
-0.757038
4.30439
-0.767252
4.2928
-0.773228
4.28479
-0.772379
4.28052
-0.768353
4.27924
-0.759128
4.28124
-0.747747
4.28605
-0.732443
4.29353
-0.715265
4.30344
-0.696138
4.31546
-0.67528
4.32898
-0.652966
4.34426
-0.630722
4.36065
-0.606614
4.37806
-0.584251
4.39648
-0.558267
4.4159
-0.539032
4.4355
-0.508537
4.45758
-0.493014
4.47935
-0.46425
4.50082
-0.442136
4.52016
-0.416883
4.54269
-0.394198
4.56232
-0.377725
4.58316
-0.358466
4.60405
-0.339918
4.6247
-0.322882
4.64469
-0.305301
4.66403
-0.289804
4.68288
-0.275186
4.70102
-0.261704
4.71869
-0.249405
4.73591
-0.236871
4.75233
-0.226018
4.76849
-0.215081
4.78336
-0.20432
4.79761
-0.196846
4.81098
-0.18581
4.82366
-0.177615
4.83514
-0.168661
4.84598
-0.161465
4.85571
-0.155098
4.86479
-0.148238
4.87317
-0.141073
4.88111
-0.134558
4.88839
-0.127794
4.89531
-0.121787
4.90157
-0.1155
4.90761
-0.110183
4.91295
-0.104374
4.91835
-0.0999798
4.92279
-0.0944106
4.9272
-0.0903952
4.93111
-0.086096
4.93499
-0.0826071
4.93868
-0.0791322
4.94229
-0.0760102
4.94585
-0.0731214
4.94942
-0.0705645
4.95302
-0.0681439
4.95672
-0.0660952
4.96047
-0.0640443
4.96438
-0.0624112
4.96835
-0.0606537
4.97251
-0.0593231
4.97667
-0.0578069
4.98098
-0.0565592
4.98548
-0.0555606
4.99007
-0.0544866
4.99483
-0.0536113
4.99967
-0.052726
5.00465
-0.0519761
5.00971
-0.0512161
5.01489
-0.0505488
5.02011
-0.0498721
5.02545
-0.0492518
5.0308
-0.0486283
5.03629
-0.0480366
5.04174
-0.0474541
5.04738
-0.0468911
5.05295
-0.0463705
5.05877
-0.0458675
5.06448
-0.0454552
-0.0450534
5.56775
0.167689
-5.57907
5.55534
0.114171
5.54006
0.0450517
5.52324
-0.0326064
5.5051
-0.108228
5.48522
-0.182953
5.46161
-0.257132
5.43468
-0.328712
5.4049
-0.396063
5.37269
-0.458638
5.33829
-0.515815
5.30242
-0.566735
5.26542
-0.611157
5.22827
-0.64865
5.19148
-0.679801
5.15579
-0.703867
5.1213
-0.72255
5.08862
-0.734576
5.05762
-0.742224
5.02839
-0.743146
5.00096
-0.740925
4.9757
-0.733873
4.95321
-0.725257
4.93263
-0.711864
4.91476
-0.69739
4.89845
-0.679825
4.88451
-0.661348
4.87251
-0.640962
4.8621
-0.620317
4.85362
-0.598131
4.84615
-0.576779
4.84093
-0.553047
4.83599
-0.534088
4.83296
-0.505513
4.83153
-0.49158
4.8326
-0.465317
4.82994
-0.439476
4.8288
-0.415746
4.83298
-0.398375
4.83579
-0.380537
4.83824
-0.360921
4.84137
-0.34305
4.84567
-0.327173
4.85003
-0.309661
4.85465
-0.294428
4.85934
-0.279877
4.86418
-0.266547
4.86888
-0.254099
4.87385
-0.241846
4.87841
-0.230579
4.88291
-0.219578
4.88748
-0.208887
4.89037
-0.199737
4.89416
-0.189603
4.89733
-0.180785
4.90062
-0.171947
4.90347
-0.16432
4.90529
-0.156913
4.9069
-0.149854
4.90832
-0.142485
4.90955
-0.135791
4.91063
-0.128871
4.91154
-0.122699
4.9123
-0.116262
4.91286
-0.110742
4.91323
-0.104742
4.91337
-0.100119
4.91316
-0.0942061
4.91268
-0.0899118
4.91179
-0.0852032
4.91061
-0.0814294
4.90901
-0.0775296
4.90704
-0.0740469
4.90468
-0.0707603
4.902
-0.0678836
4.89891
-0.0650574
4.8956
-0.062783
4.89187
-0.0603068
4.88805
-0.0585928
4.88376
-0.0563621
4.87962
-0.0551891
4.87497
-0.0531589
4.87019
-0.0517745
4.86542
-0.0507959
4.86041
-0.0494769
4.85542
-0.0486208
4.85028
-0.0475793
4.84517
-0.0468668
4.83995
-0.0460019
4.83481
-0.0454081
4.82959
-0.0446514
4.82448
-0.0441443
4.8193
-0.0434474
4.81428
-0.043018
4.80918
-0.0423541
4.80431
-0.0420187
4.79934
-0.0413952
4.79468
-0.0412094
4.78983
-0.0406048
-0.0406168
5.52539
0.178719
-5.53642
5.51367
0.125893
5.50066
0.0580587
5.48556
-0.0175047
5.4685
-0.0911705
5.44922
-0.163667
5.42686
-0.23478
5.40156
-0.30341
5.37377
-0.368273
5.34364
-0.428503
5.31167
-0.483848
5.2781
-0.533162
5.24385
-0.576913
5.20907
-0.613866
5.17466
-0.64539
5.14072
-0.669932
5.10798
-0.689809
5.07615
-0.702744
5.0462
-0.71227
5.01806
-0.715011
4.9933
-0.716163
4.96997
-0.710545
4.94899
-0.704277
4.92953
-0.692402
4.91273
-0.680593
4.89705
-0.664138
4.884
-0.648305
4.87236
-0.629316
4.86284
-0.610798
4.85451
-0.589805
4.84808
-0.570352
4.8429
-0.547865
4.83851
-0.529696
4.83637
-0.503371
4.83528
-0.490489
4.83535
-0.465385
4.83266
-0.436793
4.83578
-0.418863
4.83895
-0.401544
4.84193
-0.383515
4.84398
-0.36297
4.84763
-0.346706
4.85127
-0.330813
4.85578
-0.314172
4.86052
-0.299161
4.86527
-0.284631
4.87008
-0.271355
4.87487
-0.258887
4.87971
-0.246685
4.88441
-0.235278
4.88887
-0.224043
4.8931
-0.213121
4.89675
-0.20338
4.90049
-0.193344
4.90384
-0.184135
4.90703
-0.175143
4.90993
-0.167215
4.91241
-0.159395
4.91471
-0.152157
4.91696
-0.144728
4.9191
-0.137931
4.9213
-0.13107
4.92341
-0.124815
4.9257
-0.118546
4.9278
-0.112846
4.93021
-0.107156
4.93211
-0.10201
4.93462
-0.0967253
4.93675
-0.0920338
4.93909
-0.0875479
4.94112
-0.0834592
4.94312
-0.0795269
4.94496
-0.0758887
4.94667
-0.0724693
4.9482
-0.0694138
4.94956
-0.0664169
4.95068
-0.0639081
4.95161
-0.06123
4.95227
-0.0592583
4.95272
-0.0568102
4.95286
-0.0553305
4.95282
-0.0531198
4.95247
-0.0514226
4.95197
-0.0502965
4.95114
-0.0486453
4.95011
-0.0475907
4.94875
-0.0462186
4.9472
-0.045322
4.94533
-0.0441266
4.94328
-0.0433562
4.94091
-0.0422871
4.93838
-0.0416113
4.93556
-0.0406298
4.93258
-0.0400394
4.92937
-0.0391388
4.92599
-0.038641
4.92244
-0.0378396
4.91866
-0.0374335
4.9149
-0.0368454
-0.0372602
5.48332
0.188439
-5.49304
5.4723
0.136919
5.46148
0.0688758
5.44767
-0.00369463
5.43161
-0.0751078
5.41347
-0.14553
5.39284
-0.214155
5.36963
-0.280193
5.34402
-0.342669
5.31633
-0.400806
5.28692
-0.454443
5.25626
-0.502498
5.22487
-0.545528
5.19322
-0.582212
5.16175
-0.613924
5.13098
-0.639157
5.10086
-0.659697
5.07219
-0.674069
5.04496
-0.685042
5.01934
-0.689391
4.99629
-0.693115
4.97492
-0.689168
4.95564
-0.685004
4.9382
-0.674957
4.92283
-0.665224
4.90906
-0.650371
4.89744
-0.636685
4.88718
-0.619049
4.87838
-0.602004
4.87149
-0.582917
4.8651
-0.563959
4.86104
-0.543806
4.85669
-0.525348
4.85522
-0.501902
4.85394
-0.489206
4.85143
-0.462877
4.85367
-0.439028
4.85562
-0.420814
4.85707
-0.402998
4.85963
-0.386069
4.86159
-0.364934
4.8659
-0.351012
4.86909
-0.334005
4.87288
-0.317968
4.87714
-0.303417
4.88155
-0.289044
4.88603
-0.275828
4.89028
-0.263137
4.89459
-0.251
4.89859
-0.239271
4.90249
-0.227948
4.90621
-0.216844
4.90951
-0.206672
4.91264
-0.19648
4.91559
-0.187087
4.91837
-0.177924
4.92089
-0.169729
4.92309
-0.161595
4.92508
-0.154143
4.92696
-0.146616
4.92876
-0.13973
4.93056
-0.132867
4.93232
-0.126575
4.93414
-0.120367
4.93593
-0.114639
4.93783
-0.109052
4.93965
-0.103834
4.94176
-0.0988365
4.94372
-0.0939898
4.94575
-0.0895738
4.94769
-0.0854008
4.94966
-0.0814953
4.95158
-0.0778101
4.95349
-0.0743865
4.95528
-0.0711997
4.95705
-0.0681846
4.95862
-0.0654831
4.96024
-0.062844
4.9615
-0.0605244
4.96293
-0.058238
4.96387
-0.0562678
4.96506
-0.0543082
4.96605
-0.0524178
4.96683
-0.0510723
4.96759
-0.0494064
4.96821
-0.0482088
4.96878
-0.0467871
4.96925
-0.0457938
4.96968
-0.0445542
4.97003
-0.0437109
4.97035
-0.0426061
4.97061
-0.0418726
4.97084
-0.0408574
4.97101
-0.0402127
4.97116
-0.039291
4.97125
-0.0387287
4.97133
-0.0379175
4.97135
-0.0374546
4.97134
-0.0368371
-0.0369419
5.45208
0.199277
-5.46292
5.43879
0.150206
5.42791
0.0797622
5.41451
0.00970137
5.39897
-0.0595667
5.38168
-0.128238
5.3621
-0.194575
5.34051
-0.258609
5.31657
-0.31872
5.29102
-0.375262
5.26382
-0.427239
5.2358
-0.474482
5.2072
-0.516929
5.17847
-0.553484
5.15019
-0.585639
5.12221
-0.611178
5.0956
-0.633088
5.06988
-0.648346
5.04592
-0.661085
5.0238
-0.667269
5.0025
-0.67182
4.98315
-0.669812
4.96551
-0.667362
4.94944
-0.658887
4.93526
-0.65105
4.92219
-0.637295
4.91136
-0.625859
4.9008
-0.608485
4.89285
-0.594056
4.88524
-0.575306
4.87899
-0.557711
4.87504
-0.539852
4.86926
-0.519572
4.86944
-0.502079
4.86359
-0.483362
4.86538
-0.464668
4.86503
-0.43867
4.86798
-0.423768
4.86794
-0.40296
4.86954
-0.387666
4.87028
-0.36567
4.87371
-0.354449
4.87625
-0.336543
4.87904
-0.320758
4.88281
-0.307184
4.88688
-0.293113
4.89111
-0.280063
4.8952
-0.267226
4.8992
-0.254996
4.90298
-0.243056
4.90659
-0.231553
4.91003
-0.220282
4.91311
-0.209761
4.91605
-0.199412
4.91873
-0.18977
4.92124
-0.180439
4.92344
-0.171928
4.92547
-0.163624
4.92726
-0.155934
4.92903
-0.148384
4.93066
-0.141362
4.93235
-0.134561
4.93397
-0.128188
4.93569
-0.122089
4.93737
-0.116322
4.93917
-0.11085
4.94092
-0.105583
4.94276
-0.100676
4.94464
-0.0958656
4.94657
-0.0915056
4.94847
-0.087308
4.9504
-0.0834193
4.95228
-0.0796891
4.95411
-0.076222
4.95587
-0.0729598
4.95756
-0.0698743
4.95911
-0.0670314
4.96058
-0.0643084
4.96191
-0.0618602
4.96319
-0.059514
4.96425
-0.0573353
4.96533
-0.055387
4.96627
-0.0533556
4.96704
-0.0518446
4.96777
-0.0501334
4.9684
-0.0488402
4.969
-0.0473829
4.96954
-0.0463367
4.97007
-0.0450811
4.97057
-0.0442152
4.97108
-0.043113
4.9716
-0.0423894
4.97213
-0.0413936
4.9727
-0.0407854
4.9733
-0.0398888
4.97396
-0.0393862
4.97466
-0.0386158
4.97544
-0.0382368
4.97624
-0.0376329
-0.0375439
5.42515
0.212603
-5.43847
5.41088
0.16448
5.39787
0.0927694
5.38537
0.0222049
5.37147
-0.0456708
5.35552
-0.112287
5.33774
-0.176797
5.31801
-0.23888
5.2966
-0.297313
5.27346