/*--------------------------------*- C++ -*----------------------------------*\
  =========                 |
  \\      /  F ield         | OpenFOAM: The Open Source CFD Toolbox
   \\    /   O peration     | Website:  https://openfoam.org
    \\  /    A nd           | Version:  8
     \\/     M anipulation  |
\*---------------------------------------------------------------------------*/
FoamFile
{
    version     2.0;
    format      ascii;
    class       volScalarField;
    location    "19.5000376192658642";
    object      rho;
}
// * * * * * * * * * * * * * * * * * * * * * * * * * * * * * * * * * * * * * //

dimensions      [1 -3 0 0 0 0 0];

internalField   nonuniform List<scalar> 
6800
(
0.576157
0.57754
0.578276
0.578883
0.579893
0.582437
0.584042
0.584848
0.585343
0.585698
0.574705
0.576482
0.578611
0.580082
0.582552
0.584193
0.584899
0.585352
0.585666
0.585863
0.575501
0.575435
0.578719
0.58243
0.583761
0.584481
0.585024
0.585337
0.585578
0.585773
0.576979
0.577894
0.579252
0.583344
0.584176
0.584624
0.584916
0.585299
0.585608
0.585858
0.579549
0.584492
0.58174
0.584164
0.584435
0.584566
0.584896
0.585255
0.585527
0.585844
0.579205
0.585886
0.581582
0.58389
0.584035
0.584222
0.58449
0.584885
0.58527
0.585723
0.574759
0.584905
0.581379
0.583467
0.583451
0.583794
0.584183
0.584864
0.585351
0.585878
0.570674
0.58268
0.579769
0.582128
0.582314
0.5831
0.583568
0.584407
0.585153
0.585956
0.564982
0.579227
0.577729
0.580771
0.581556
0.582723
0.583343
0.584337
0.584968
0.585824
0.561098
0.576513
0.575774
0.579031
0.580448
0.582367
0.583386
0.584562
0.585253
0.585974
0.57943
0.579085
0.578763
0.578655
0.578616
0.57861
0.578628
0.578667
0.578726
0.578805
0.579345
0.579002
0.578718
0.578611
0.578573
0.578565
0.578578
0.578615
0.578675
0.578759
0.579155
0.578845
0.578622
0.578532
0.578496
0.578481
0.57849
0.578523
0.578589
0.578701
0.578905
0.578677
0.578513
0.578447
0.578412
0.578395
0.578397
0.578418
0.578497
0.578672
0.578654
0.57852
0.57842
0.578378
0.57835
0.57833
0.578321
0.578335
0.578441
0.578755
0.578426
0.578393
0.578346
0.578346
0.578352
0.57835
0.57835
0.578333
0.57841
0.578967
0.578209
0.578292
0.578313
0.578398
0.57845
0.578473
0.578497
0.578558
0.57862
0.57964
0.577976
0.578185
0.578347
0.578502
0.578599
0.578665
0.578778
0.579184
0.579406
0.581032
0.577708
0.57808
0.578368
0.578572
0.578755
0.579042
0.579533
0.580305
0.58137
0.583702
0.577159
0.577937
0.57824
0.578613
0.579089
0.579849
0.58138
0.583521
0.584382
0.585071
0.578923
0.579149
0.579424
0.579757
0.58013
0.580549
0.581007
0.581498
0.582015
0.582555
0.583108
0.583668
0.584224
0.584774
0.585319
0.585839
0.586333
0.586804
0.58724
0.58765
0.588028
0.588372
0.588683
0.588961
0.589208
0.589427
0.589617
0.589782
0.589924
0.590045
0.590146
0.59023
0.590299
0.590355
0.590397
0.590427
0.590449
0.590462
0.590468
0.590467
0.590461
0.59045
0.590436
0.590419
0.590399
0.590378
0.590355
0.590332
0.590309
0.590286
0.590264
0.590243
0.590223
0.590204
0.590188
0.590174
0.590163
0.590154
0.590146
0.59014
0.590135
0.590131
0.590128
0.590125
0.590121
0.590118
0.590115
0.590111
0.590107
0.590103
0.590098
0.590094
0.590089
0.590083
0.590078
0.590073
0.590067
0.590062
0.590057
0.590052
0.590047
0.590042
0.590038
0.590034
0.590031
0.590028
0.590025
0.590023
0.590021
0.59002
0.590019
0.590018
0.590018
0.590018
0.590019
0.590018
0.590019
0.59002
0.590018
0.59003
0.578865
0.579112
0.579395
0.579726
0.580102
0.580523
0.580982
0.581471
0.581986
0.582525
0.583078
0.583643
0.584204
0.584748
0.585283
0.585803
0.5863
0.586769
0.587208
0.587616
0.587992
0.588334
0.588645
0.588921
0.589168
0.589385
0.589575
0.58974
0.589882
0.590002
0.590103
0.590187
0.590255
0.590311
0.590353
0.590383
0.590404
0.590417
0.590422
0.590421
0.590415
0.590405
0.590391
0.590374
0.590354
0.590334
0.590312
0.59029
0.590268
0.590246
0.590226
0.590206
0.590187
0.59017
0.590156
0.590144
0.590134
0.590126
0.590119
0.590114
0.59011
0.590106
0.590102
0.590099
0.590096
0.590092
0.590089
0.590085
0.590081
0.590076
0.590072
0.590067
0.590062
0.590057
0.590052
0.590046
0.590041
0.590036
0.590031
0.590027
0.590022
0.590018
0.590015
0.590011
0.590008
0.590006
0.590004
0.590002
0.590001
0.59
0.59
0.59
0.59
0.59
0.590001
0.590001
0.590003
0.590004
0.590002
0.590013
0.578788
0.579062
0.579348
0.57968
0.58006
0.580484
0.580947
0.581434
0.581941
0.582477
0.583023
0.583573
0.584134
0.584688
0.585225
0.58574
0.586235
0.586701
0.587138
0.587544
0.587918
0.588259
0.588568
0.588844
0.589089
0.589306
0.589496
0.589661
0.589803
0.589924
0.590025
0.590109
0.590178
0.590233
0.590275
0.590305
0.590326
0.590339
0.590344
0.590343
0.590337
0.590327
0.590313
0.590297
0.590279
0.590259
0.590239
0.590218
0.590199
0.590179
0.590161
0.590143
0.590127
0.590113
0.5901
0.590091
0.590083
0.590077
0.590072
0.590068
0.590064
0.590061
0.590058
0.590054
0.59005
0.590047
0.590043
0.590038
0.590034
0.590029
0.590024
0.59002
0.590015
0.59001
0.590005
0.59
0.589995
0.589991
0.589987
0.589983
0.589979
0.589976
0.589973
0.589971
0.589969
0.589968
0.589967
0.589966
0.589966
0.589966
0.589967
0.589967
0.589968
0.589969
0.589971
0.589972
0.589973
0.589975
0.589973
0.589984
0.578729
0.579023
0.579316
0.579648
0.580026
0.580442
0.580885
0.581366
0.581882
0.582417
0.582961
0.583508
0.584058
0.584605
0.585137
0.58565
0.586141
0.586606
0.587042
0.587447
0.587821
0.588162
0.588471
0.58875
0.588996
0.589214
0.589406
0.589573
0.589716
0.589839
0.589942
0.590028
0.590097
0.590154
0.590196
0.590226
0.590247
0.590259
0.590264
0.590263
0.590257
0.590247
0.590234
0.590218
0.5902
0.590182
0.590163
0.590145
0.590128
0.590111
0.590095
0.590081
0.590067
0.590055
0.590046
0.590039
0.590034
0.59003
0.590026
0.590023
0.590019
0.590015
0.590011
0.590006
0.590001
0.589996
0.589991
0.589986
0.589981
0.589976
0.589971
0.589966
0.589961
0.589956
0.589951
0.589947
0.589943
0.589939
0.589936
0.589932
0.58993
0.589928
0.589926
0.589925
0.589924
0.589924
0.589924
0.589924
0.589925
0.589926
0.589928
0.589929
0.589931
0.589933
0.589935
0.589937
0.589938
0.589941
0.589939
0.589949
0.578766
0.579036
0.579334
0.57966
0.580028
0.580434
0.580869
0.581337
0.581841
0.582367
0.582905
0.583447
0.58399
0.584529
0.585057
0.585567
0.586054
0.586517
0.586952
0.587358
0.587733
0.588076
0.588389
0.588673
0.588924
0.589147
0.589344
0.589516
0.589665
0.589793
0.589899
0.589988
0.590059
0.590116
0.590161
0.59019
0.590212
0.590223
0.590228
0.590227
0.59022
0.59021
0.590197
0.590181
0.590164
0.590146
0.590129
0.590112
0.590096
0.590081
0.590067
0.590055
0.590043
0.590033
0.590025
0.59002
0.590017
0.590014
0.590011
0.590006
0.590001
0.589995
0.589989
0.589982
0.589975
0.589968
0.589961
0.589954
0.589947
0.589941
0.589934
0.589928
0.589923
0.589917
0.589912
0.589908
0.589904
0.5899
0.589897
0.589894
0.589892
0.589891
0.58989
0.589889
0.589889
0.58989
0.589891
0.589892
0.589894
0.589896
0.589898
0.5899
0.589902
0.589904
0.589907
0.589908
0.58991
0.589913
0.58991
0.58992
0.579006
0.579206
0.579482
0.579789
0.580133
0.580522
0.580937
0.581384
0.581868
0.582378
0.582906
0.583442
0.583979
0.584514
0.585038
0.585546
0.586035
0.5865
0.58694
0.58735
0.587732
0.588084
0.588407
0.588699
0.588961
0.589196
0.589404
0.589585
0.589742
0.589876
0.589988
0.59008
0.590154
0.59021
0.590256
0.590284
0.590306
0.590314
0.590316
0.590312
0.590303
0.59029
0.590274
0.590256
0.590236
0.590216
0.590198
0.59018
0.590163
0.590149
0.590135
0.590122
0.59011
0.590098
0.590089
0.590085
0.590082
0.590077
0.59007
0.590061
0.590051
0.59004
0.590029
0.590017
0.590006
0.589994
0.589983
0.589973
0.589963
0.589954
0.589945
0.589937
0.589929
0.589922
0.589915
0.58991
0.589904
0.5899
0.589896
0.589892
0.58989
0.589888
0.589887
0.589886
0.589886
0.589887
0.589888
0.589889
0.589891
0.589892
0.589894
0.589896
0.589898
0.5899
0.589902
0.589903
0.589904
0.589906
0.589902
0.589911
0.579715
0.579748
0.579928
0.580169
0.580452
0.580804
0.581191
0.581605
0.58207
0.58256
0.583075
0.583604
0.58414
0.584673
0.585199
0.585712
0.58621
0.586687
0.58714
0.587566
0.587965
0.588337
0.588678
0.58899
0.589271
0.589522
0.589744
0.589938
0.590104
0.590245
0.59036
0.590452
0.590524
0.590574
0.590619
0.590635
0.590658
0.590657
0.590649
0.590637
0.590619
0.590596
0.590573
0.590546
0.590518
0.59049
0.590464
0.59044
0.590417
0.590396
0.590376
0.590358
0.590341
0.590321
0.590304
0.590296
0.590289
0.590276
0.59026
0.590242
0.590222
0.590202
0.590181
0.590161
0.590141
0.590122
0.590105
0.590088
0.590073
0.590058
0.590045
0.590031
0.590019
0.590008
0.589998
0.589988
0.589979
0.589972
0.589965
0.589959
0.589954
0.58995
0.589947
0.589945
0.589943
0.589942
0.589941
0.589941
0.589941
0.589941
0.589942
0.589942
0.589942
0.589943
0.589942
0.589943
0.589941
0.589942
0.589936
0.589942
0.581092
0.581043
0.581059
0.581149
0.581333
0.581598
0.581909
0.582289
0.582755
0.583227
0.583727
0.584244
0.584774
0.585308
0.585842
0.586371
0.586889
0.587387
0.587867
0.58832
0.588754
0.589161
0.589535
0.589872
0.590174
0.590441
0.590675
0.590872
0.591041
0.591177
0.591286
0.591365
0.591426
0.591463
0.591495
0.591492
0.591488
0.59145
0.591418
0.591388
0.591348
0.591302
0.591262
0.591213
0.59116
0.59111
0.591065
0.591022
0.590981
0.590943
0.590903
0.590869
0.590839
0.590806
0.590775
0.590747
0.590719
0.590688
0.590653
0.590616
0.59058
0.590544
0.590508
0.590474
0.590442
0.590411
0.590382
0.590356
0.590331
0.590307
0.590286
0.590264
0.590242
0.590223
0.590205
0.590189
0.590173
0.590159
0.590146
0.590135
0.590125
0.590116
0.590108
0.590101
0.590095
0.590089
0.590084
0.59008
0.590076
0.590073
0.590069
0.590066
0.590062
0.590059
0.590055
0.590052
0.590046
0.590043
0.590036
0.590036
0.583504
0.583586
0.583609
0.583631
0.583714
0.583857
0.584086
0.58442
0.584793
0.585208
0.585667
0.586152
0.586673
0.587196
0.587735
0.58827
0.588801
0.589312
0.589804
0.590265
0.590687
0.591057
0.591389
0.591684
0.591951
0.592178
0.592372
0.592534
0.592669
0.592777
0.592857
0.592913
0.592962
0.59297
0.59298
0.592953
0.592929
0.592868
0.592827
0.592791
0.592727
0.59266
0.592584
0.592496
0.59241
0.592322
0.592236
0.592153
0.592068
0.591989
0.591903
0.591827
0.591761
0.591692
0.591624
0.591555
0.591486
0.591416
0.591348
0.591282
0.591217
0.591156
0.591097
0.591041
0.590989
0.590939
0.590892
0.590847
0.590805
0.590767
0.590729
0.590692
0.590657
0.590625
0.590595
0.590566
0.590539
0.590513
0.59049
0.590468
0.590449
0.59043
0.590413
0.590398
0.590383
0.59037
0.590357
0.590346
0.590335
0.590324
0.590314
0.590304
0.590293
0.590284
0.590273
0.590264
0.590253
0.590243
0.590232
0.590223
0.58509
0.585216
0.585411
0.58557
0.585722
0.585908
0.586129
0.586402
0.586706
0.587047
0.587412
0.587802
0.588209
0.588626
0.589048
0.589465
0.589875
0.590266
0.590642
0.590996
0.591331
0.591639
0.59192
0.592174
0.5924
0.592602
0.592777
0.592926
0.593053
0.59316
0.593235
0.59331
0.593355
0.593383
0.593411
0.593405
0.593405
0.593386
0.5934
0.593387
0.593357
0.593335
0.593303
0.593266
0.593228
0.593184
0.593139
0.593085
0.593035
0.59298
0.592928
0.592878
0.5928
0.592739
0.592693
0.592641
0.592574
0.592498
0.59242
0.592341
0.592263
0.592182
0.592103
0.592022
0.591943
0.591864
0.591787
0.59171
0.591634
0.591565
0.591496
0.59143
0.591367
0.591308
0.591252
0.591199
0.59115
0.591105
0.591063
0.591023
0.590987
0.590953
0.590922
0.590893
0.590864
0.590838
0.590812
0.590788
0.590765
0.590743
0.59072
0.5907
0.590678
0.590659
0.590638
0.590619
0.590599
0.590579
0.59056
0.590538
0.585672
0.585716
0.586007
0.58622
0.586405
0.586605
0.586825
0.587075
0.587347
0.587643
0.587958
0.588296
0.588647
0.589012
0.58938
0.589746
0.590105
0.590454
0.590787
0.591102
0.5914
0.591674
0.591935
0.592166
0.59238
0.59257
0.592735
0.592884
0.593006
0.593109
0.593188
0.593264
0.593303
0.593344
0.593368
0.59337
0.593363
0.593391
0.59341
0.593382
0.593362
0.593354
0.593334
0.593316
0.593297
0.593275
0.593253
0.593223
0.593201
0.593175
0.593153
0.59313
0.593098
0.593069
0.593039
0.592996
0.592948
0.592906
0.592866
0.592825
0.592785
0.592745
0.592705
0.592668
0.592629
0.592591
0.592551
0.592508
0.592463
0.592415
0.592366
0.592314
0.59226
0.592204
0.592148
0.59209
0.592033
0.591974
0.591918
0.59186
0.591805
0.591749
0.591697
0.591647
0.591596
0.591548
0.5915
0.591455
0.591411
0.591369
0.591328
0.591288
0.59125
0.591213
0.591178
0.591141
0.591111
0.591074
0.591049
0.591004
0.586055
0.586166
0.586466
0.586669
0.586834
0.587014
0.587224
0.587457
0.587716
0.587994
0.588291
0.5886
0.588921
0.589249
0.589578
0.589908
0.590235
0.590554
0.590864
0.591155
0.591433
0.59168
0.59192
0.592131
0.592331
0.592507
0.592661
0.592802
0.59292
0.59301
0.593101
0.593162
0.593205
0.593251
0.593273
0.593275
0.593293
0.593319
0.593323
0.593306
0.593291
0.593288
0.593267
0.593256
0.593245
0.593228
0.593208
0.593182
0.593162
0.593138
0.593116
0.59309
0.59306
0.59303
0.592998
0.592963
0.592924
0.59289
0.592857
0.592826
0.592796
0.59277
0.592746
0.592723
0.5927
0.592677
0.592654
0.592634
0.592615
0.592591
0.592574
0.592556
0.592538
0.592521
0.592502
0.59248
0.592458
0.592432
0.592407
0.592379
0.592355
0.592326
0.592301
0.59227
0.592245
0.592211
0.592184
0.592146
0.592117
0.592076
0.592044
0.592001
0.591968
0.591921
0.591888
0.591838
0.591804
0.591752
0.591715
0.591661
0.586469
0.586576
0.586831
0.586987
0.587126
0.587303
0.58751
0.587739
0.587983
0.588242
0.588516
0.588802
0.5891
0.589405
0.589715
0.590026
0.590328
0.590628
0.590911
0.591187
0.591442
0.591682
0.591907
0.592112
0.59231
0.592474
0.592632
0.592765
0.592879
0.59298
0.593062
0.593131
0.593174
0.593227
0.593237
0.593255
0.593276
0.593279
0.593285
0.593277
0.593272
0.593272
0.593245
0.593229
0.593219
0.593209
0.593196
0.593175
0.593154
0.593127
0.593101
0.593074
0.593045
0.593015
0.592985
0.592952
0.592916
0.592884
0.592851
0.592821
0.592793
0.592766
0.592743
0.592718
0.592696
0.592676
0.592653
0.592639
0.592619
0.592593
0.592571
0.592553
0.592534
0.592525
0.59251
0.592496
0.592476
0.592467
0.592447
0.592428
0.592412
0.5924
0.592386
0.592373
0.592361
0.592349
0.592337
0.592325
0.592312
0.592299
0.592286
0.592273
0.59226
0.592244
0.59223
0.592212
0.592197
0.592178
0.592162
0.592139
0.58684
0.586955
0.587217
0.587372
0.587507
0.587682
0.587882
0.588103
0.588332
0.588576
0.588829
0.589091
0.589367
0.589644
0.589933
0.590214
0.590498
0.590771
0.591035
0.591288
0.591519
0.591752
0.59196
0.592155
0.592335
0.592485
0.592639
0.592747
0.592868
0.592949
0.593024
0.593087
0.59312
0.593174
0.59316
0.593209
0.593192
0.593204
0.593186
0.593188
0.593206
0.593188
0.593162
0.593149
0.59314
0.593135
0.593128
0.593113
0.593094
0.593071
0.593046
0.593021
0.592993
0.592965
0.592936
0.592904
0.592871
0.59284
0.592808
0.59278
0.592751
0.592726
0.592704
0.59268
0.592659
0.592644
0.592623
0.592598
0.592576
0.592556
0.592539
0.592521
0.592512
0.592497
0.592484
0.59247
0.592454
0.592434
0.592419
0.592406
0.592395
0.592383
0.592371
0.592359
0.592349
0.592337
0.592327
0.592316
0.592306
0.592296
0.592286
0.592278
0.592269
0.592261
0.592253
0.592244
0.592236
0.59223
0.592222
0.592214
0.587208
0.587337
0.587586
0.587769
0.587908
0.588061
0.588243
0.588445
0.588662
0.588885
0.589115
0.589351
0.589595
0.589846
0.590104
0.590358
0.590617
0.590862
0.591111
0.591343
0.591566
0.591775
0.591966
0.592143
0.592301
0.592446
0.592581
0.592688
0.592802
0.592873
0.592957
0.593003
0.593053
0.593085
0.593097
0.593133
0.59312
0.593129
0.593108
0.593109
0.593135
0.593103
0.593079
0.593071
0.593056
0.593047
0.593038
0.593028
0.593015
0.592998
0.592979
0.592957
0.592933
0.592907
0.592881
0.592853
0.592824
0.592795
0.592766
0.592739
0.592711
0.592685
0.59266
0.592637
0.592614
0.592595
0.592575
0.592559
0.592541
0.592526
0.59251
0.592493
0.592483
0.592468
0.592452
0.592432
0.592418
0.592406
0.592396
0.592385
0.592375
0.592364
0.592353
0.592342
0.592331
0.59232
0.592309
0.592299
0.592289
0.592279
0.59227
0.592262
0.592254
0.592246
0.592238
0.592232
0.592224
0.592218
0.59221
0.592203
0.587623
0.587741
0.58795
0.588123
0.588287
0.588443
0.588608
0.588785
0.588973
0.589177
0.589386
0.589608
0.589828
0.590061
0.590288
0.590523
0.590753
0.590981
0.591202
0.591411
0.591617
0.591803
0.591979
0.59214
0.592285
0.592419
0.592535
0.592644
0.592738
0.592817
0.59289
0.592941
0.592985
0.59302
0.593036
0.593048
0.593059
0.593056
0.593047
0.593027
0.59303
0.593004
0.592987
0.592976
0.592962
0.59295
0.592935
0.592925
0.592916
0.592904
0.592891
0.592875
0.592853
0.592831
0.592807
0.592782
0.592755
0.592728
0.592702
0.592682
0.592657
0.592628
0.592606
0.592581
0.592559
0.59254
0.592521
0.592504
0.592494
0.592477
0.59246
0.592438
0.592423
0.592411
0.592402
0.592394
0.592387
0.592379
0.592371
0.592363
0.592355
0.592346
0.592337
0.592327
0.592318
0.592308
0.592298
0.592289
0.592281
0.592272
0.592264
0.592256
0.592248
0.59224
0.592232
0.592226
0.592217
0.592208
0.592199
0.592197
0.588063
0.588163
0.58832
0.588479
0.588609
0.58878
0.588939
0.58909
0.589256
0.58944
0.589629
0.589822
0.590013
0.590215
0.590421
0.590637
0.590853
0.591062
0.591267
0.591456
0.591639
0.591806
0.591961
0.592108
0.592236
0.59236
0.592464
0.592568
0.592655
0.59273
0.592801
0.592849
0.592892
0.592926
0.59294
0.592947
0.592966
0.592958
0.592919
0.592899
0.592897
0.592869
0.592844
0.592829
0.592831
0.592821
0.592801
0.592787
0.592778
0.592768
0.592756
0.592742
0.592724
0.592705
0.592683
0.59266
0.592636
0.592614
0.592591
0.59257
0.592549
0.592531
0.592513
0.592498
0.592483
0.592469
0.592456
0.592445
0.592434
0.592423
0.592414
0.592404
0.592396
0.592388
0.592381
0.592373
0.592367
0.59236
0.592354
0.592348
0.592341
0.592334
0.592327
0.59232
0.592312
0.592303
0.592295
0.592286
0.592276
0.592267
0.592258
0.59225
0.592241
0.592233
0.592225
0.592218
0.59221
0.592204
0.592197
0.592197
0.588431
0.588539
0.588669
0.588791
0.588911
0.589027
0.589199
0.589348
0.589503
0.589655
0.589819
0.589994
0.590182
0.590379
0.590576
0.590772
0.590964
0.591143
0.591324
0.591485
0.59165
0.591797
0.591939
0.59207
0.592186
0.592305
0.592393
0.592497
0.592566
0.592643
0.592702
0.592744
0.59279
0.592804
0.592827
0.592824
0.592834
0.59282
0.592762
0.592781
0.592767
0.59273
0.592713
0.592701
0.592704
0.592689
0.592667
0.592646
0.592632
0.592618
0.592606
0.592595
0.592581
0.59257
0.592558
0.592551
0.59254
0.592533
0.592522
0.592512
0.5925
0.592488
0.592477
0.592465
0.592455
0.592443
0.592433
0.592422
0.592412
0.592401
0.592392
0.592382
0.592374
0.592365
0.592358
0.592351
0.592344
0.592338
0.592332
0.592327
0.592322
0.592317
0.592313
0.592309
0.592305
0.592301
0.592297
0.592292
0.592288
0.592282
0.592277
0.592272
0.592265
0.59226
0.592253
0.592248
0.592241
0.592236
0.59223
0.592225
0.588776
0.588877
0.589039
0.5891
0.589161
0.589288
0.589399
0.589576
0.589728
0.589851
0.589989
0.59014
0.590313
0.590493
0.590676
0.590852
0.591023
0.591185
0.591344
0.591492
0.591641
0.591779
0.591911
0.592032
0.592144
0.592243
0.59233
0.592409
0.592472
0.592533
0.592576
0.592617
0.592647
0.592668
0.59268
0.592696
0.592693
0.59268
0.592683
0.592694
0.592647
0.592608
0.592623
0.592614
0.592601
0.592587
0.592571
0.59255
0.592528
0.592503
0.592487
0.592479
0.592468
0.592462
0.59246
0.592463
0.592466
0.592467
0.592468
0.592464
0.59246
0.592451
0.592443
0.592432
0.592423
0.59241
0.5924
0.592388
0.592378
0.592367
0.592359
0.59235
0.592343
0.592336
0.59233
0.592324
0.592319
0.592314
0.592309
0.592304
0.592299
0.592295
0.59229
0.592286
0.592281
0.592276
0.59227
0.592264
0.592257
0.59225
0.592243
0.592237
0.59223
0.592224
0.592217
0.592212
0.592206
0.592202
0.592196
0.592192
0.58911
0.589214
0.589365
0.589433
0.589494
0.589581
0.589698
0.589823
0.589954
0.590079
0.590214
0.590354
0.590505
0.59065
0.590796
0.590936
0.591088
0.591239
0.591386
0.591524
0.591662
0.591791
0.59191
0.592021
0.592113
0.5922
0.592269
0.592337
0.592393
0.592448
0.592491
0.59253
0.592561
0.592581
0.592597
0.59261
0.592603
0.592598
0.592614
0.592592
0.592565
0.592554
0.592565
0.592551
0.592537
0.592521
0.592505
0.592489
0.592471
0.592457
0.592443
0.592425
0.592407
0.592402
0.592403
0.592406
0.59241
0.59241
0.592409
0.592402
0.592396
0.592385
0.592377
0.592367
0.592358
0.592347
0.592338
0.592328
0.592321
0.592313
0.592308
0.592303
0.592301
0.592298
0.592296
0.592293
0.592291
0.592289
0.592286
0.592283
0.592279
0.592276
0.592273
0.592269
0.592266
0.592262
0.592258
0.592253
0.592248
0.592242
0.592237
0.59223
0.592224
0.592218
0.592212
0.592207
0.592201
0.592196
0.59219
0.592187
0.589422
0.589541
0.589673
0.589761
0.58979
0.589855
0.589922
0.589982
0.590098
0.590251
0.590378
0.59051
0.590632
0.590744
0.590837
0.590925
0.591064
0.591241
0.591404
0.591541
0.591672
0.591789
0.59189
0.591984
0.592059
0.592125
0.592187
0.592253
0.592309
0.592365
0.592406
0.592446
0.592472
0.592494
0.592512
0.592518
0.592528
0.592535
0.592538
0.592522
0.592531
0.592533
0.592529
0.592536
0.592524
0.592508
0.592492
0.592489
0.592487
0.592492
0.592479
0.592459
0.592434
0.592419
0.59241
0.592399
0.592389
0.592375
0.592361
0.592345
0.592332
0.59232
0.592313
0.592308
0.592304
0.592299
0.592294
0.592288
0.592283
0.592278
0.592274
0.592271
0.59227
0.592268
0.592268
0.592267
0.592267
0.592266
0.592264
0.592261
0.592258
0.592255
0.592252
0.592249
0.592245
0.592242
0.592239
0.592236
0.592232
0.592229
0.592224
0.59222
0.592215
0.592211
0.592206
0.592202
0.592197
0.592194
0.592189
0.592187
0.589733
0.589791
0.589923
0.590028
0.590094
0.590151
0.590221
0.590294
0.59038
0.590486
0.590581
0.590697
0.590786
0.590883
0.590978
0.59108
0.591209
0.591344
0.591473
0.591579
0.591674
0.591758
0.591835
0.591908
0.591981
0.592043
0.592108
0.592162
0.592214
0.592259
0.592301
0.592341
0.592368
0.5924
0.592419
0.592436
0.592446
0.592461
0.592458
0.592485
0.592493
0.5925
0.592512
0.59252
0.592514
0.592519
0.59252
0.592512
0.592511
0.592503
0.592497
0.592474
0.592445
0.592439
0.592419
0.592407
0.592393
0.592389
0.59238
0.592367
0.592352
0.592333
0.592322
0.592322
0.592323
0.592324
0.592322
0.592317
0.592317
0.592317
0.592309
0.592299
0.592287
0.592279
0.592275
0.592272
0.592269
0.592266
0.592262
0.592257
0.592252
0.592247
0.592242
0.592238
0.592234
0.592231
0.592227
0.592225
0.592221
0.592219
0.592216
0.592214
0.592211
0.592209
0.592206
0.592205
0.592203
0.592201
0.592199
0.592198
0.590041
0.590089
0.59017
0.590271
0.590357
0.590426
0.590476
0.590532
0.590587
0.590651
0.59073
0.59083
0.59091
0.591012
0.591103
0.591169
0.591277
0.591411
0.591521
0.591609
0.591678
0.591746
0.591807
0.59187
0.59194
0.59201
0.592076
0.592117
0.592153
0.592184
0.592205
0.592232
0.59225
0.592273
0.592294
0.592313
0.592318
0.592362
0.592398
0.592428
0.59245
0.592475
0.59249
0.592486
0.592481
0.592487
0.592486
0.592482
0.592477
0.592475
0.592456
0.592437
0.592415
0.592402
0.592392
0.59239
0.592384
0.592373
0.59237
0.592353
0.592337
0.592314
0.592305
0.592308
0.592314
0.59232
0.592325
0.592327
0.592326
0.592323
0.59232
0.592315
0.59231
0.592305
0.592299
0.592294
0.592292
0.592286
0.592281
0.592275
0.592269
0.59226
0.592257
0.592248
0.592241
0.592237
0.592232
0.592229
0.592226
0.592223
0.59222
0.592217
0.592215
0.592213
0.59221
0.592209
0.592207
0.592205
0.592203
0.592202
0.590365
0.590388
0.590435
0.590554
0.590629
0.590684
0.590725
0.590772
0.590817
0.590838
0.59089
0.590935
0.591049
0.591136
0.591203
0.591263
0.591323
0.591429
0.591559
0.591648
0.591712
0.591772
0.591823
0.591889
0.59194
0.592015
0.592084
0.592127
0.592163
0.592183
0.592199
0.592208
0.592228
0.592243
0.592274
0.592286
0.5923
0.592313
0.592363
0.592384
0.592394
0.592428
0.592432
0.592437
0.59243
0.592431
0.592435
0.592426
0.592427
0.592428
0.59242
0.592411
0.592405
0.592394
0.592378
0.592372
0.592353
0.592343
0.592342
0.592341
0.592337
0.592343
0.592328
0.592313
0.59231
0.592314
0.592324
0.59233
0.59233
0.592329
0.592326
0.592323
0.592319
0.592314
0.59231
0.592306
0.592302
0.592298
0.592293
0.592289
0.592284
0.59228
0.592277
0.592276
0.592274
0.592273
0.59227
0.592269
0.592266
0.592265
0.592262
0.592261
0.592258
0.592257
0.592253
0.59225
0.592242
0.59224
0.592234
0.592231
0.590685
0.590679
0.590777
0.59081
0.590883
0.590934
0.590992
0.591023
0.591036
0.59105
0.591089
0.591143
0.591206
0.591287
0.591331
0.591389
0.591461
0.591561
0.591665
0.591726
0.591769
0.591802
0.591848
0.591891
0.591932
0.591989
0.592044
0.592098
0.592149
0.592192
0.592243
0.592277
0.592307
0.592331
0.59235
0.592372
0.592387
0.592394
0.592421
0.592411
0.592417
0.592427
0.592417
0.592409
0.592394
0.592397
0.592388
0.592367
0.592363
0.592376
0.592371
0.592384
0.592389
0.592371
0.592365
0.592355
0.592349
0.592356
0.59236
0.592366
0.592384
0.592383
0.59238
0.592364
0.59235
0.59235
0.59233
0.592329
0.592317
0.59231
0.592308
0.592306
0.592303
0.592299
0.592295
0.592293
0.592288
0.592284
0.592283
0.592278
0.592272
0.592267
0.592265
0.592263
0.592263
0.592262
0.592262
0.59226
0.592259
0.592258
0.592256
0.592254
0.592252
0.59225
0.592248
0.592246
0.592243
0.592241
0.592239
0.592238
0.590982
0.591009
0.591062
0.591098
0.591127
0.591209
0.591235
0.591287
0.591287
0.591298
0.591312
0.59135
0.591407
0.591462
0.591486
0.591524
0.591544
0.591601
0.591653
0.591727
0.591791
0.591873
0.591927
0.591969
0.592011
0.592046
0.592091
0.592133
0.592172
0.592209
0.592248
0.592279
0.592307
0.592329
0.592344
0.592369
0.592381
0.592388
0.592401
0.592396
0.592412
0.592405
0.592428
0.592421
0.592435
0.592417
0.592426
0.592406
0.592406
0.592397
0.592391
0.592397
0.592403
0.592395
0.592394
0.592377
0.592375
0.592374
0.592365
0.592369
0.592384
0.592381
0.59238
0.592365
0.592358
0.59235
0.592341
0.592333
0.592323
0.592316
0.592312
0.59231
0.592307
0.592303
0.592299
0.592296
0.592293
0.59229
0.592288
0.592283
0.592277
0.59227
0.592267
0.592265
0.592266
0.592266
0.592267
0.592267
0.592267
0.592266
0.592266
0.592263
0.592262
0.59226
0.592257
0.592255
0.592252
0.592249
0.592245
0.592244
0.591234
0.591278
0.591384
0.591387
0.591371
0.591438
0.591443
0.591568
0.591563
0.591587
0.591535
0.591558
0.591595
0.59163
0.591657
0.591671
0.591681
0.591696
0.591758
0.591817
0.591891
0.591946
0.592009
0.592046
0.592077
0.592112
0.592147
0.592178
0.592213
0.592244
0.592271
0.592293
0.592307
0.59233
0.592341
0.592338
0.592376
0.592388
0.592394
0.592384
0.592378
0.592391
0.592418
0.592412
0.592425
0.592405
0.592414
0.592392
0.592394
0.59239
0.592395
0.592383
0.592385
0.592377
0.592363
0.592357
0.592354
0.592345
0.592342
0.59234
0.592336
0.59234
0.59234
0.592334
0.592333
0.59232
0.592315
0.592306
0.592299
0.592295
0.592297
0.592297
0.592297
0.592293
0.592289
0.592287
0.592284
0.592282
0.59228
0.592279
0.592274
0.592274
0.592271
0.592269
0.592266
0.592264
0.592262
0.592264
0.592263
0.592265
0.592266
0.592265
0.592265
0.592263
0.592261
0.592259
0.592255
0.592252
0.592249
0.592247
0.591473
0.591572
0.591662
0.591633
0.591618
0.591637
0.591669
0.591729
0.591758
0.591767
0.591736
0.591758
0.591765
0.591791
0.591831
0.591869
0.591891
0.591914
0.591924
0.591943
0.591972
0.592016
0.592053
0.592097
0.592131
0.59216
0.592192
0.592221
0.592249
0.592271
0.592287
0.592307
0.592317
0.592326
0.592331
0.592342
0.59236
0.59238
0.592375
0.59237
0.592355
0.592373
0.592378
0.592371
0.592364
0.592359
0.592365
0.59235
0.592347
0.592346
0.592347
0.592339
0.59234
0.592325
0.592319
0.592322
0.592311
0.592298
0.592299
0.592292
0.592282
0.592285
0.59229
0.592293
0.592286
0.592283
0.592278
0.592275
0.592261
0.592257
0.592257
0.592258
0.592261
0.592254
0.592254
0.592256
0.592252
0.592253
0.592248
0.592251
0.59225
0.592254
0.592251
0.592251
0.592246
0.592243
0.592244
0.59224
0.592239
0.592238
0.592238
0.59224
0.59224
0.592239
0.592238
0.592235
0.592232
0.592228
0.592226
0.592225
0.591786
0.591891
0.591847
0.59192
0.591888
0.591921
0.591956
0.591923
0.591931
0.591942
0.591943
0.592017
0.591987
0.592001
0.592024
0.592053
0.59204
0.592038
0.592059
0.592062
0.592082
0.592115
0.592137
0.592158
0.59218
0.592199
0.592219
0.592233
0.592245
0.592261
0.592266
0.592282
0.592293
0.592286
0.592304
0.592307
0.592317
0.592321
0.592313
0.592318
0.592312
0.59231
0.592309
0.592314
0.592304
0.592305
0.592298
0.592306
0.592291
0.592289
0.592282
0.592289
0.592272
0.592267
0.592272
0.592267
0.59226
0.59225
0.592246
0.592249
0.592231
0.592233
0.59224
0.592243
0.592231
0.592238
0.59224
0.592239
0.592229
0.592228
0.592224
0.592225
0.592225
0.592222
0.592225
0.592222
0.592219
0.592223
0.592216
0.592215
0.592216
0.592215
0.592216
0.592218
0.592216
0.592214
0.592217
0.592213
0.592214
0.592213
0.592211
0.592212
0.592212
0.592212
0.592213
0.592212
0.592211
0.59221
0.592209
0.592208
0.592072
0.592078
0.592044
0.592109
0.592096
0.592116
0.592138
0.592088
0.592073
0.592121
0.592117
0.592162
0.592155
0.592165
0.592186
0.592196
0.592174
0.59216
0.592172
0.592168
0.592178
0.592188
0.592192
0.592199
0.592206
0.592215
0.592223
0.592229
0.592232
0.592239
0.59224
0.592245
0.59225
0.592248
0.59226
0.592252
0.592255
0.592256
0.592254
0.592249
0.592254
0.592247
0.592245
0.59225
0.592245
0.592246
0.592235
0.592244
0.592227
0.592224
0.592216
0.592226
0.59221
0.592208
0.592209
0.592203
0.592207
0.592201
0.592196
0.592204
0.592192
0.592193
0.592199
0.592196
0.592195
0.592197
0.592202
0.592201
0.592198
0.592198
0.592195
0.592196
0.592197
0.592196
0.592199
0.592197
0.592198
0.5922
0.592197
0.592197
0.592198
0.592196
0.592197
0.592198
0.592197
0.592196
0.592199
0.592199
0.5922
0.5922
0.592199
0.5922
0.592201
0.592201
0.592201
0.592202
0.592201
0.5922
0.592201
0.5922
0.586429
0.586495
0.586579
0.586371
0.586349
0.586198
0.586196
0.586081
0.585997
0.585996
0.586844
0.587036
0.586965
0.586836
0.586897
0.58664
0.586593
0.586391
0.586284
0.586349
0.587301
0.587582
0.587363
0.587277
0.587371
0.587181
0.587086
0.586883
0.58663
0.586628
0.587802
0.587861
0.587722
0.587663
0.587663
0.587537
0.587465
0.587361
0.587068
0.586956
0.588322
0.588164
0.588107
0.588057
0.58802
0.587935
0.587784
0.587791
0.587551
0.587415
0.588691
0.588538
0.588423
0.588396
0.58832
0.588281
0.588107
0.588104
0.587952
0.587866
0.589021
0.588882
0.58877
0.588727
0.58863
0.588598
0.588441
0.588404
0.588292
0.588243
0.58934
0.589206
0.5891
0.589048
0.588933
0.588898
0.588765
0.588696
0.588612
0.588568
0.589645
0.589516
0.589421
0.589356
0.589244
0.589191
0.589091
0.589004
0.588923
0.588887
0.589919
0.589805
0.589714
0.589654
0.58954
0.589484
0.589395
0.589307
0.589217