/*--------------------------------*- C++ -*----------------------------------*\
  =========                 |
  \\      /  F ield         | OpenFOAM: The Open Source CFD Toolbox
   \\    /   O peration     | Website:  https://openfoam.org
    \\  /    A nd           | Version:  8
     \\/     M anipulation  |
\*---------------------------------------------------------------------------*/
FoamFile
{
    version     2.0;
    format      ascii;
    class       volScalarField;
    location    "19.5000376192658642";
    object      supersat;
}
// * * * * * * * * * * * * * * * * * * * * * * * * * * * * * * * * * * * * * //

dimensions      [0 0 0 0 0 0 0];

internalField   nonuniform List<scalar> 
6800
(
1.90755
1.90356
1.90619
1.91571
1.93515
1.98005
2.01017
2.02243
2.02701
2.02821
1.90426
1.90469
1.91417
1.93965
1.9932
2.01774
2.02697
2.02982
2.02998
2.02908
1.91091
1.91715
1.93861
1.99399
2.02096
2.03079
2.03214
2.03098
2.02941
2.02616
1.90933
1.94861
1.97632
2.01755
2.03183
2.0336
2.03328
2.03072
2.02782
2.02422
1.92269
1.98715
2.00699
2.03212
2.03529
2.0358
2.03312
2.0293
2.02637
2.02391
1.91462
1.99707
2.01436
2.03656
2.03548
2.0349
2.03162
2.02777
2.0254
2.02433
1.92459
2.025
2.03957
2.04839
2.0384
2.03477
2.03169
2.02903
2.02788
2.02768
1.96799
2.05253
2.04774
2.05286
2.03985
2.03579
2.03321
2.02858
2.02762
2.02858
1.99068
2.07039
2.06363
2.06459
2.04647
2.03795
2.03139
2.03035
2.02769
2.02818
2.03643
2.08989
2.06347
2.06819
2.05231
2.04122
2.03641
2.03536
2.03205
2.03153
1.90681
1.90623
1.90567
1.90559
1.9057
1.9059
1.90617
1.90647
1.90677
1.90705
1.90687
1.90621
1.9057
1.9056
1.9057
1.90589
1.90617
1.90648
1.90682
1.90716
1.90698
1.9062
1.90574
1.90564
1.90572
1.9059
1.90619
1.90653
1.90693
1.90739
1.90719
1.90624
1.9058
1.90569
1.90575
1.90592
1.90618
1.9065
1.9069
1.90752
1.90731
1.90627
1.90585
1.90574
1.9058
1.90599
1.90625
1.90651
1.90682
1.90742
1.90732
1.90626
1.90585
1.90579
1.90597
1.90633
1.90681
1.90717
1.90724
1.90777
1.90715
1.90619
1.90582
1.90599
1.9064
1.90716
1.90839
1.9097
1.91087
1.91556
1.90728
1.90603
1.90581
1.90615
1.90693
1.90861
1.91185
1.91719
1.92357
1.94297
1.90701
1.90571
1.90551
1.90621
1.90826
1.91359
1.92354
1.93983
1.95754
1.99667
1.90818
1.90518
1.90441
1.90758
1.91456
1.9302
1.95662
1.99276
2.01267
2.02337
1.90737
1.90775
1.90805
1.90821
1.90828
1.90826
1.90815
1.90798
1.90777
1.90752
1.90727
1.90702
1.9068
1.90661
1.90648
1.9064
1.90639
1.90646
1.90661
1.90685
1.90718
1.90759
1.90809
1.90865
1.9093
1.91001
1.91079
1.91162
1.9125
1.91342
1.91437
1.91535
1.91633
1.91735
1.91833
1.91931
1.92028
1.92123
1.92217
1.92308
1.92397
1.92483
1.92566
1.92647
1.92726
1.92802
1.92877
1.9295
1.93023
1.93094
1.93166
1.93237
1.93308
1.9338
1.93453
1.93527
1.93602
1.93678
1.93754
1.9383
1.93904
1.93976
1.94046
1.94114
1.94178
1.94239
1.94298
1.94353
1.94404
1.94453
1.94498
1.94541
1.94581
1.94619
1.94654
1.94688
1.94719
1.94749
1.94778
1.94806
1.94833
1.94859
1.94885
1.94911
1.94936
1.94962
1.94988
1.95013
1.95039
1.95065
1.95092
1.95118
1.95146
1.95172
1.95201
1.95225
1.95257
1.9528
1.9531
1.95341
1.90756
1.90805
1.9084
1.90862
1.90872
1.90871
1.90861
1.90843
1.90818
1.9079
1.90759
1.9073
1.90701
1.90674
1.90653
1.90638
1.90631
1.90631
1.90638
1.90655
1.90681
1.90717
1.90762
1.90813
1.90873
1.90941
1.91015
1.91096
1.91181
1.91271
1.91364
1.9146
1.91557
1.91657
1.91754
1.9185
1.91945
1.9204
1.92132
1.92222
1.92311
1.92396
1.9248
1.92561
1.92641
1.92718
1.92795
1.9287
1.92945
1.93019
1.93093
1.93166
1.9324
1.93315
1.93391
1.93469
1.93546
1.93624
1.93702
1.93778
1.93853
1.93925
1.93995
1.94062
1.94126
1.94187
1.94245
1.94299
1.9435
1.94398
1.94444
1.94486
1.94526
1.94564
1.946
1.94634
1.94666
1.94697
1.94726
1.94755
1.94783
1.94811
1.94838
1.94864
1.94891
1.94918
1.94945
1.94971
1.94999
1.95026
1.95054
1.95081
1.95109
1.95136
1.95166
1.95191
1.95223
1.95247
1.95277
1.95309
1.90788
1.90854
1.90901
1.90932
1.90949
1.90951
1.9094
1.90917
1.90887
1.90852
1.90813
1.90773
1.90735
1.90699
1.90665
1.90638
1.90617
1.90604
1.90599
1.90604
1.90619
1.90644
1.9068
1.90726
1.90777
1.90839
1.90908
1.90985
1.91067
1.91154
1.91244
1.91337
1.91432
1.9153
1.91624
1.91717
1.9181
1.91901
1.91992
1.92081
1.92168
1.92254
1.92337
1.92419
1.925
1.92579
1.92659
1.92737
1.92816
1.92894
1.92973
1.93051
1.93129
1.93209
1.93289
1.93371
1.93452
1.93533
1.93613
1.9369
1.93765
1.93837
1.93906
1.93972
1.94035
1.94095
1.94151
1.94205
1.94255
1.94303
1.94348
1.94391
1.94431
1.94469
1.94506
1.9454
1.94574
1.94606
1.94637
1.94667
1.94697
1.94726
1.94755
1.94784
1.94813
1.94842
1.9487
1.94899
1.94928
1.94957
1.94986
1.95015
1.95045
1.95073
1.95104
1.95131
1.95163
1.95188
1.95218
1.95252
1.90815
1.90913
1.90977
1.9102
1.91045
1.91052
1.91041
1.91017
1.90983
1.9094
1.90891
1.90838
1.90785
1.90735
1.90687
1.90645
1.90609
1.90583
1.90567
1.90561
1.90566
1.90582
1.9061
1.90652
1.90698
1.90754
1.9082
1.90894
1.90974
1.91059
1.91147
1.91238
1.9133
1.91424
1.91515
1.91603
1.91692
1.9178
1.91867
1.91953
1.92038
1.92121
1.92204
1.92285
1.92366
1.92447
1.92529
1.92611
1.92694
1.92777
1.9286
1.92943
1.93026
1.9311
1.93196
1.93282
1.93366
1.93449
1.93529
1.93605
1.93679
1.93749
1.93815
1.93879
1.93939
1.93996
1.9405
1.94102
1.94151
1.94197
1.94242
1.94284
1.94324
1.94362
1.94399
1.94435
1.94469
1.94503
1.94535
1.94568
1.94599
1.9463
1.94662
1.94693
1.94723
1.94754
1.94785
1.94816
1.94847
1.94878
1.94909
1.94939
1.9497
1.95
1.95032
1.95059
1.95091
1.95119
1.95147
1.95183
1.90845
1.90993
1.91082
1.91136
1.91171
1.91181
1.9117
1.91142
1.91103
1.91054
1.90997
1.90935
1.90871
1.90809
1.9075
1.90697
1.90653
1.90618
1.90594
1.90581
1.90581
1.90595
1.90621
1.90662
1.90709
1.90766
1.90834
1.9091
1.90991
1.91076
1.91164
1.91253
1.91343
1.91433
1.9152
1.91602
1.91685
1.91767
1.91849
1.91931
1.92011
1.92091
1.9217
1.92249
1.92328
1.92409
1.92492
1.92576
1.92661
1.92747
1.92832
1.92918
1.93004
1.93091
1.93179
1.93267
1.93353
1.93434
1.93511
1.93584
1.93653
1.93718
1.93779
1.93837
1.93892
1.93944
1.93994
1.94042
1.94088
1.94131
1.94173
1.94213
1.94252
1.94289
1.94326
1.94361
1.94395
1.94429
1.94462
1.94495
1.94527
1.9456
1.94592
1.94625
1.94657
1.94689
1.94722
1.94754
1.94786
1.94818
1.9485
1.94881
1.94913
1.94943
1.94975
1.95003
1.95034
1.95063
1.95088
1.95127
1.90986
1.91171
1.91287
1.91347
1.91383
1.91391
1.91376
1.91343
1.91298
1.91246
1.9119
1.91128
1.91064
1.91002
1.90943
1.90892
1.9085
1.9082
1.90803
1.90798
1.90807
1.90832
1.90871
1.90921
1.90981
1.91052
1.91131
1.91214
1.91302
1.91391
1.9148
1.91567
1.91654
1.91737
1.91814
1.91889
1.9196
1.92031
1.92102
1.92173
1.92243
1.92313
1.92383
1.92452
1.92523
1.92598
1.92676
1.92757
1.92839
1.92922
1.93006
1.93089
1.93173
1.93257
1.93343
1.93428
1.93508
1.93582
1.93649
1.93711
1.93769
1.93822
1.93873
1.9392
1.93966
1.94009
1.94051
1.94092
1.94131
1.94168
1.94204
1.9424
1.94274
1.94308
1.9434
1.94372
1.94404
1.94436
1.94467
1.94499
1.9453
1.94562
1.94594
1.94626
1.94658
1.9469
1.94721
1.94753
1.94785
1.94816
1.94847
1.94878
1.94908
1.94938
1.94967
1.94995
1.95023
1.95052
1.95072
1.95112
1.9177
1.91803
1.9187
1.91882
1.91878
1.91851
1.91828
1.91796
1.91754
1.9171
1.91665
1.9162
1.91577
1.91536
1.915
1.91473
1.9146
1.9146
1.91474
1.91501
1.91544
1.91605
1.91673
1.91756
1.91846
1.91941
1.92039
1.92134
1.9223
1.9232
1.92403
1.92481
1.92556
1.92625
1.92679
1.92735
1.92783
1.92828
1.92874
1.92922
1.92967
1.93014
1.93061
1.93106
1.93156
1.93212
1.93273
1.93337
1.93404
1.93474
1.93543
1.93614
1.93684
1.93753
1.93827
1.93898
1.93961
1.94013
1.94059
1.941
1.94136
1.94169
1.942
1.9423
1.94259
1.94287
1.94316
1.94344
1.94371
1.94397
1.94422
1.94446
1.94471
1.94496
1.9452
1.94545
1.94569
1.94594
1.9462
1.94646
1.94672
1.947
1.94727
1.94755
1.94783
1.94811
1.94839
1.94867
1.94895
1.94923
1.9495
1.94977
1.95003
1.95029
1.95054
1.95079
1.95101
1.95127
1.95142
1.9518
1.94135
1.93845
1.9362
1.93449
1.93325
1.93223
1.93151
1.93122
1.93093
1.93069
1.93052
1.93035
1.93029
1.93031
1.93049
1.93084
1.93137
1.93202
1.93282
1.93372
1.93489
1.93621
1.93754
1.93882
1.94006
1.94125
1.94234
1.94325
1.94412
1.94476
1.9453
1.94567
1.94599
1.94619
1.94638
1.94637
1.94623
1.94595
1.94588
1.94578
1.94562
1.94561
1.94557
1.94546
1.94546
1.94551
1.94572
1.94595
1.94621
1.9465
1.94679
1.94716
1.94756
1.94789
1.94825
1.94857
1.9488
1.94888
1.94895
1.94898
1.94898
1.94898
1.94897
1.94897
1.949
1.94902
1.94908
1.94917
1.94923
1.94928
1.94937
1.94938
1.94945
1.94953
1.94962
1.94971
1.94981
1.94993
1.95005
1.9502
1.95035
1.95052
1.95069
1.95086
1.95105
1.95124
1.95143
1.95162
1.95181
1.95201
1.95219
1.95238
1.95256
1.95274
1.9529
1.95308
1.95322
1.9534
1.95349
1.95378
1.99315
1.9893
1.98463
1.98108
1.97806
1.97569
1.97378
1.97227
1.97115
1.97044
1.97011
1.96998
1.9704
1.97083
1.97169
1.97271
1.97397
1.97523
1.9766
1.97786
1.97892
1.97969
1.98013
1.98061
1.98094
1.98117
1.98137
1.98137
1.98141
1.98127
1.98102
1.98081
1.98048
1.97981
1.9796
1.97902
1.97844
1.97771
1.97726
1.9766
1.97603
1.97526
1.9744
1.97345
1.97262
1.9718
1.97109
1.97035
1.96963
1.96894
1.96821
1.96774
1.96737
1.96686
1.96627
1.96563
1.965
1.96435
1.96374
1.96312
1.96254
1.962
1.9615
1.96105
1.96064
1.96025
1.95991
1.95961
1.95931
1.95903
1.95875
1.9585
1.95828
1.95808
1.95789
1.95772
1.95757
1.95745
1.95735
1.95727
1.95722
1.95718
1.95715
1.95714
1.95714
1.95716
1.95718
1.95722
1.95725
1.95729
1.95732
1.95737
1.9574
1.95744
1.95747
1.95751
1.95753
1.95757
1.95758
1.9577
2.02252
2.02097
2.01914
2.01765
2.01619
2.0147
2.01311
2.01153
2.0099
2.00851
2.00713
2.00596
2.00484
2.00384
2.00293
2.00206
2.00126
2.00043
1.99969
1.99891
1.99821
1.99755
1.99693
1.99639
1.99583
1.99536
1.99489
1.99445
1.99408
1.99366
1.99316
1.99298
1.99247
1.99212
1.99199
1.99164
1.99148
1.99137
1.99148
1.99146
1.99154
1.99158
1.99155
1.99154
1.99158
1.99151
1.9914
1.99126
1.99131
1.99104
1.99102
1.99043
1.99011
1.99006
1.98985
1.98932
1.98864
1.98777
1.98694
1.98605
1.98514
1.98417
1.98316
1.98214
1.98111
1.98007
1.97902
1.978
1.97699
1.97601
1.97506
1.97417
1.97333
1.97255
1.97182
1.97115
1.97054
1.96999
1.96949
1.96904
1.96863
1.96827
1.96793
1.96762
1.96733
1.96706
1.9668
1.96657
1.96633
1.96613
1.96591
1.96572
1.96551
1.96533
1.96514
1.96497
1.96479
1.96462
1.96446
1.96433
2.02669
2.02545
2.02504
2.02445
2.02381
2.02288
2.02157
2.02002
2.01826
2.01649
2.01472
2.01305
2.01142
2.00992
2.00847
2.00707
2.00572
2.00443
2.00324
2.00211
2.00107
2.00008
1.99927
1.99842
1.99774
1.99711
1.99643
1.99599
1.99544
1.99495
1.99453
1.99421
1.99366
1.99346
1.9932
1.993
1.99299
1.99302
1.99318
1.99327
1.99341
1.99358
1.99381
1.99418
1.99451
1.99483
1.99514
1.99544
1.99592
1.99632
1.99677
1.99709
1.99723
1.99738
1.99745
1.99741
1.99735
1.99729
1.99725
1.99717
1.99708
1.99692
1.99683
1.99667
1.99654
1.9963
1.996
1.99564
1.9952
1.9947
1.9941
1.99345
1.99275
1.99199
1.9912
1.99038
1.98955
1.9887
1.98785
1.987
1.98617
1.98535
1.98453
1.98374
1.98296
1.98221
1.98148
1.98077
1.98009
1.97943
1.97881
1.9782
1.97764
1.97708
1.97658
1.97604
1.97562
1.97508
1.97477
1.97425
2.02439
2.02355
2.02344
2.02266
2.02181
2.02073
2.0196
2.01832
2.01703
2.01563
2.01422
2.01275
2.01128
2.00983
2.00833
2.00693
2.00559
2.00434
2.00312
2.00204
2.00102
2.00007
1.99932
1.99844
1.99786
1.9972
1.99656
1.99623
1.99563
1.99518
1.99496
1.99443
1.9941
1.99399
1.99367
1.99345
1.99353
1.99375
1.99393
1.99398
1.99406
1.99418
1.99449
1.99492
1.99531
1.99557
1.99586
1.99614
1.99656
1.99689
1.99725
1.99746
1.9976
1.9977
1.99779
1.99784
1.99785
1.99794
1.998
1.99806
1.99816
1.99832
1.99849
1.99859
1.9987
1.99874
1.99883
1.99886
1.99899
1.99907
1.99921
1.99927
1.99934
1.9994
1.99935
1.99922
1.99909
1.99887
1.99871
1.99845
1.99827
1.99796
1.99776
1.99738
1.99711
1.99665
1.99632
1.99576
1.99536
1.99473
1.99428
1.99358
1.9931
1.99233
1.99183
1.99099
1.99049
1.98959
1.98921
1.98784
2.0222
2.02176
2.02099
2.01998
2.01927
2.01864
2.01785
2.01692
2.0158
2.01457
2.01329
2.01199
2.01071
2.00943
2.0082
2.00702
2.0058
2.00468
2.00351
2.00253
2.00149
2.00076
1.99998
1.99932
1.99888
1.99822
1.9979
1.99745
1.99702
1.99675
1.9964
1.99603
1.99573
1.99556
1.99516
1.99504
1.99505
1.99501
1.99549
1.99546
1.99547
1.99548
1.99558
1.99593
1.99637
1.99676
1.9971
1.99732
1.9976
1.99779
1.99801
1.99818
1.9983
1.99839
1.99848
1.9985
1.99853
1.99859
1.99861
1.99869
1.99876
1.99886
1.99899
1.99904
1.99918
1.99924
1.99932
1.9994
1.99935
1.99935
1.99944
1.9995
1.9996
1.99983
1.99973
1.99988
1.99977
1.99969
1.99967
1.99971
1.99974
1.99976
1.99978
1.9998
1.9998
1.99978
1.99979
1.99977
1.99974
1.9997
1.99967
1.9996
1.99952
1.9994
1.99932
1.99916
1.99908
1.99888
1.9988
1.99845
2.02095
2.02078
2.02008
2.01911
2.01836
2.01786
2.01719
2.01644
2.0154
2.01429
2.01307
2.01186
2.01076
2.00958
2.0086
2.00747
2.00651
2.00551
2.00456
2.00368
2.00285
2.00221
2.00141
2.00089
2.00025
1.99965
1.99936
1.99863
1.99843
1.99782
1.99743
1.99703
1.99653
1.99627
1.99574
1.99567
1.99551
1.99562
1.99569
1.99556
1.99566
1.99565
1.99572
1.99593
1.99639
1.99686
1.99726
1.99754
1.99779
1.99797
1.99815
1.9983
1.9984
1.99849
1.99854
1.99855
1.99857
1.99858
1.99859
1.99866
1.99867
1.99879
1.99889
1.99894
1.99912
1.99916
1.99909
1.99908
1.9991
1.9992
1.99926
1.99935
1.99959
1.99947
1.99961
1.99948
1.99945
1.99949
1.99955
1.99961
1.99966
1.99968
1.99972
1.99973
1.99974
1.99974
1.99976
1.99976
1.99977
1.9998
1.99981
1.99985
1.99987
1.99991
1.99994
1.99997
2.00004
2.00011
2.00012
2.00017
2.02021
2.01983
2.01988
2.01914
2.01822
2.01743
2.01691
2.01632
2.01554
2.01452
2.01336
2.01218
2.01103
2.00995
2.00893
2.0079
2.00697
2.00598
2.00512
2.00427
2.00354
2.00278
2.00204
2.00142
2.00074
2.00022
1.99976
1.99917
1.99895
1.99823
1.99804
1.99741
1.9971
1.99663
1.99625
1.99604
1.99589
1.99605
1.99577
1.99572
1.99578
1.99572
1.99572
1.99582
1.99605
1.99641
1.99686
1.99724
1.99754
1.9978
1.99799
1.99815
1.99826
1.99835
1.99841
1.99845
1.99847
1.99848
1.99847
1.99848
1.99848
1.99851
1.99853
1.99856
1.99862
1.99869
1.99874
1.99884
1.99889
1.999
1.99905
1.99911
1.99915
1.99908
1.99905
1.9991
1.9992
1.99928
1.99937
1.99942
1.99947
1.9995
1.99951
1.99952
1.99952
1.99951
1.99952
1.99952
1.99952
1.99954
1.99956
1.99959
1.99962
1.99967
1.9997
1.99976
1.99981
1.99986
1.99985
1.99999
2.01948
2.01916
2.01874
2.01879
2.01836
2.01748
2.01669
2.01588
2.01505
2.01418
2.01316
2.01217
2.01103
2.01004
2.00892
2.00799
2.00706
2.00617
2.00544
2.00459
2.0039
2.00303
2.00236
2.0016
2.00096
2.00041
1.99986
1.99944
1.999
1.99859
1.9983
1.99776
1.9975
1.99705
1.99657
1.99629
1.9961
1.99612
1.99578
1.99568
1.99558
1.99537
1.99536
1.9954
1.99545
1.99564
1.99601
1.99646
1.99686
1.99717
1.99746
1.99763
1.99773
1.99785
1.99792
1.99796
1.99798
1.99798
1.99809
1.9981
1.99802
1.99803
1.99799
1.99804
1.99806
1.99813
1.99813
1.99831
1.99833
1.99823
1.9982
1.99827
1.99839
1.99852
1.99868
1.99882
1.99897
1.99907
1.99919
1.99926
1.99934
1.99939
1.99942
1.99945
1.99946
1.99947
1.99947
1.9995
1.99951
1.99953
1.99956
1.99957
1.99959
1.99961
1.99963
1.99965
1.99963
1.99966
1.99969
1.99974
2.01898
2.01839
2.01758
2.01761
2.01768
2.01706
2.01609
2.01504
2.01431
2.01355
2.01253
2.01139
2.01018
2.00923
2.00833
2.00764
2.00689
2.00616
2.00543
2.00454
2.00376
2.00287
2.0021
2.00133
2.00064
2.00016
1.99957
1.99927
1.99883
1.99848
1.99822
1.99773
1.99745
1.99703
1.99644
1.9961
1.99578
1.99544
1.99479
1.99473
1.9946
1.99438
1.99436
1.9943
1.99434
1.99436
1.99455
1.9949
1.99527
1.99558
1.99583
1.99601
1.99614
1.99624
1.99629
1.99634
1.99637
1.99644
1.99648
1.99657
1.99664
1.99676
1.99685
1.99699
1.99711
1.99725
1.99739
1.99753
1.99768
1.99782
1.99798
1.99812
1.99828
1.99842
1.99857
1.99871
1.99885
1.99898
1.9991
1.99921
1.99931
1.99939
1.99945
1.9995
1.99953
1.99954
1.99954
1.99953
1.99952
1.99951
1.9995
1.9995
1.9995
1.99952
1.99953
1.99956
1.99957
1.99965
1.9997
1.99974
2.01766
2.01699
2.0157
2.0157
2.01505
2.01517
2.0146
2.01371
2.01282
2.01178
2.01093
2.01016
2.00947
2.00881
2.00806
2.00729
2.00644
2.00551
2.0047
2.00371
2.00301
2.00211
2.00139
2.00072
2.00006
1.99959
1.99893
1.9987
1.99811
1.9979
1.99749
1.997
1.99679
1.99602
1.99564
1.99509
1.99463
1.99392
1.99337
1.99361
1.99331
1.99305
1.99297
1.9929
1.99293
1.99285
1.99288
1.99305
1.99334
1.99359
1.99384
1.99405
1.99427
1.99455
1.99483
1.99518
1.99545
1.99577
1.99599
1.99625
1.99645
1.99666
1.99685
1.99701
1.99718
1.99731
1.99747
1.99758
1.99772
1.99783
1.99797
1.99808
1.99822
1.99832
1.99846
1.99857
1.99869
1.99882
1.99894
1.99906
1.99919
1.9993
1.99943
1.99954
1.99965
1.99975
1.99984
1.99991
1.99999
2.00003
2.00009
2.00014
2.00016
2.00021
2.00023
2.00027
2.00029
2.00036
2.00039
2.00045
2.01599
2.01594
2.0144
2.01278
2.01229
2.01242
2.01261
2.01223
2.01107
2.00964
2.00879
2.0081
2.00772
2.00722
2.00667
2.00592
2.00512
2.00426
2.00347
2.00264
2.00204
2.00132
2.00075
2.00012
1.9995
1.99888
1.99829
1.99775
1.99721
1.99674
1.99619
1.99575
1.99532
1.99478
1.99445
1.99409
1.99354
1.99306
1.99312
1.99299
1.99249
1.99233
1.99232
1.99228
1.99224
1.9922
1.99224
1.99226
1.99227
1.99233
1.99251
1.99276
1.99306
1.99348
1.99394
1.99448
1.99498
1.99545
1.99585
1.99617
1.99646
1.99665
1.99687
1.99698
1.99712
1.99719
1.9973
1.99738
1.9975
1.9976
1.99773
1.99785
1.99799
1.99811
1.99825
1.99838
1.9985
1.99862
1.99874
1.99885
1.99895
1.99906
1.99915
1.99923
1.99929
1.99935
1.99938
1.99941
1.99942
1.99943
1.99943
1.99944
1.99946
1.99948
1.99949
1.99955
1.99957
1.99964
1.99966
1.99975
2.01424
2.0142
2.01346
2.01226
2.0115
2.01115
2.01093
2.01054
2.00992
2.00906
2.00841
2.00775
2.00708
2.00622
2.00545
2.00466
2.00404
2.00331
2.00262
2.00198
2.0015
2.0009
2.00036
1.99972
1.99897
1.99829
1.99756
1.99698
1.99645
1.99603
1.99558
1.99521
1.99481
1.9944
1.99411
1.99374
1.9932
1.99304
1.99311
1.99256
1.99219
1.99233
1.99225
1.99229
1.99222
1.99213
1.99214
1.99232
1.99236
1.99245
1.99251
1.99253
1.99284
1.99323
1.99371
1.99419
1.99465
1.99501
1.99534
1.99556
1.9958
1.99594
1.99613
1.99622
1.99636
1.99643
1.99656
1.99665
1.99681
1.99696
1.99716
1.99733
1.99756
1.99774
1.99795
1.99812
1.9983
1.99844
1.99858
1.99871
1.99882
1.99893
1.99903
1.99912
1.99921
1.99928
1.99933
1.99938
1.9994
1.99942
1.99943
1.99943
1.99944
1.99945
1.99946
1.99949
1.99949
1.99953
1.99955
1.99961
2.01246
2.01251
2.01242
2.01133
2.00983
2.00914
2.00784
2.00764
2.00791
2.0074
2.00676
2.0061
2.00496
2.00345
2.00175
2.00126
2.00165
2.00172
2.00154
2.0011
2.00079
2.0002
1.99954
1.99887
1.99801
1.99726
1.99668
1.99626
1.99586
1.99556
1.99516
1.99486
1.99447
1.99417
1.99389
1.99356
1.99333
1.99335
1.99316
1.993
1.99317
1.99323
1.99314
1.99333
1.99323
1.9933
1.9935
1.99383
1.99424
1.99438
1.99434
1.99424
1.99435
1.99449
1.99467
1.99478
1.99488
1.99493
1.995
1.99505
1.9952
1.99536
1.99557
1.99575
1.99594
1.9961
1.99625
1.9964
1.99655
1.99673
1.99692
1.99712
1.99734
1.99755
1.99776
1.99795
1.99813
1.99828
1.99842
1.99853
1.99863
1.99872
1.99881
1.99889
1.99896
1.99904
1.99911
1.99917
1.99922
1.99927
1.9993
1.99934
1.99935
1.99938
1.99941
1.99945
1.99947
1.99952
1.99956
1.99963
2.01064
2.0107
2.01097
2.01021
2.0095
2.00867
2.00797
2.00722
2.0068
2.00647
2.00581
2.00527
2.00381
2.00288
2.00184
2.00134
2.00137
2.00114
2.00074
1.99999
1.99927
1.99845
1.9977
1.99706
1.99649
1.99581
1.99545
1.99502
1.99472
1.99439
1.99424
1.99405
1.99386
1.99381
1.99362
1.99352
1.99336
1.99344
1.99347
1.99387
1.99424
1.99419
1.99444
1.99467
1.99488
1.99526
1.99548
1.99562
1.99592
1.99597
1.99596
1.99591
1.99573
1.99571
1.99576
1.99586
1.99594
1.99621
1.9961
1.9962
1.99612
1.9963
1.99651
1.99683
1.99708
1.99733
1.99746
1.99762
1.99787
1.99793
1.99784
1.99783
1.99793
1.99805
1.9982
1.99833
1.99845
1.99854
1.99862
1.99866
1.99871
1.99874
1.9988
1.99885
1.99891
1.99896
1.99902
1.99909
1.99914
1.99921
1.99925
1.99933
1.99938
1.99945
1.99951
1.99959
1.99966
1.99973
1.9998
1.99987
2.00898
2.00866
2.00875
2.00899
2.00843
2.0078
2.00668
2.00581
2.00485
2.00428
2.00397
2.00363
2.00241
2.00202
2.00081
2.0004
2.00063
2.00026
1.99971
1.99889
1.99797
1.99719
1.99645
1.99599
1.99594
1.99552
1.99516
1.99442
1.99391
1.99338
1.99291
1.99269
1.99241
1.99236
1.99232
1.99242
1.99261
1.99332
1.99363
1.99417
1.99466
1.99486
1.99543
1.9955
1.99566
1.99599
1.99614
1.99634
1.99655
1.99657
1.99648
1.99641
1.99641
1.99641
1.99654
1.99658
1.99684
1.99686
1.99687
1.9968
1.99661
1.99671
1.997
1.99733
1.99768
1.998
1.99826
1.99847
1.99862
1.99873
1.99883
1.99891
1.99897
1.99903
1.99906
1.99918
1.9992
1.99918
1.99929
1.99921
1.99928
1.99923
1.99919
1.9992
1.99921
1.99925
1.99928
1.99932
1.99935
1.9994
1.99943
1.99949
1.99954
1.9996
1.99965
1.99971
1.99977
1.99984
1.99989
1.99996
2.00789
2.00698
2.00689
2.00743
2.00758
2.00655
2.00563
2.00484
2.00359
2.00234
2.00194
2.00209
2.00182
2.00087
1.99976
1.99868
1.99865
1.99914
1.99894
1.99834
1.99763
1.99689
1.99622
1.99604
1.99616
1.99619
1.99596
1.99536
1.99488
1.99424
1.99364
1.99319
1.99291
1.99298
1.99305
1.99303
1.99314
1.99369
1.99429
1.99482
1.99521
1.99554
1.99586
1.99602
1.99603
1.99624
1.9964
1.99654
1.99686
1.99699
1.99698
1.99719
1.99712
1.99697
1.99696
1.99693
1.99694
1.99716
1.99748
1.99772
1.99783
1.99785
1.99776
1.99788
1.9982
1.99862
1.9989
1.99912
1.99926
1.99939
1.99948
1.99956
1.99962
1.99967
1.99974
1.99979
1.99984
1.99988
1.9999
1.99993
1.99996
2.00003
2.00009
2.00017
2.00021
2.00028
2.00031
2.00038
2.00041
2.00048
2.00049
2.00058
2.00058
2.00058
2.00049
2.00053
2.00048
2.00047
2.00048
2.00051
2.00661
2.006
2.00573
2.00583
2.00624
2.00599
2.00516
2.00402
2.00254
2.00177
2.00152
2.0011
2.00118
2.00025
1.99914
1.9987
1.99886
1.999
1.9989
1.99818
1.99739
1.99644
1.99602
1.9955
1.99544
1.99563
1.99562
1.99596
1.99592
1.99614
1.99617
1.99615
1.99618
1.99628
1.99628
1.99638
1.99641
1.99662
1.9967
1.99652
1.99636
1.99672
1.99648
1.99653
1.99643
1.99635
1.99634
1.99642
1.99686
1.99713
1.99734
1.99765
1.99767
1.99767
1.99787
1.99792
1.99814
1.99858
1.99884
1.9992
1.99957
1.99965
1.99969
1.99962
1.99958
1.99953
1.99938
1.99934
1.99944
1.99953
1.99962
1.99969
1.99974
1.99979
1.99983
1.99988
1.99989
1.99995
1.99997
1.99995
1.99996
2
2.00008
2.00014
2.00021
2.00026
2.00033
2.00037
2.00043
2.00046
2.0005
2.00053
2.00055
2.00057
2.0006
2.00062
2.00063
2.00069
2.00072
2.00076
2.0054
2.00457
2.00441
2.00442
2.00456
2.00474
2.00446
2.00362
2.00248
2.00178
2.0014
2.00108
2.00084
2.00015
1.99886
1.99804
1.99694
1.99752
1.99726
1.9977
1.99817
1.99767
1.9973
1.99691
1.99668
1.99652
1.99659
1.99669
1.99669
1.99698
1.99717
1.99732
1.99742
1.99746
1.9975
1.99765
1.99777
1.9978
1.99787
1.99796
1.99806
1.99827
1.99845
1.99852
1.99862
1.99866
1.99873
1.9986
1.99852
1.99864
1.99878
1.99922
1.99927
1.99922
1.99938
1.99936
1.9996
1.99984
1.9998
2.00008
2.00038
2.00043
2.00043
2.00034
2.00028
2.00024
2.00018
2.00012
2.00009
2.00014
2.00018
2.00022
2.00025
2.00026
2.00029
2.00031
2.00038
2.00039
2.00039
2.00037
2.00032
2.0003
2.00035
2.00042
2.0005
2.00056
2.00065
2.0007
2.00076
2.0008
2.00082
2.00084
2.00087
2.00085
2.00086
2.00084
2.00084
2.00085
2.00086
2.00089
2.00416
2.00374
2.00356
2.00357
2.00409
2.004
2.00419
2.00401
2.00317
2.00217
2.00131
2.00098
2.00081
2.0003
1.99928
1.99826
1.9974
1.99741
1.99773
1.99814
1.99838
1.9987
1.99847
1.99809
1.99797
1.99792
1.99799
1.99809
1.99829
1.9984
1.99847
1.99854
1.9986
1.99869
1.99869
1.99875
1.99888
1.99889
1.99911
1.99914
1.9991
1.99947
1.99977
1.99986
1.9999
1.99996
1.99995
1.99995
1.99994
1.9999
2.00002
2.00014
2.00015
2.00016
2.00004
1.99999
2.00002
1.99995
1.99994
2.00001
2.00013
2.0003
2.00033
2.00033
2.0003
2.00019
2.00019
2.00021
2.00026
2.00032
2.00041
2.00047
2.00048
2.00047
2.00046
2.00051
2.00056
2.00057
2.00063
2.00066
2.00065
2.00069
2.00069
2.00066
2.00066
2.00069
2.00076
2.00083
2.00087
2.00094
2.00098
2.00102
2.00104
2.00101
2.00101
2.001
2.00097
2.00095
2.00092
2.00094
2.00266
2.00263
2.00288
2.00261
2.00243
2.00234
2.00226
2.00238
2.0028
2.00233
2.00134
2.00047
2.00043
2.0004
2.00008
1.99985
1.99957
1.99929
1.99889
1.99883
1.9988
1.99893
1.99914
1.9991
1.99915
1.9992
1.99939
1.99952
1.99967
1.99977
1.99979
1.99984
1.99987
1.99988
1.99991
1.99998
2.00003
2.00013
2.00019
2.00015
2.00011
2.00024
2.00028
2.00027
2.00026
2.00025
2.00036
2.00025
2.00028
2.00024
2.00024
2.00017
2.00009
2.00021
2.00007
1.99998
1.99997
1.99985
1.99984
1.99979
1.99972
1.99994
2.00011
2.00015
2.00014
2.00013
2.00004
2.00002
1.99998
1.99996
2.00008
2.00011
2.00013
2.00013
2.00017
2.00022
2.00022
2.00025
2.00032
2.00037
2.00043
2.00045
2.00043
2.00046
2.00044
2.00043
2.00043
2.00042
2.00042
2.00045
2.00051
2.00057
2.0006
2.0006
2.00057
2.00053
2.00049
2.00046
2.00045
2.00045
2.00204
2.00209
2.00191
2.00238
2.00186
2.00184
2.00161
2.0015
2.00175
2.00196
2.00177
2.00151
2.00116
2.00085
2.00094
2.00058
2.00027
1.99995
1.99978
1.99971
1.99975
1.9998
1.99985
1.99991
2
2.00007
2.00014
2.00023
2.00022
2.0003
2.00026
2.00032
2.00031
2.00027
2.00037
2.00037
2.00039
2.00043
2.0004
2.00037
2.00038
2.00037
2.00026
2.00023
2.0002
2.00018
2.00021
2.00026
2.00012
2.00008
2.00004
1.99999
1.99993
1.99991
1.9998
1.99981
1.99976
1.99969
1.99962
1.99959
1.99949
1.99966
1.99977
1.99981
1.99982
1.99985
1.99985
1.99986
1.99979
1.99977
1.99984
1.99985
1.99987
1.99985
1.99988
1.99986
1.99986
1.99988
1.99986
1.99989
1.9999
1.99992
1.99996
2.00001
2.00002
2.00002
2.00005
2.00004
2.00004
2.00003
2.00004
2.00009
2.0001
2.00011
2.00013
2.00013
2.00013
2.00012
2.00012
2.00012
2.00057
2.00037
2.00036
2.00046
2.00039
2.00024
2.00043
2.00036
2.00038
2.00054
2.00065
2.00087
2.00095
2.00107
2.00121
2.00087
2.00044
2.00016
2.00011
2.00007
2.00011
2.00013
2.00016
2.0002
2.00029
2.00036
2.0004
2.00046
2.00046
2.00051
2.00048
2.00051
2.00051
2.00045
2.0005
2.00049
2.00047
2.00049
2.00039
2.00036
2.0004
2.00033
2.00024
2.00023
2.00019
2.00015
2.00003
2.00008
1.99987
1.99981
1.99975
1.9997
1.99966
1.99963
1.99956
1.99958
1.99955
1.99953
1.99949
1.99947
1.99945
1.99953
1.99964
1.99963
1.99964
1.99966
1.99967
1.99967
1.99963
1.99961
1.99964
1.99966
1.99968
1.99968
1.99971
1.99969
1.99973
1.99973
1.99972
1.99973
1.99972
1.99975
1.99977
1.99979
1.99979
1.9998
1.99985
1.99986
1.99987
1.99988
1.99989
1.99991
1.99992
1.99993
1.99994
1.99995
1.99994
1.99994
1.99993
1.99993
2.02644
2.02772
2.02821
2.02677
2.0257
2.02366
2.02266
2.02269
2.02447
2.02752
2.02225
2.02706
2.02668
2.02549
2.02608
2.02429
2.02286
2.02175
2.02161
2.02475
2.02148
2.02509
2.02443
2.02378
2.0249
2.02413
2.023
2.02222
2.02117
2.02266
2.02112
2.02267
2.02181
2.02172
2.02283
2.02275
2.02255
2.02241
2.02134
2.02174
2.01945
2.01909
2.01876
2.02014
2.02081
2.02126
2.02127
2.022
2.02143
2.02155
2.01706
2.01667
2.01688
2.01825
2.01846
2.01938
2.01922
2.02038
2.02039
2.0211
2.01467
2.01452
2.0153
2.01626
2.01635
2.01723
2.01728
2.01833
2.01861
2.01986
2.01301
2.013
2.01383
2.01452
2.01451
2.01519
2.01544
2.0164
2.01663
2.01823
2.01158
2.01162
2.01238
2.01291
2.01289
2.0134
2.01389
2.01479
2.01497
2.01642
2.01013
2.01036
2.01087
2.01145
2.01138
2.01178
2.01219
2.01309
2.01323
2.01455
2.00893
2.00946
2.00953
2.01028
2.01028
2.01056
2.01098
2.01161
2.01159
2.01258
2.00768
2.00833
2.00836
2.00888
2.00919
2.00923
2.00941
2.01037
2.01036
2.01078
2.0065
2.00698
2.00725
2.00754
2.00784
2.00825
2.0083
2.00899
2.0091
2.00944
2.00563
2.00579
2.00607
2.00649
2.00654
2.00707
2.00733
2.00757
2.00771
2.00824
2.00482
2.00499
2.00497
2.00539
2.0054
2.00562
2.00631
2.00639
2.00638
2.00689
2.0036
2.00405
2.004
2.00433
2.00449
2.00457
2.00491
2.00557
2.00533
2.00558
2.00252
2.00263
2.00274
2.00266
2.00339
2.00341
2.00365
2.004
2.00381
2.00463
2.002
2.00227
2.00244
2.00237
2.0029
2.00263
2.00258
2.0024
2.00255
2.00323
2.00193
2.00238
2.00193
2.00211
2.00242
2.00189
2.00229
2.00194
2.00218
2.00274
2.0009
2.00099
2.00059
2.00078
2.00072
2.00043
2.00055
2.00057
2.00069
2.00081
1.99201
1.98989
1.99082
1.99315
1.99845
2.00417
2.0097
2.01742
2.03433
2.04353
1.9988
1.99823
2.00005
2.00372
2.00604
2.01147
2.02143
2.03387
2.05518
2.06235
2.00594
2.00451
2.00545
2.01082
2.01862
2.02477
2.03472
2.04893
2.07343
2.0762
2.01235
2.0123
2.01463
2.01779
2.02497
2.03212
2.0447
2.05933
2.09078
2.09454
2.01846
2.01817
2.02008
2.0247
2.03344
2.04213
2.05828
2.07332
2.1016
2.09974
2.02303
2.02313
2.02614
2.0311
2.04017
2.04396
2.05949
2.07891
2.11274
2.11052
2.02725
2.03006
2.02969
2.03379
2.04632
2.05421
2.06689
2.08558
2.12003
2.10655
2.02789
2.03305
2.03624
2.03933
2.04942
2.05768
2.0706
2.08358
2.11114
2.09649
2.03
2.02959
2.03462
2.03896
2.04803
2.05656
2.07173
2.08263
2.10928
2.08988
2.03179
2.03146
2.03457
2.0353
2.04552
2.05278
2.06299
2.07928
2.09808
2.04518
1.94813
1.94372
1.94104
1.93582
1.93263
1.92655
1.92314
1.91632
1.91293
1.91301
1.94883
1.94494
1.9423
1.93791
1.93481
1.92987
1.92648
1.92131
1.91736
1.91885
1.94995
1.94611
1.94295
1.93894
1.93555
1.93102
1.92773
1.92324
1.92013
1.92145
1.95329
1.94961
1.94663
1.9423
1.93958
1.93499
1.9318
1.92835
1.9275
1.93043
1.95693
1.95336
1.95132
1.94716
1.94419
1.94113
1.93947
1.93673
1.93749
1.94047
1.96077
1.95997
1.95697
1.9552
1.95236
1.94854
1.94702
1.94713
1.94883
1.95371
1.96367
1.96374
1.96283
1.96031
1.9605
1.95853
1.95774
1.95899
1.96245
1.96913
1.9702
1.9707
1.9707
1.96894
1.96899
1.96931
1.96951
1.97229
1.97774
1.98671
1.97527
1.97439
1.97707
1.97701
1.97796
1.97943
1.9825
1.98697
1.99627
2.0049
1.98451
1.98172
1.98412
1.98646
1.98834
1.99009
1.99367
2.00239
2.01562
2.02496
2.00003
2.00003
2.00003
2.00003
2.00003
2.00002
2.00002
2.00002
2.00002
2.00001
2.00001
2.00001
2.00001
2
2
1.99999
1.99999
1.99997
1.99997
1.99996
1.99996
1.99994
1.99994
1.99992
1.99992
1.9999
1.99989
1.99987
1.99986
1.99983
1.99983
1.99979
1.99979
1.99975
1.99974
1.9997
1.99968
1.99963
1.99962
1.99956
1.99955
1.99948
1.99946
1.99939
1.99937
1.99928
1.99925
1.99915
1.99912
1.999
1.99896
1.99884
1.99879
1.99864
1.99858
1.99842
1.99834
1.99816
1.99807
1.99786
1.99776
1.99751
1.9974
1.99711
1.99698
1.99664
1.99649
1.99611
1.99594
1.99549
1.99529
1.99478
1.99454
1.99395
1.99368
1.993
1.99269
1.9919
1.99154
1.99062
1.99021
1.98913
1.98865
1.9874
1.98683
1.98536
1.98474
1.98295
1.9822
1.98006
1.97919
1.97657
1.97554
1.97229
1.97096
1.9669
1.96518
1.96007
1.95753
1.95117
2.00003
2.00003
2.00003
2.00003
2.00003
2.00002
2.00002
2.00002
2.00002
2.00001
2.00001
2.00001
2.00001
2
2
1.99999