/*--------------------------------*- C++ -*----------------------------------*\
  =========                 |
  \\      /  F ield         | OpenFOAM: The Open Source CFD Toolbox
   \\    /   O peration     | Website:  https://openfoam.org
    \\  /    A nd           | Version:  8
     \\/     M anipulation  |
\*---------------------------------------------------------------------------*/
FoamFile
{
    version     2.0;
    format      ascii;
    class       volScalarField;
    location    "19.5000376192658642";
    object      T;
}
// * * * * * * * * * * * * * * * * * * * * * * * * * * * * * * * * * * * * * //

dimensions      [0 0 0 1 0 0 0];

internalField   nonuniform List<scalar> 
6800
(
375.132
375.366
375.308
375.033
374.422
373.156
372.27
371.929
371.815
371.797
375.198
375.289
375.04
374.293
372.73
371.979
371.776
371.73
371.746
371.776
375.001
374.827
374.2
372.717
371.914
371.722
371.678
371.707
371.763
371.877
375.164
373.877
373.075
371.998
371.64
371.597
371.651
371.712
371.814
371.929
374.856
373.02
372.23
371.604
371.529
371.611
371.638
371.764
371.864
371.94
375.104
372.778
371.991
371.445
371.493
371.597
371.668
371.797
371.879
371.923
374.533
371.887
371.263
371.058
371.332
371.525
371.635
371.773
371.841
371.841
372.878
370.974
370.962
370.883
371.217
371.448
371.604
371.734
371.808
371.829
371.769
370.356
370.658
370.556
370.964
371.323
371.526
371.616
371.742
371.794
370.436
369.501
370.087
370.536
370.849
371.158
371.429
371.531
371.635
371.726
375.363
375.364
375.367
375.363
375.358
375.35
375.342
375.334
375.327
375.321
375.356
375.361
375.363
375.361
375.355
375.348
375.34
375.331
375.322
375.315
375.342
375.353
375.357
375.355
375.35
375.343
375.334
375.324
375.314
375.304
375.322
375.342
375.349
375.349
375.345
375.338
375.329
375.319
375.31
375.298
375.304
375.333
375.342
375.344
375.34
375.332
375.323
375.314
375.309
375.305
375.291
375.326
375.338
375.34
375.334
375.322
375.305
375.291
375.292
375.303
375.285
375.323
375.337
375.336
375.325
375.3
375.259
375.215
375.176
375.07
375.281
375.323
375.339
375.336
375.314
375.263
375.156
374.989
374.785
374.226
375.239
375.326
375.35
375.338
375.275
375.115
374.798
374.289
373.771
372.663
375.204
375.339
375.378
375.296
375.078
374.59
373.801
372.766
372.203
371.902
375.317
375.316
375.321
375.333
375.35
375.373
375.401
375.433
375.468
375.505
375.543
375.581
375.618
375.654
375.688
375.718
375.745
375.767
375.785
375.799
375.808
375.811
375.811
375.806
375.797
375.784
375.767
375.747
375.725
375.699
375.672
375.643
375.613
375.581
375.549
375.517
375.485
375.453
375.421
375.39
375.359
375.329
375.3
375.272
375.244
375.217
375.191
375.165
375.14
375.116
375.091
375.067
375.043
375.019
374.995
374.971
374.946
374.921
374.896
374.871
374.847
374.822
374.799
374.776
374.754
374.733
374.713
374.694
374.676
374.66
374.644
374.629
374.615
374.602
374.589
374.578
374.567
374.556
374.546
374.537
374.527
374.519
374.51
374.501
374.493
374.485
374.476
374.468
374.46
374.451
374.443
374.434
374.426
374.417
374.408
374.4
374.39
374.383
374.373
374.364
375.307
375.304
375.307
375.317
375.334
375.357
375.384
375.417
375.452
375.491
375.53
375.571
375.61
375.648
375.684
375.717
375.746
375.771
375.791
375.807
375.818
375.824
375.825
375.822
375.815
375.803
375.787
375.768
375.746
375.722
375.695
375.666
375.636
375.605
375.573
375.542
375.51
375.478
375.447
375.416
375.386
375.356
375.327
375.298
375.27
375.243
375.217
375.191
375.165
375.139
375.114
375.089
375.064
375.039
375.014
374.989
374.964
374.938
374.912
374.887
374.862
374.838
374.814
374.791
374.77
374.749
374.729
374.71
374.692
374.676
374.66
374.645
374.631
374.618
374.605
374.594
374.583
374.572
374.562
374.552
374.543
374.533
374.524
374.516
374.507
374.498
374.489
374.481
374.472
374.463
374.455
374.446
374.437
374.428
374.419
374.411
374.4
374.393
374.383
374.373
375.292
375.285
375.284
375.291
375.306
375.328
375.356
375.39
375.427
375.467
375.51
375.553
375.595
375.637
375.677
375.714
375.747
375.777
375.802
375.822
375.836
375.846
375.85
375.848
375.844
375.834
375.82
375.802
375.781
375.758
375.732
375.704
375.675
375.644
375.613
375.583
375.552
375.521
375.49
375.459
375.429
375.4
375.37
375.342
375.314
375.286
375.259
375.232
375.205
375.179
375.152
375.126
375.099
375.073
375.047
375.02
374.993
374.966
374.94
374.914
374.889
374.864
374.841
374.818
374.796
374.776
374.756
374.738
374.721
374.704
374.688
374.674
374.66
374.646
374.634
374.622
374.61
374.599
374.589
374.579
374.569
374.559
374.549
374.54
374.531
374.521
374.512
374.503
374.494
374.484
374.475
374.466
374.456
374.447
374.437
374.429
374.419
374.411
374.401
374.39
375.279
375.262
375.256
375.259
375.271
375.292
375.319
375.353
375.392
375.435
375.481
375.527
375.574
375.621
375.665
375.707
375.745
375.779
375.808
375.832
375.85
375.862
375.869
375.87
375.867
375.859
375.846
375.829
375.809
375.786
375.761
375.734
375.706
375.676
375.646
375.616
375.587
375.557
375.527
375.498
375.469
375.44
375.411
375.383
375.355
375.328
375.3
375.272
375.244
375.216
375.188
375.16
375.132
375.104
375.077
375.048
375.02
374.992
374.965
374.939
374.914
374.89
374.867
374.845
374.825
374.805
374.786
374.768
374.751
374.735
374.72
374.705
374.692
374.678
374.666
374.653
374.642
374.63
374.62
374.609
374.598
374.588
374.578
374.568
374.558
374.548
374.538
374.528
374.518
374.509
374.499
374.489
374.479
374.47
374.459
374.45
374.44
374.431
374.422
374.411
375.27
375.234
375.22
375.22
375.228
375.247
375.275
375.31
375.35
375.395
375.442
375.492
375.542
375.592
375.64
375.685
375.726
375.763
375.795
375.82
375.84
375.854
375.862
375.862
375.86
375.852
375.838
375.821
375.801
375.778
375.753
375.726
375.699
375.67
375.641
375.614
375.586
375.558
375.531
375.503
375.475
375.448
375.42
375.393
375.366
375.339
375.311
375.283
375.255
375.226
375.197
375.169
375.14
375.111
375.083
375.053
375.025
374.997
374.97
374.945
374.921
374.898
374.877
374.857
374.838
374.819
374.802
374.785
374.77
374.754
374.74
374.726
374.713
374.7
374.688
374.676
374.664
374.653
374.642
374.631
374.62
374.61
374.599
374.589
374.578
374.568
374.558
374.547
374.537
374.527
374.517
374.507
374.496
374.487
374.477
374.467
374.457
374.448
374.44
374.428
375.233
375.18
375.156
375.154
375.161
375.179
375.21
375.246
375.287
375.331
375.377
375.426
375.476
375.525
375.573
375.617
375.657
375.693
375.722
375.746
375.763
375.773
375.777
375.775
375.768
375.756
375.74
375.721
375.698
375.674
375.649
375.623
375.597
375.57
375.544
375.521
375.496
375.472
375.449
375.425
375.4
375.377
375.352
375.328
375.304
375.28
375.254
375.227
375.2
375.173
375.145
375.117
375.088
375.061
375.033
375.005
374.977
374.95
374.926
374.904
374.883
374.864
374.846
374.829
374.813
374.798
374.783
374.769
374.755
374.742
374.729
374.717
374.705
374.694
374.683
374.672
374.661
374.651
374.64
374.63
374.62
374.609
374.599
374.589
374.579
374.568
374.558
374.548
374.538
374.528
374.518
374.508
374.498
374.488
374.479
374.47
374.461
374.451
374.444
374.432
375.001
374.991
374.98
374.99
375.011
375.037
375.071
375.107
375.143
375.183
375.224
375.267
375.309
375.35
375.39
375.427
375.458
375.484
375.503
375.517
375.524
375.523
375.517
375.505
375.489
375.471
375.449
375.426
375.402
375.378
375.354
375.332
375.31
375.288
375.269
375.252
375.234
375.22
375.205
375.189
375.173
375.157
375.14
375.123
375.106
375.088
375.069
375.048
375.026
375.003
374.979
374.956
374.931
374.908
374.885
374.861
374.837
374.816
374.799
374.783
374.769
374.756
374.744
374.733
374.722
374.712
374.702
374.691
374.681
374.672
374.663
374.654
374.645
374.636
374.628
374.619
374.611
374.602
374.594
374.585
374.577
374.568
374.559
374.55
374.541
374.532
374.523
374.514
374.505
374.496
374.487
374.478
374.469
374.461
374.453
374.444
374.437
374.428
374.422
374.411
374.281
374.375
374.452
374.519
374.574
374.618
374.665
374.703
374.728
374.76
374.79
374.822
374.852
374.879
374.902
374.919
374.928
374.934
374.933
374.926
374.91
374.888
374.863
374.838
374.813
374.788
374.763
374.743
374.723
374.706
374.693
374.684
374.675
374.671
374.667
374.663
374.664
374.674
374.68
374.681
374.681
374.682
374.679
374.678
374.678
374.676
374.671
374.663
374.653
374.642
374.632
374.62
374.606
374.593
374.58
374.568
374.556
374.547
374.542
374.538
374.535
374.532
374.53
374.529
374.526
374.524
374.521
374.517
374.514
374.511
374.507
374.504
374.501
374.497
374.494
374.49
374.486
374.482
374.477
374.472
374.467
374.462
374.456
374.45
374.444
374.438
374.431
374.425
374.418
374.412
374.405
374.399
374.393
374.387
374.381
374.375
374.37
374.364
374.36
374.352
372.759
372.88
373.028
373.144
373.244
373.329
373.405
373.468
373.522
373.566
373.599
373.628
373.643
373.657
373.659
373.656
373.644
373.631
373.613
373.596
373.584
373.584
373.584
373.587
373.586
373.589
373.593
373.599
373.605
373.612
373.623
373.633
373.641
373.663
373.673
373.687
373.701
373.726
373.743
373.758
373.774
373.794
373.816
373.842
373.867
373.891
373.912
373.933
373.952
373.97
373.99
374.006
374.016
374.026
374.038
374.052
374.066
374.081
374.096
374.112
374.126
374.14
374.153
374.165
374.176
374.185
374.194
374.202
374.209
374.216
374.223
374.229
374.235
374.24
374.245
374.249
374.253
374.256
374.258
374.26
374.261
374.262
374.262
374.261
374.261
374.26
374.258
374.257
374.255
374.253
374.251
374.249
374.248
374.245
374.244
374.242
374.241
374.239
374.237
374.234
371.938
372
372.071
372.126
372.176
372.227
372.284
372.341
372.404
372.464
372.526
372.584
372.642
372.698
372.75
372.8
372.846
372.892
372.935
372.977
373.016
373.052
373.085
373.115
373.143
373.167
373.19
373.21
373.228
373.242
373.263
373.271
373.285
373.3
373.305
373.314
373.32
373.329
373.327
373.325
373.323
373.32
373.318
373.318
373.315
373.315
373.315
373.319
373.321
373.325
373.327
373.328
373.347
373.357
373.358
373.361
373.374
373.393
373.416
373.439
373.464
373.49
373.517
373.545
373.573
373.602
373.63
373.658
373.686
373.713
373.74
373.765
373.789
373.811
373.831
373.85
373.868
373.883
373.898
373.91
373.922
373.932
373.941
373.95
373.958
373.965
373.972
373.978
373.984
373.99
373.995
374
374.006
374.01
374.015
374.02
374.024
374.028
374.032
374.037
371.839
371.883
371.924
371.958
371.984
372.017
372.062
372.117
372.182
372.251
372.322
372.393
372.463
372.53
372.595
372.658
372.719
372.776
372.831
372.882
372.929
372.974
373.012
373.05
373.082
373.11
373.139
373.16
373.181
373.201
373.219
373.229
373.247
373.258
373.265
373.273
373.279
373.276
373.272
373.268
373.264
373.259
373.252
373.241
373.23
373.218
373.206
373.197
373.183
373.171
373.156
373.142
373.134
373.128
373.121
373.118
373.118
373.118
373.118
373.119
373.12
373.122
373.125
373.128
373.132
373.136
373.142
373.151
373.161
373.174
373.189
373.206
373.225
373.245
373.267
373.29
373.313
373.337
373.361
373.385
373.409
373.432
373.455
373.478
373.5
373.521
373.541
373.561
373.58
373.599
373.616
373.633
373.649
373.664
373.678
373.693
373.705
373.72
373.727
373.745
371.951
371.97
372.001
372.028
372.056
372.096
372.141
372.192
372.245
372.302
372.361
372.422
372.484
372.546
372.609
372.669
372.728
372.783
372.836
372.885
372.93
372.973
373.008
373.046
373.076
373.102
373.131
373.149
373.169
373.19
373.2
373.216
373.231
373.237
373.245
373.254
373.256
373.255
373.244
373.24
373.239
373.234
373.229
373.217
373.203
373.192
373.181
373.172
373.16
373.148
373.136
373.126
373.118
373.113
373.107
373.103
373.101
373.098
373.095
373.091
373.088
373.083
373.077
373.072
373.066
373.063
373.059
373.057
373.053
373.05
373.045
373.042
373.039
373.036
373.035
373.037
373.038
373.044
373.048
373.055
373.059
373.068
373.074
373.084
373.091
373.103
373.112
373.127
373.138
373.156
373.168
373.188
373.201
373.222
373.236
373.259
373.273
373.298
373.314
373.339
372.032
372.046
372.08
372.115
372.149
372.181
372.216
372.255
372.299
372.349
372.402
372.458
372.512
372.568
372.622
372.673
372.726
372.775
372.825
372.869
372.915
372.951
372.986
373.018
373.041
373.07
373.088
373.107
373.126
373.14
373.153
373.166
373.179
373.185
373.197
373.205
373.207
373.208
373.203
373.199
373.197
373.191
373.191
373.184
373.172
373.159
373.145
373.136
373.126
373.117
373.109
373.102
373.096
373.091
373.086
373.083
373.081
373.077
373.075
373.072
373.069
373.066
373.06
373.057
373.052
373.048
373.046
373.038
373.035
373.036
373.035
373.032
373.031
373.024
373.021
373.018
373.019
373.014
373.016
373.018
373.017
373.017
373.016
373.015
373.014
373.013
373.013
373.013
373.013
373.014
373.014
373.015
373.017
373.02
373.021
373.025
373.028
373.032
373.036
373.042
372.085
372.104
372.13
372.162
372.196
372.225
372.258
372.29
372.33
372.374
372.423
372.474
372.523
372.575
372.621
372.67
372.714
372.758
372.801
372.84
372.879
372.91
372.945
372.972
372.998
373.027
373.042
373.07
373.082
373.102
373.118
373.132
373.15
373.157
373.177
373.181
373.186
373.186
373.187
373.187
373.185
373.183
373.181
373.178
373.168
373.155
373.14
373.128
373.118
373.11
373.102
373.095
373.09
373.085
373.081
373.079
373.077
373.075
373.073
373.071
373.069
373.066
373.061
373.058
373.054
373.047
373.045
373.046
373.045
373.043
373.039
373.038
373.031
373.028
373.025
373.023
373.022
373.024
373.024
373.022
373.02
373.019
373.017
373.016
373.015
373.014
373.014
373.013
373.012
373.011
373.01
373.009
373.008
373.006
373.005
373.004
373.002
372.999
372.997
372.996
372.124
372.142
372.18
372.191
372.217
372.252
372.284
372.313
372.346
372.384
372.429
372.476
372.525
372.573
372.618
372.664
372.706
372.749
372.788
372.826
372.86
372.893
372.926
372.954
372.982
373.007
373.027
373.052
373.063
373.087
373.096
373.116
373.128
373.142
373.157
373.166
373.17
373.168
373.173
373.177
373.173
373.175
373.176
373.175
373.17
373.161
373.149
373.136
373.124
373.114
373.105
373.097
373.092
373.087
373.083
373.08
373.078
373.076
373.074
373.073
373.071
373.07
373.068
373.066
373.064
373.061
373.058
373.055
373.052
373.048
373.045
373.043
373.037
373.035
373.035
373.037
373.035
373.033
373.03
373.028
373.025
373.024
373.022
373.021
373.021
373.02
373.02
373.019
373.019
373.018
373.017
373.016
373.015
373.013
373.012
373.01
373.008
373.006
373.004
373.003
372.158
372.178
372.226
372.24
372.245
372.27
372.302
372.337
372.373
372.41
372.451
372.492
372.538
372.58
372.626
372.669
372.709
372.749
372.784
372.82
372.852
372.887
372.917
372.947
372.975
372.999
373.023
373.042
373.059
373.076
373.087
373.104
373.115
373.127
373.142
373.154
373.161
373.161
373.166
373.175
373.176
373.18
373.182
373.182
373.181
373.178
373.169
373.157
373.143
373.132
373.12
373.111
373.105
373.1
373.095
373.092
373.09
373.088
373.086
373.081
373.08
373.081
373.078
373.079
373.078
373.075
373.073
373.07
373.064
373.062
373.061
373.063
373.061
373.058
373.053
373.049
373.044
373.04
373.035
373.032
373.029
373.027
373.025
373.023
373.022
373.021
373.021
373.02
373.019
373.018
373.017
373.016
373.015
373.014
373.013
373.011
373.011
373.01
373.011
373.006
372.198
372.217
372.27
372.285
372.304
372.31
372.336
372.374
372.41
372.444
372.481
372.523
372.57
372.613
372.654
372.689
372.723
372.757
372.787
372.823
372.855
372.89
372.922
372.952
372.982
373.003
373.028
373.044
373.061
373.077
373.087
373.102
373.113
373.124
373.14
373.155
373.166
373.17
373.189
373.2
373.199
373.205
373.207
373.211
373.21
373.209
373.205
373.197
373.186
373.174
373.164
373.155
373.149
373.143
373.139
373.136
373.134
373.131
373.128
373.125
373.122
373.118
373.114
373.11
373.105
373.1
373.096
373.091
373.086
373.081
373.075
373.071
373.065
373.061
373.056
373.051
373.046
373.042
373.037
373.033
373.03
373.027
373.024
373.022
373.02
373.019
373.018
373.018
373.018
373.017
373.017
373.017
373.017
373.016
373.016
373.015
373.014
373.012
373.011
373.006
372.265
372.274
372.329
372.356
372.371
372.4
372.406
372.433
372.464
372.503
372.542
372.579
372.612
372.642
372.674
372.706
372.739
372.776
372.809
372.848
372.879
372.912
372.943
372.97
372.997
373.017
373.044
373.057
373.078
373.09
373.103
373.121
373.129
373.148
373.162
373.178
373.191
373.204
373.23
373.23
373.232
373.239
373.242
373.248
373.247
373.248
373.246
373.243
373.236
373.228
373.219
373.21
373.202
373.193
373.184
373.173
373.164
373.153
373.144
373.135
373.128
373.121
373.114
373.108
373.102
373.097
373.092
373.088
373.083
373.079
373.074
373.07
373.066
373.062
373.058
373.054
373.05
373.045
373.041
373.038
373.033
373.029
373.025
373.022
373.018
373.014
373.011
373.009
373.006
373.004
373.002
373
372.999
372.997
372.996
372.994
372.993
372.992
372.99
372.988
372.337
372.345
372.37
372.423
372.465
372.476
372.508
372.506
372.526
372.57
372.61
372.647
372.674
372.699
372.724
372.753
372.783
372.817
372.848
372.882
372.909
372.938
372.962
372.987
373.011
373.034
373.057
373.077
373.097
373.114
373.133
373.149
373.162
373.179
373.193
373.202
373.217
373.233
373.235
373.235
373.246
373.26
373.259
373.261
373.261
373.258
373.258
373.257
373.256
373.255
373.25
373.243
373.235
373.224
373.211
373.195
373.179
373.164
373.149
373.138
373.127
373.12
373.112
373.107
373.101
373.098
373.094
373.091
373.087
373.084
373.08
373.076
373.072
373.067
373.063
373.059
373.055
373.051
373.047
373.043
373.039
373.036
373.032
373.029
373.027
373.024
373.023
373.021
373.02
373.02
373.019
373.019
373.018
373.017
373.016
373.015
373.014
373.012
373.011
373.009
372.409
372.415
372.43
372.465
372.499
372.525
372.542
372.561
372.581
372.611
372.639
372.668
372.695
372.728
372.761
372.797
372.826
372.853
372.879
372.907
372.929
372.952
372.975
372.997
373.023
373.047
373.073
373.096
373.116
373.132
373.147
373.161
373.173
373.187
373.198
373.206
373.223
373.235
373.235
373.242
373.253
373.255
373.253
373.254
373.254
373.254
373.255
373.255
373.252
373.247
373.244
373.241
373.237
373.228
373.214
373.2
373.184
373.172
373.159
373.151
373.142
373.137
373.13
373.126
373.121
373.118
373.114
373.111
373.106
373.102
373.097
373.091
373.085
373.079
373.073
373.067
373.061
373.056
373.051
373.047
373.043
373.039
373.036
373.032
373.029
373.027
373.024
373.023
373.021
373.02
373.019
373.019
373.018
373.018
373.017
373.016
373.016
373.014
373.014
373.012
372.484
372.485
372.493
372.506
372.551
372.581
372.619
372.666
372.683
372.684
372.703
372.725
372.756
372.796
372.847
372.902
372.925
372.922
372.926
372.941
372.955
372.974
372.998
373.021
373.048
373.077
373.101
373.118
373.134
373.146
373.159
373.169
373.181
373.191
373.199
373.21
373.217
373.219
373.224
373.232
373.23
373.226
373.225
373.222
373.22
373.221
373.219
373.211
373.2
373.187
373.183
373.18
373.182
373.18
373.175
373.171
373.166
373.163
373.16
373.158
373.155
373.151
373.145
373.139
373.133
373.127
373.122
373.117
373.112
373.107
373.102
373.096
373.09
373.084
373.077
373.071
373.065
373.06
373.055
373.051
373.047
373.044
373.041
373.038
373.036
373.033
373.031
373.028
373.027
373.025
373.023
373.022
373.021
373.02
373.019
373.017
373.017
373.015
373.014
373.012
372.549
372.573
372.577
372.575
372.589
372.616
372.642
372.671
372.697
372.714
372.74
372.756
372.795
372.829
372.867
372.901
372.917
372.929
372.942
372.965
372.99
373.019
373.048
373.075
373.096
373.12
373.136
373.154
373.166
373.179
373.188
373.194
373.202
373.205
373.209
373.212
373.219
373.217
373.223
373.215
373.207
373.204
373.196
373.186
373.179
373.169
373.158
373.153
373.144
373.14
373.132
373.132
373.139
373.135
373.137
373.136
373.134
373.127
373.123
373.12
373.119
373.12
373.117
373.109
373.102
373.093
373.087
373.082
373.075
373.068
373.065
373.065
373.066
373.065
373.061
373.057
373.053
373.05
373.047
373.045
373.043
373.041
373.04
373.038
373.036
373.034
373.032
373.03
373.028
373.026
373.025
373.022
373.021
373.018
373.016
373.014
373.012
373.01
373.007
373.005
372.612
372.622
372.657
372.656
372.65
372.658
372.689
372.717
372.752
372.784
372.807
372.822
372.853
372.873
372.901
372.945
372.962
372.962
372.974
372.995
373.024
373.052
373.08
373.104
373.119
373.13
373.14
373.16
373.178
373.195
373.213
373.224
373.235
373.24
373.242
373.241
373.245
373.232
373.22
373.207
373.188
373.18
373.165
373.156
373.152
373.143
373.136
373.13
373.123
373.116
373.118
373.116
373.118
373.119
373.118
373.114
373.109
373.106
373.099
373.099
373.099
373.103
373.102
373.094
373.085
373.075
373.065
373.058
373.052
373.047
373.043
373.04
373.038
373.035
373.033
373.031
373.027
373.026
373.025
373.024
373.023
373.025
373.023
373.024
373.025
373.024
373.023
373.022
373.021
373.019
373.018
373.017
373.015
373.013
373.012
373.01
373.008
373.006
373.004
373.002
372.66
372.673
372.72
372.707
372.707
372.71
372.736
372.76
372.792
372.838
372.865
372.9
372.899
372.914
372.943
372.977
373.013
373.02
373.011
373.02
373.04
373.064
373.09
373.104
373.122
373.123
373.122
373.135
373.148
373.165
373.184
373.201
373.208
373.215
373.211
373.211
373.214
373.21
373.196
373.178
373.167
373.154
373.145
373.137
373.134
373.131
373.125
373.122
373.113
373.106
373.103
373.1
373.097
373.095
373.095
373.095
373.098
373.097
373.09
373.081
373.077
373.067
373.066
373.07
373.066
373.059
373.048
373.039
373.033
373.028
373.024
373.021
373.018
373.016
373.014
373.012
373.011
373.009
373.008
373.006
373.006
373.004
373.002
373
372.998
372.996
372.994
372.992
372.991
372.989
372.988
372.986
372.985
372.983
372.983
372.983
372.985
372.983
372.985
372.984
372.713
372.731
372.748
372.767
372.767
372.759
372.766
372.79
372.833
372.872
372.893
372.911
372.929
372.936
372.971
372.997
373.017
373.02
373.017
373.026
373.045
373.075
373.095
373.115
373.131
373.134
373.137
373.136
373.135
373.134
373.127
373.124
373.123
373.121
373.12
373.12
373.117
373.117
373.107
373.111
373.111
373.108
373.107
373.108
373.114
373.111
373.112
373.115
373.112
373.102
373.097
373.087
373.079
373.077
373.074
373.073
373.071
373.061
373.05
373.041
373.028
373.022
373.013
373.015
373.019
373.017
373.023
373.021
373.023
373.022
373.019
373.016
373.014
373.012
373.01
373.009
373.008
373.007
373.004
373.004
373.004
373.004
373.002
373
372.998
372.996
372.994
372.992
372.99
372.989
372.988
372.987
372.986
372.985
372.984
372.983
372.983
372.982
372.98
372.979
372.768
372.784
372.8
372.823
372.819
372.811
372.808
372.817
372.854
372.885
372.907
372.924
372.935
372.946
372.981
373.008
373.049
373.065
373.078
373.068
373.065
373.055
373.062
373.074
373.084
373.096
373.099
373.099
373.101
373.098
373.094
373.09
373.087
373.085
373.086
373.084
373.079
373.079
373.076
373.074
373.071
373.069
373.059
373.058
373.051
373.053
373.044
373.047
373.044
373.047
373.048
373.04
373.03
373.028
373.027
373.026
373.024
373.018
373.017
373.014
373.003
372.998
372.993
372.995
372.997
372.999
372.999
373.001
373.003
373.002
373.001
372.999
372.998
372.997
372.996
372.995
372.994
372.993
372.991
372.991
372.992
372.993
372.993
372.992
372.989
372.988
372.985
372.983
372.981
372.98
372.978
372.978
372.977
372.976
372.976
372.976
372.976
372.976
372.976
372.975
372.821
372.835
372.85
372.852
372.859
372.853
372.856
372.843
372.855
372.874
372.91
372.933
372.945
372.953
372.976
373.005
373.037
373.062
373.062
373.056
373.047
373.044
373.035
373.044
373.052
373.055
373.057
373.058
373.055
373.052
373.051
373.049
373.049
373.047
373.047
373.049
373.042
373.041
373.038
373.032
373.036
373.033
373.022
373.017
373.012
373.013
373.009
373.01
373.01
373.01
373.009
373.007
373.004
373.003
373.005
373.006
373.005
373.004
373.005
373.006
373.006
373.001
372.997
372.995
372.995
372.996
372.997
372.999
372.998
372.997
372.994
372.992
372.99
372.989
372.989
372.989
372.988
372.987
372.986
372.984
372.984
372.983
372.982
372.982
372.982
372.983
372.982
372.979
372.978
372.976
372.974
372.973
372.971
372.971
372.971
372.971
372.972
372.973
372.973
372.973
372.884
372.896
372.891
372.887
372.896
372.897
372.905
372.918
372.905
372.899
372.918
372.947
372.961
372.967
372.974
372.982
372.991
372.998
373.014
373.021
373.031
373.028
373.029
373.025
373.024
373.024
373.022
373.019
373.015
373.014
373.014
373.012
373.011
373.012
373.012
373.01
373.009
373.006
373.001
373.001
373.007
373.004
373.001
372.999
373.001
373.002
373
373
373
373
372.998
373
372.999
373
373.002
373.002
373.002
373.005
373.008
373.009
373.011
373.01
373.004
373.001
373
373
373.001
373.001
373.003
373.005
373.003
373.001
372.999
372.999
372.999
372.997
372.996
372.995
372.994
372.993
372.991
372.989
372.989
372.988
372.988
372.989
372.988
372.989
372.989
372.989
372.988
372.986
372.985
372.984
372.984
372.984
372.985
372.986
372.986
372.987
372.919
372.913
372.935
372.923
372.924
372.929
372.935
372.941
372.936
372.934
372.939
372.937
372.947
372.951
372.954
372.962
372.975
372.987
372.996
373.001
373.003
373.003
373.003
373.003
373.001
373
372.998
372.998
372.998
372.998
372.998
372.997
372.995
373
372.999
372.998
372.997
372.994
372.994
372.994
372.995
372.995
372.996
372.997
372.999
372.999
373
372.998
372.999
373.001
373.002
373.002
373.005
373.006
373.007
373.008
373.008
373.009
373.013
373.012
373.016
373.016
373.012
373.009
373.009
373.008
373.007
373.006
373.006
373.007
373.007
373.006
373.006
373.006
373.005
373.005
373.006
373.003
373.004
373.004
373.004
373.004
373.003
373.001
373
373.001
373
373
372.999
372.999
373
372.999
372.998
372.997
372.997
372.996
372.996
372.996
372.996
372.996
372.973
372.975
372.986
372.98
372.98
372.981
372.981
372.982
372.984
372.979
372.982
372.973
372.969
372.967
372.959
372.961
372.973
372.987
372.992
372.996
372.995
372.995
372.995
372.995
372.995
372.993
372.991
372.991
372.99
372.99
372.99
372.99
372.989
372.991
372.989
372.99
372.99
372.99
372.99
372.992
372.992
372.992
372.994
372.995
372.997
372.996
372.999
372.998
373.002
373.004
373.008
373.008
373.01
373.011
373.012
373.013
373.013
373.014
373.015
373.015
373.017
373.016
373.014
373.014
373.012
373.011
373.011
373.01
373.01
373.011
373.011
373.01
373.01
373.01
373.01
373.01
373.009
373.008
373.008
373.008
373.008
373.008
373.007
373.007
373.006
373.007
373.005
373.005
373.004
373.004
373.004
373.003
373.003
373.002
373.002
373.001
373.001
373.002
373.002
373.002
371.888
371.886
371.851
371.875
371.92
371.968
371.986
371.983
371.93
371.833
372.022
371.974
371.933
371.946
371.938
371.97
372.004
372.034
372.034
371.945
372.14
372.007
372
372.01
371.985
371.999
372.026
372.044
372.07
372.028
372.171
372.082
372.087
372.099
372.073
372.063
372.067
372.068
372.082
372.07
372.21
372.191
372.196
372.183
372.151
372.13
372.126
372.099
372.106
372.095
372.292
372.286
372.289
372.255
372.237
372.203
372.198
372.17
372.158
372.127
372.38
372.371
372.361
372.327
372.317
372.284
372.276
372.247
372.233
372.183
372.447
372.439
372.423
372.393
372.386
372.362
372.351
372.321
372.31
372.259
372.508
372.5
372.482
372.456
372.451
372.433
372.418
372.386
372.377
372.332
372.569
372.557
372.543
372.515
372.511
372.499
372.485
372.453
372.445
372.407
372.623
372.601
372.594
372.57
372.562
372.553
372.537
372.511
372.506
372.477
372.673
372.648
372.643
372.626
372.611
372.605
372.599
372.569
372.56
372.543
372.72
372.703
372.691
372.68
372.668
372.652
372.647
372.627
372.617
372.597
372.76
372.751
372.743
372.724
372.72
372.705
372.692
372.682
372.676
372.653
372.795
372.786
372.785
372.772
372.766
372.764
372.742
372.733
372.727
372.712
372.843
372.828
372.828
372.816
372.811
372.804
372.797
372.773
372.771
372.768
372.887
372.88
372.879
372.878
372.864
372.853
372.848
372.825
372.826
372.821
372.915
372.908
372.908
372.907
372.889
372.89
372.889
372.884
372.889
372.87
372.936
372.922
372.924
372.925
372.907
372.917
372.914
372.917
372.917
372.902
372.977
372.969
372.977
372.975
372.972
372.98
372.979
372.975
372.973
372.968
373.356
373.405
373.366
373.276
373.071
372.848
372.628
372.261
371.657
370.981
373.077
373.064
372.984
372.843
372.718
372.483
372.113
371.613
370.847
370.188
372.794
372.781
372.721
372.522
372.252
371.97
371.566
370.984
370.197
369.45
372.53
372.489
372.379
372.211
371.925
371.643
371.202
370.538
369.494
369.19
372.291
372.223
372.126
371.944
371.619
371.214
370.666
370.073
369.105
368.357
372.108
372.043
371.886
371.666
371.364
371.092
370.481
369.838
368.791
368.185
371.912
371.838
371.76
371.559
371.132
370.819
370.277
369.448
368.561
368.207
371.824
371.589
371.549
371.383
370.999
370.728
370.22
369.486
368.706
368.234
371.785
371.624
371.539
371.357
371.002
370.718
370.235
369.6
368.73
368.897
371.736
371.675
371.583
371.422
371.082
370.806
370.388
369.768
369.178
369.666
375.298
375.486
375.627
375.851
376.021
376.285
376.473
376.768
376.945
377.001
375.269
375.442
375.58
375.779
375.941
376.17
376.351
376.591
376.776
376.802
375.202
375.37
375.519
375.701
375.866
376.074
376.245
376.451
376.596
376.576
375.06
375.214
375.357
375.536
375.678
375.867
376.028
376.185
376.243
376.185
374.89
375.039
375.144
375.315
375.452
375.595
375.683
375.804
375.786
375.668
374.709
374.768
374.894
374.98
375.096
375.237
375.318
375.32
375.253
375.043
374.549
374.576
374.636
374.725
374.75
374.821
374.835
374.789
374.64
374.322
374.266
374.266
374.305
374.355
374.348
374.34
374.324
374.202
373.972
373.514
374.031
374.063
374.006
374.003
373.962
373.884
373.752
373.561
373.201
372.687
373.662
373.739
373.675
373.587
373.516
373.436
373.261
372.898
372.409
371.809
373
373
373
373
373
373
373
373
373
373.001
373.001
373.001
373.001
373.001
373.001
373.002
373.002
373.002
373.003
373.003
373.003
373.004
373.004
373.005
373.005
373.006
373.006
373.007
373.007
373.008
373.009
373.01
373.011
373.012
373.013
373.014
373.015
373.017
373.018
373.019
373.021
373.023
373.024
373.027
373.029
373.031
373.033
373.037
373.039
373.043
373.045
373.05
373.053
373.058
373.062
373.068
373.072
373.079
373.083
373.092
373.096
373.106
373.112
373.123
373.13
373.143
373.151
373.166
373.175
373.192
373.203
373.223
373.235
373.258
373.272
373.299
373.315
373.346
373.364
373.401
373.422
373.465
373.49
373.54
373.568
373.628
373.661
373.731
373.773
373.856
373.906
374.007
374.07
374.194
374.273
374.43
374.533
374.735
374.876
375.139
373
373
373
373
373
373
373
373
373
373.001
373.001
373.001
373.001
373.001
373.001
373.002
373.002
373.002
373.003
373.003
373.003
373.004
373.004
373.005
373.005
373.006
373.006
373.007
373.007
373.008