/*--------------------------------*- C++ -*----------------------------------*\
  =========                 |
  \\      /  F ield         | OpenFOAM: The Open Source CFD Toolbox
   \\    /   O peration     | Website:  https://openfoam.org
    \\  /    A nd           | Version:  8
     \\/     M anipulation  |
\*---------------------------------------------------------------------------*/
FoamFile
{
    version     2.0;
    format      ascii;
    class       volVectorField;
    location    "19.5000376192658642";
    object      U;
}
// * * * * * * * * * * * * * * * * * * * * * * * * * * * * * * * * * * * * * //

dimensions      [0 1 -1 0 0 0 0];

internalField   nonuniform List<vector> 
6800
(
(-28.0384 19.3564 -3.4446e-15)
(2.9978 -0.252044 0)
(35.3587 -2.16403 2.83951e-15)
(69.9254 -0.899763 -2.74487e-15)
(110.835 1.33359 -4.38139e-19)
(134.798 2.82013 -2.51247e-19)
(143.752 4.09668 -1.28819e-15)
(146.63 5.12494 1.19405e-15)
(147.636 5.06875 0)
(147.542 4.62493 -5.20747e-16)
(-30.6799 15.3393 9.49327e-15)
(34.136 -3.26811 -2.09995e-15)
(67.9317 -1.45351 0)
(114.192 1.39061 0)
(138.909 4.45852 0)
(146.051 5.7491 6.31973e-16)
(148.125 6.10429 -6.27179e-16)
(148.383 6.21737 1.37864e-15)
(148.134 6.06615 5.60398e-16)
(147.681 5.44451 -7.10876e-16)
(-35.0851 14.5017 -4.74684e-15)
(65.3496 -5.05825 -1.97259e-15)
(112.483 3.61649 0)
(139.059 4.17312 -1.55637e-15)
(147.622 6.31184 -6.7461e-16)
(149.254 6.79158 -6.8758e-19)
(149.309 7.14502 1.03961e-15)
(148.765 7.09214 -1.2544e-15)
(147.986 6.90748 1.09984e-15)
(146.393 7.24411 -1.11823e-15)
(-4.47359 11.9901 5.78652e-15)
(95.4399 -3.58322 -5.62135e-18)
(138.639 9.43188 0)
(147.516 6.31687 7.07442e-16)
(150.296 7.70834 -2.11064e-19)
(150.408 8.36074 6.67055e-16)
(149.748 8.01401 0)
(148.318 8.54319 9.75986e-16)
(147.071 8.04066 3.56055e-19)
(145.955 8.10864 0)
(31.3133 46.4271 1.58763e-15)
(125.238 -0.768752 4.60083e-16)
(147.463 13.6855 4.01505e-16)
(150.742 8.33056 7.30101e-16)
(151.157 9.51876 -4.14218e-16)
(150.735 9.16843 3.69767e-16)
(149.373 9.87884 -4.7449e-16)
(147.911 9.28535 1.29075e-15)
(146.886 8.81654 -1.76004e-15)
(145.851 9.11994 -2.05636e-15)
(93.1511 27.6905 -1.93505e-15)
(134.014 -11.6797 4.32493e-16)
(150.432 11.3974 -3.85987e-16)
(152.207 7.0638 4.16658e-16)
(151.763 9.1772 -9.17425e-16)
(150.972 9.69002 6.92364e-16)
(149.323 10.147 0)
(147.932 10.9437 -6.75018e-16)
(146.962 10.6732 3.31813e-16)
(146.138 11.2445 2.57304e-16)
(103.771 23.1224 0)
(144.563 -12.5369 4.16587e-16)
(155.489 12.3321 4.23547e-16)
(155.726 8.3 4.3815e-20)
(153.33 12.0611 -3.18977e-16)
(151.866 10.9609 3.57137e-16)
(149.923 12.8733 3.53859e-16)
(148.376 12.3381 3.50467e-16)
(147.195 12.4316 -1.3868e-15)
(146.259 12.0676 1.48808e-15)
(138.714 22.9888 2.78599e-16)
(158.085 -14.6489 -4.06524e-16)
(159.317 13.0482 -4.18041e-16)
(158.584 7.70667 -5.33982e-16)
(154.224 13.2981 1.07695e-15)
(153.029 12.4329 -3.70256e-16)
(150.857 14.0938 -3.44172e-16)
(149.118 14.7459 2.69138e-16)
(147.419 14.6508 -5.36372e-16)
(146.09 15.428 -4.07912e-16)
(147.545 28.3253 -1.19017e-16)
(165.22 -8.55137 1.01438e-16)
(164.025 16.9019 0)
(162.278 10.9479 1.61082e-16)
(156.466 17.4174 0)
(154.204 15.0245 -2.87974e-16)
(151.253 17.234 2.19298e-16)
(149.307 16.4294 0)
(147.666 16.1626 -9.42729e-17)
(146.377 16.9585 2.75756e-16)
(169.168 36.6904 0)
(176.417 -5.74659 -9.87782e-17)
(168.639 23.4313 -4.03736e-17)
(164.23 14.5382 4.69316e-17)
(157.875 20.8342 1.23909e-31)
(154.897 18.8191 -7.03962e-17)
(151.132 19.9336 9.94125e-17)
(149.102 19.1318 1.07361e-16)
(147.437 18.3147 1.6799e-16)
(146.249 18.801 -4.99668e-16)
(-5.93558 2.69645 0)
(-8.85197 1.88873 -2.49388e-16)
(-11.6628 1.45877 0)
(-14.1866 1.20223 0)
(-16.1384 1.05529 0)
(-17.7296 0.945951 1.20254e-16)
(-19.0583 0.851934 -1.18174e-16)
(-20.1567 0.754751 -1.16286e-16)
(-21.0335 0.655355 2.28211e-16)
(-21.7096 0.560653 1.45457e-20)
(-6.0311 6.91458 1.11036e-15)
(-8.78906 5.2625 3.60808e-16)
(-11.3633 4.15358 0)
(-13.587 3.49046 3.7397e-16)
(-15.2825 3.03116 0)
(-16.6018 2.70066 -1.62195e-16)
(-17.6364 2.41408 1.57266e-16)
(-18.412 2.11004 0)
(-18.8942 1.79286 -1.47613e-16)
(-19.0865 1.46777 4.44816e-16)
(-6.76177 10.9906 -1.61511e-15)
(-8.75526 8.47899 -1.48461e-15)
(-10.7819 6.6475 9.41573e-16)
(-12.3795 5.5823 -1.1861e-15)
(-13.4907 4.85216 -7.25803e-16)
(-14.2382 4.28764 6.47273e-16)
(-14.6157 3.83652 6.44762e-20)
(-14.7201 3.27298 -1.34817e-15)
(-14.3907 2.65527 2.64619e-15)
(-13.4925 2.04562 -1.1029e-15)
(-7.73488 14.7274 0)
(-8.85267 10.9188 1.59908e-15)
(-9.84923 8.7213 -1.01404e-15)
(-10.5728 7.27508 1.7142e-15)
(-10.8023 6.30546 -7.97288e-16)
(-10.6385 5.55395 7.77785e-16)
(-10.0812 4.85382 7.74209e-16)
(-9.13001 4.01641 7.7583e-16)
(-7.52498 2.96266 1.77928e-19)
(-4.67287 1.91529 -8.32818e-16)
(-8.72036 17.415 3.9802e-19)
(-8.81949 12.6477 -1.8075e-15)
(-8.5865 10.148 1.03868e-15)
(-8.20337 8.4121 -9.61489e-16)
(-7.19123 7.21703 9.1159e-16)
(-5.65539 6.30522 -1.81943e-15)
(-3.52998 5.45875 0)
(-1.10489 4.39099 -1.88656e-15)
(2.335 2.72565 9.42952e-16)
(8.65547 1.06685 4.70242e-15)
(-9.97048 18.9736 2.78328e-15)
(-8.91901 13.4595 5.94314e-15)
(-7.40501 10.6331 -1.07887e-15)
(-5.41912 8.69647 -2.25328e-15)
(-2.59836 7.30491 5.54552e-15)
(1.11344 6.29921 -3.22222e-15)
(5.17979 5.51084 0)
(10.6154 4.45632 -1.09017e-15)
(17.5186 2.04142 -2.01608e-19)
(31.2754 -0.371785 -9.34877e-16)
(-11.202 19.8373 5.61726e-15)
(-9.55975 13.0629 -6.24581e-19)
(-6.20697 10.1674 0)
(-1.91192 7.8924 2.83989e-15)
(4.03223 6.31486 5.33828e-15)
(10.425 5.46088 -2.56861e-15)
(19.301 4.47424 0)
(31.1093 3.84421 -4.41869e-15)
(43.1458 0.943359 8.54561e-15)
(66.5798 -0.818624 0)
(-13.4003 19.804 -4.97984e-15)
(-10.5161 11.6399 -6.38316e-15)
(-4.4615 8.40661 3.62539e-15)
(4.54437 5.71517 4.77893e-19)
(14.1929 4.38426 -6.30325e-15)
(27.1322 3.60125 0)
(43.4866 1.91872 -2.01909e-15)
(64.7721 2.43917 0)
(80.9704 -0.290246 -2.17999e-15)
(110.529 -0.735444 1.83531e-15)
(-16.8283 20.317 2.72327e-15)
(-11.3393 8.94649 0)
(1.49796 5.04287 0)
(15.7668 2.67307 0)
(33.4721 1.78751 0)
(55.5548 1.90564 1.60984e-15)
(81.7492 0.971995 3.33011e-15)
(107.62 0.779421 -1.54481e-15)
(127.695 -0.57209 -1.84398e-15)
(140.029 1.08438 2.39186e-15)
(-21.1406 20.0815 -3.57117e-15)
(-10.1202 4.9999 0)
(14.96 0.8844 -4.15676e-15)
(36.7841 -0.138289 5.08053e-15)
(65.3266 0.785476 1.39198e-19)
(98.0544 1.09542 -1.87101e-15)
(126.445 1.01461 1.37926e-15)
(138.978 1.9736 -1.24623e-15)
(144.553 2.80094 0)
(146.76 3.8668 -5.83962e-16)
(-22.5041 0.432717 -1.00228e-16)
(-23.2279 0.22695 0)
(-23.4867 0.083771 0)
(-23.4525 -0.0817588 0)
(-23.02 -0.229832 0)
(-22.284 -0.366055 0)
(-21.2448 -0.493202 -2.73011e-18)
(-19.9352 -0.607152 8.58474e-17)
(-18.368 -0.712817 -8.17219e-17)
(-16.5596 -0.813555 0)
(-14.5337 -0.903953 2.56351e-18)
(-12.3062 -0.991911 2.53353e-18)
(-9.89887 -1.0768 2.4875e-18)
(-7.3613 -1.13526 2.46489e-18)
(-4.67395 -1.17367 2.42806e-18)
(-1.97552 -1.20191 0)
(0.934065 -1.242 -7.49626e-17)
(3.83415 -1.26668 2.34346e-18)
(6.83122 -1.28795 7.97696e-17)
(9.84591 -1.29444 2.41846e-18)
(12.8591 -1.29078 0)
(15.8575 -1.27999 2.41684e-18)
(18.8241 -1.26308 -7.50211e-17)
(21.7462 -1.241 7.99802e-17)
(24.613 -1.21468 2.43079e-18)
(27.416 -1.18495 -7.56239e-17)
(30.148 -1.15253 7.83545e-17)
(32.8037 -1.11814 2.45995e-18)
(35.379 -1.08224 2.47211e-18)
(37.8713 -1.04544 -7.70466e-17)
(40.2787 -1.00801 8.24708e-17)
(42.6003 -0.970382 2.51393e-18)
(44.8357 -0.93266 2.52928e-18)
(46.9848 -0.894994 -7.89003e-17)
(49.048 -0.857628 8.19715e-17)
(51.0259 -0.820785 -8.5084e-17)
(52.9201 -0.784885 8.30557e-17)
(54.7327 -0.74993 0)
(56.466 -0.716099 0)
(58.1225 -0.683512 8.47091e-17)
(59.7053 -0.652132 -8.52677e-17)
(61.2168 -0.621926 -8.84853e-17)
(62.6599 -0.593008 8.63494e-17)
(64.0373 -0.565373 -8.68667e-17)
(65.3519 -0.53914 8.46604e-17)
(66.6071 -0.514331 0)
(67.8061 -0.490958 -2.76183e-18)
(68.9522 -0.468928 0)
(70.0481 -0.448155 -2.79127e-18)
(71.0969 -0.428592 0)
(72.1011 -0.410135 0)
(73.0633 -0.392793 0)
(73.9859 -0.376525 -2.84657e-18)
(74.8713 -0.361323 0)
(75.7221 -0.347256 4.30952e-17)
(76.541 -0.334353 -4.61829e-17)
(77.3307 -0.322473 0)
(78.0936 -0.311358 -2.91252e-18)
(78.831 -0.300784 0)
(79.5441 -0.290565 -2.93883e-18)
(80.2334 -0.28061 0)
(80.8996 -0.270845 0)
(81.543 -0.26126 0)
(82.164 -0.251843 -4.78706e-17)
(82.7629 -0.242624 4.8087e-17)
(83.3403 -0.233624 -3.01863e-18)
(83.8968 -0.224879 0)
(84.4329 -0.21642 0)
(84.9493 -0.208278 -3.0578e-18)
(85.4468 -0.200479 -4.91269e-17)
(85.9263 -0.19304 4.62461e-17)
(86.3886 -0.185961 4.95223e-17)
(86.8346 -0.179249 -5.28232e-17)
(87.2652 -0.172899 0)
(87.6811 -0.166908 0)
(88.0833 -0.161264 0)
(88.4725 -0.155965 -3.11206e-18)
(88.8496 -0.150993 2.48638e-17)
(89.2153 -0.146337 -2.4834e-17)
(89.5703 -0.141978 2.48038e-17)
(89.9154 -0.1379 -2.16796e-17)
(90.2511 -0.134085 0)
(90.578 -0.130516 -2.47235e-17)
(90.8968 -0.127179 4.93988e-17)
(91.2079 -0.124059 -2.15918e-17)
(91.5118 -0.12114 0)
(91.809 -0.118412 0)
(92.1001 -0.115858 0)
(92.385 -0.113473 0)
(92.6651 -0.111229 3.07161e-18)
(92.9389 -0.109138 0)
(93.2099 -0.107135 -1.22686e-17)
(93.4728 -0.105296 2.82608e-22)
(93.7376 -0.103428 9.18946e-18)
(93.9875 -0.101838 0)
(94.2522 -0.0999025 -6.11865e-18)
(94.4799 -0.0987031 3.05817e-18)
(94.7617 -0.0962348 6.11257e-18)
(94.9369 -0.0961639 0)
(95.3007 -0.0903034 0)
(-19.3411 1.12652 3.77372e-18)
(-19.8274 0.591205 -7.42846e-18)
(-19.8339 0.154667 -5.20973e-16)
(-19.5216 -0.32728 5.58112e-16)
(-18.9015 -0.757946 0)
(-17.9967 -1.1568 0)
(-16.8186 -1.53121 1.21246e-17)
(-15.4138 -1.87225 0)
(-13.7636 -2.1886 -3.86386e-18)
(-11.8946 -2.48688 7.59413e-18)
(-9.8425 -2.74227 -3.73981e-18)
(-7.61127 -2.9572 -3.69071e-18)
(-5.37184 -3.12448 -3.66774e-18)
(-2.83866 -3.31687 -3.60255e-18)
(-0.180543 -3.46549 3.58191e-18)
(2.63684 -3.61793 0)
(5.48466 -3.72658 4.59541e-16)
(8.39424 -3.7967 -4.60104e-16)
(11.3293 -3.84598 -3.61493e-18)
(14.2716 -3.86104 -3.609e-18)
(17.2078 -3.84848 0)
(20.1227 -3.81448 3.60761e-18)
(23.0009 -3.76224 -4.66143e-16)
(25.8309 -3.69465 9.23272e-16)
(28.6028 -3.61455 -4.68392e-16)
(31.3088 -3.52437 -1.09348e-17)
(33.9423 -3.42627 0)
(36.4987 -3.32257 -3.67752e-18)
(38.9745 -3.21457 -3.69618e-18)
(41.3676 -3.10417 4.79405e-16)
(43.6766 -2.99202 -4.74367e-16)
(45.9011 -2.87942 -2.34881e-16)
(48.0412 -2.76696 4.58589e-16)
(50.0969 -2.65481 -3.50235e-18)
(52.0691 -2.54396 -2.20948e-16)
(53.9584 -2.43439 3.40729e-18)
(55.7665 -2.3276 0)
(57.4958 -2.22355 0)
(59.1482 -2.12288 2.10725e-16)
(60.7268 -2.02605 -2.08665e-16)
(62.2345 -1.93287 -2.06722e-16)
(63.6739 -1.84317 4.13096e-16)
(65.0475 -1.75731 -2.14656e-20)
(66.3581 -1.67516 -2.01757e-16)
(67.6086 -1.59712 3.1298e-18)
(68.802 -1.52328 0)
(69.9416 -1.45373 2.00782e-16)
(71.0305 -1.3882 -2.02676e-16)
(72.0716 -1.32643 -1.92354e-16)
(73.0676 -1.26829 1.94391e-16)
(74.021 -1.21341 0)
(74.9342 -1.16185 -1.92488e-16)
(75.8097 -1.11346 1.94647e-16)
(76.6495 -1.0682 -1.90833e-16)
(77.4561 -1.02632 1.93068e-16)
(78.2322 -0.988036 0)
(78.9809 -0.952937 -1.88705e-16)
(79.7042 -0.920199 3.79107e-16)
(80.4036 -0.88908 -1.87501e-16)
(81.08 -0.858971 2.92096e-18)
(81.7338 -0.829604 0)
(82.3655 -0.800747 0)
(82.9754 -0.772387 0)
(83.5638 -0.744492 0)
(84.1311 -0.717169 0)
(84.6777 -0.690477 2.88028e-18)
(85.2043 -0.664542 0)
(85.7113 -0.639459 9.18465e-17)
(86.1996 -0.615323 -8.88424e-17)
(86.6699 -0.592222 -9.15696e-17)
(87.123 -0.5702 2.86225e-18)
(87.5599 -0.549262 9.13321e-17)
(87.9813 -0.529424 9.40685e-17)
(88.3881 -0.510676 -3.96363e-21)
(88.7812 -0.493013 -9.10202e-17)
(89.1613 -0.476396 0)
(89.5294 -0.460808 9.36743e-17)
(89.886 -0.44619 -3.32471e-21)
(90.2321 -0.432509 -8.50082e-17)
(90.5682 -0.419701 -9.62582e-17)
(90.895 -0.40772 8.76972e-17)
(91.213 -0.396513 -5.08803e-17)
(91.5229 -0.38603 3.95458e-17)
(91.8252 -0.376229 -5.08073e-17)
(92.1203 -0.367067 -2.81951e-18)
(92.4088 -0.358494 3.94661e-17)
(92.691 -0.350485 5.63449e-18)
(92.9675 -0.342983 3.94178e-17)
(93.2383 -0.335983 -4.50255e-17)
(93.5046 -0.329384 -4.78128e-17)
(93.765 -0.323254 4.49797e-17)
(94.023 -0.317341 1.68585e-17)
(94.2732 -0.311972 -5.17225e-22)
(94.5255 -0.306409 -2.52657e-17)
(94.7632 -0.301822 5.61287e-18)
(95.0159 -0.295956 -5.61001e-18)
(95.2323 -0.292579 1.12176e-17)
(95.5015 -0.285019 -1.96231e-17)
(95.6691 -0.284097 5.66561e-18)
(96.0147 -0.270314 -7.08916e-18)
(-12.8318 1.3932 -1.20728e-15)
(-12.9655 0.632691 2.76519e-17)
(-12.4005 -0.123474 2.87894e-17)
(-11.6205 -0.831296 1.18171e-15)
(-10.6444 -1.48372 -1.12214e-15)
(-9.4848 -2.07594 -1.08627e-15)
(-8.1571 -2.60267 1.07641e-15)
(-6.81531 -3.10722 1.65551e-17)
(-5.06551 -3.64057 1.04951e-15)
(-3.11054 -4.11873 -9.9048e-16)
(-1.01717 -4.52379 1.54195e-17)
(1.31563 -4.88742 1.53614e-17)
(3.88619 -5.25102 1.01228e-15)
(6.47675 -5.56442 -9.91704e-16)
(9.13904 -5.81235 9.93729e-16)
(11.8719 -6.01146 9.33491e-19)
(14.639 -6.15697 -9.60593e-16)
(17.4351 -6.25402 -7.60493e-18)
(20.2387 -6.3101 0)
(23.0347 -6.32225 0)
(25.8097 -6.2945 0)
(28.5516 -6.23282 7.58959e-18)
(31.2493 -6.14286 -4.86822e-16)
(33.8929 -6.02862 5.03164e-16)
(36.4742 -5.89441 -1.53024e-17)
(38.9865 -5.74387 7.68242e-18)
(41.4244 -5.5806 5.09353e-16)
(43.7845 -5.40829 -4.83815e-16)
(46.0645 -5.22924 -4.59821e-16)
(48.2635 -5.0469 -7.33926e-18)
(50.3805 -4.8618 4.58385e-16)
(52.4156 -4.67619 4.5131e-16)
(54.3694 -4.49125 -8.96508e-16)
(56.242 -4.30655 4.38792e-16)
(58.0342 -4.12486 4.46833e-16)
(59.7472 -3.94497 -8.69892e-16)
(61.3833 -3.77025 4.23622e-16)
(62.9456 -3.60006 -4.32412e-16)
(64.4362 -3.43562 4.28352e-16)
(65.8584 -3.27793 -1.28646e-17)
(67.2155 -3.1263 0)
(68.5097 -2.98032 0)
(69.7436 -2.84075 0)
(70.9198 -2.70718 0)
(72.0413 -2.58042 0)
(73.111 -2.46057 0)
(74.1322 -2.34784 -1.22494e-17)
(75.1079 -2.2417 1.82736e-17)
(76.0406 -2.14163 3.75682e-16)
(76.9327 -2.04751 -3.8595e-16)
(77.7866 -1.95862 -3.84136e-16)
(78.6043 -1.87516 3.8251e-16)
(79.3881 -1.7968 -3.80913e-16)
(80.1398 -1.72339 3.79488e-16)
(80.8614 -1.65546 0)
(81.5556 -1.59367 0)
(82.2254 -1.53718 0)
(82.8729 -1.48456 0)
(83.499 -1.43444 -1.16676e-17)
(84.1043 -1.38576 0)
(84.6889 -1.33818 1.85703e-16)
(85.2531 -1.29134 -1.85279e-16)
(85.7971 -1.24529 0)
(86.3212 -1.19997 0)
(86.826 -1.15563 0)
(87.3119 -1.11233 0)
(87.7794 -1.07032 0)
(88.2293 -1.02973 1.71775e-16)
(88.6623 -0.990719 -9.82828e-21)
(89.0792 -0.953446 -3.76866e-16)
(89.4808 -0.917968 1.93902e-16)
(89.868 -0.884275 0)
(90.2416 -0.852391 -1.13793e-17)
(90.6022 -0.822296 0)
(90.9509 -0.793993 1.81688e-16)
(91.2882 -0.767399 -1.8152e-16)
(91.615 -0.742484 -1.13344e-17)
(91.932 -0.719133 -7.92695e-17)
(92.2397 -0.697297 7.35488e-17)
(92.5389 -0.676857 1.69588e-17)
(92.83 -0.657745 -1.01673e-16)
(93.1135 -0.639873 9.59572e-17)
(93.39 -0.623156 1.69215e-17)
(93.66 -0.607535 5.6367e-18)
(93.9238 -0.592937 0)
(94.1819 -0.579277 -5.6296e-18)
(94.4346 -0.566527 5.62632e-18)
(94.6825 -0.554576 9.55929e-17)
(94.9254 -0.543449 -1.01165e-16)
(95.1646 -0.532924 -4.49382e-17)
(95.3986 -0.523199 3.36891e-17)
(95.6308 -0.513728 -3.92837e-17)
(95.8559 -0.50525 5.60994e-17)
(96.0837 -0.496246 -5.60718e-18)
(96.2976 -0.489099 5.6056e-18)
(96.5264 -0.479465 -1.68081e-17)
(96.7209 -0.474303 1.12036e-17)
(96.9652 -0.461949 1.1199e-17)
(97.1166 -0.459598 -5.66815e-18)
(97.4293 -0.441884 1.42608e-17)
(-2.69977 1.12115 -1.41067e-15)
(-2.2696 0.166886 -2.28708e-17)
(-1.1684 -0.720495 1.32127e-15)
(0.0482168 -1.59561 0)
(1.36567 -2.39448 -2.54087e-21)
(2.83512 -3.13629 1.17143e-15)
(4.47392 -3.82294 -1.6998e-17)
(6.49061 -4.52971 -1.16651e-15)
(8.49117 -5.22953 1.1074e-15)
(10.6145 -5.85963 -1.11996e-15)
(12.8438 -6.42402 -1.69661e-17)
(15.1891 -6.93607 1.05554e-15)
(17.6454 -7.37826 -2.13935e-15)
(20.1634 -7.74698 1.05311e-15)
(22.7394 -8.05064 -1.63704e-17)
(25.3491 -8.29141 -1.02729e-15)
(27.9694 -8.46502 1.02348e-15)
(30.5875 -8.57516 0)
(33.1917 -8.6276 -1.03907e-15)
(35.7645 -8.62421 1.039e-15)
(38.2962 -8.57056 1.04135e-15)
(40.7794 -8.47262 -1.0572e-15)
(43.2069 -8.33707 0)
(45.5714 -8.17011 -1.55384e-17)
(47.8675 -7.97785 1.52173e-17)
(50.0909 -7.76498 1.49214e-17)
(52.2382 -7.53605 -1.46535e-17)
(54.3087 -7.29596 0)
(56.3004 -7.04744 -1.41794e-17)
(58.2151 -6.79581 0)
(60.0517 -6.54086 8.81871e-16)
(61.8112 -6.28574 -8.70517e-16)
(63.4949 -6.03251 0)
(65.1022 -5.77804 -8.37275e-16)
(66.634 -5.53023 8.28612e-16)
(68.092 -5.28411 1.30263e-17)
(69.48 -5.04705 0)
(70.8021 -4.81594 1.28008e-17)
(72.0599 -4.59301 -5.40567e-22)
(73.2573 -4.38044 1.26057e-17)
(74.3985 -4.17616 4.00535e-16)
(75.4843 -3.97949 -3.94674e-20)
(76.5178 -3.79189 -3.95451e-16)
(77.5013 -3.61229 -3.80797e-16)
(78.4378 -3.44227 3.90931e-16)
(79.3304 -3.28176 0)
(80.1822 -3.13114 1.20907e-17)
(80.9962 -2.98942 -1.20333e-17)
(81.774 -2.85571 1.19793e-17)
(82.5181 -2.73013 3.69762e-16)
(83.23 -2.61132 -3.85957e-20)
(83.9117 -2.49994 -3.90605e-16)
(84.5654 -2.39532 0)
(85.192 -2.29699 1.17545e-17)
(85.7928 -2.20588 -3.74953e-16)
(86.3705 -2.1236 3.73874e-16)
(86.9283 -2.04853 3.72792e-16)
(87.468 -1.97866 -3.71835e-16)
(87.9898 -1.91177 2.31809e-17)
(88.4935 -1.84637 0)
(88.979 -1.78231 0)
(89.4464 -1.7191 0)
(89.8958 -1.65701 -1.14938e-17)
(90.3278 -1.59595 -3.55678e-16)
(90.7429 -1.53634 3.66582e-16)
(91.1416 -1.47822 -1.1438e-17)
(91.5246 -1.42197 3.6549e-16)
(91.8928 -1.36773 -7.18627e-16)
(92.2467 -1.31571 5.35455e-16)
(92.5872 -1.26615 -9.25372e-21)
(92.9153 -1.21908 -1.93235e-16)
(93.2315 -1.17444 1.70312e-16)
(93.5368 -1.13227 -1.58806e-16)
(93.8317 -1.09252 1.8131e-16)
(94.1169 -1.05521 -3.62295e-16)
(94.3933 -1.0202 7.1621e-21)
(94.6612 -0.987455 1.13091e-17)
(94.9215 -0.956777 1.58107e-16)
(95.1745 -0.928129 4.68889e-23)
(95.4207 -0.90131 -2.25519e-17)
(95.6607 -0.876255 4.20055e-23)
(95.8948 -0.852827 0)
(96.1235 -0.83092 1.57537e-16)
(96.347 -0.810466 -1.01216e-16)
(96.5658 -0.791365 -1.01152e-16)
(96.7802 -0.773493 1.12326e-17)
(96.9905 -0.756838 -2.24529e-17)
(97.1971 -0.741218 -1.12205e-17)
(97.3999 -0.726716 8.97199e-17)
(97.6001 -0.712946 -8.96783e-17)
(97.796 -0.700303 8.9638e-17)
(97.9911 -0.687851 -1.45596e-16)
(98.1799 -0.676875 -2.23904e-17)
(98.3721 -0.664927 1.00715e-16)
(98.5516 -0.655754 -2.23761e-17)
(98.7457 -0.642877 -6.70929e-17)
(98.9089 -0.636302 2.23599e-17)
(99.1168 -0.620074 -1.64056e-22)
(99.2447 -0.616731 -1.13615e-17)
(99.5103 -0.595173 -2.86926e-17)
(11.7925 0.201023 -6.55322e-15)
(13.2284 -0.778998 3.43706e-15)
(14.8866 -1.73944 1.61194e-15)
(16.6432 -2.69034 -1.46566e-15)
(18.4092 -3.59049 -2.2101e-17)
(20.2451 -4.47123 1.37842e-15)
(22.1666 -5.33318 -2.62192e-15)
(24.2147 -6.12561 1.27295e-15)
(26.3117 -6.88544 0)
(28.4703 -7.59031 0)
(30.6952 -8.2299 0)
(32.9752 -8.81444 1.83574e-17)
(35.3051 -9.33166 1.81361e-17)
(37.6642 -9.75857 1.79686e-17)
(40.042 -10.0992 1.77656e-17)
(42.4208 -10.3624 -1.10472e-15)
(44.785 -10.5459 1.58063e-17)
(47.1236 -10.6528 1.06325e-15)
(49.4245 -10.6911 1.59748e-17)
(51.6764 -10.6652 1.56222e-17)
(53.874 -10.5802 1.53031e-17)
(56.0117 -10.4434 0)
(58.0839 -10.2621 9.58759e-16)
(60.0863 -10.0423 -9.13388e-16)
(62.0164 -9.79203 1.42749e-17)
(63.8724 -9.51745 -2.15389e-21)
(65.653 -9.22446 -8.74368e-16)
(67.36 -8.91985 8.76708e-16)
(68.992 -8.60564 1.35356e-17)
(70.5532 -8.28963 1.33841e-17)
(72.0422 -7.96998 -8.34462e-16)
(73.461 -7.65028 1.30635e-17)
(74.8124 -7.33591 1.66332e-15)
(76.0931 -7.013 -8.24538e-16)
(77.3041 -6.70609 -8.05155e-16)
(78.449 -6.39849 2.67311e-20)
(79.5332 -6.10735 8.18792e-16)
(80.5628 -5.82286 0)
(81.5366 -5.54816 -1.24356e-17)
(82.46 -5.28838 1.23611e-17)
(83.3386 -5.03854 7.86627e-16)
(84.1708 -4.79811 -7.70238e-16)
(84.9605 -4.56982 0)
(85.7095 -4.35112 -5.11176e-22)
(86.421 -4.14497 0)
(87.0981 -3.95079 1.19924e-17)
(87.7439 -3.76922 0)
(88.3611 -3.59855 -7.49245e-16)
(88.9502 -3.43723 7.58303e-16)
(89.5138 -3.28617 1.1805e-17)
(90.0529 -3.14284 3.88208e-16)
(90.5687 -3.00886 -3.63538e-16)
(91.064 -2.88296 1.16905e-17)
(91.5385 -2.76383 -1.16574e-17)
(91.9919 -2.65268 1.1626e-17)
(92.4273 -2.55387 0)
(92.8485 -2.46361 1.15687e-17)
(93.2562 -2.38026 0)
(93.6505 -2.29939 -1.15185e-17)
(94.0298 -2.21949 3.79353e-16)
(94.3935 -2.14108 -7.34414e-16)
(94.7419 -2.06355 3.78063e-16)
(95.0751 -1.98762 1.14384e-17)
(95.3939 -1.913 3.65489e-16)
(95.6989 -1.84051 -3.65021e-16)
(95.9908 -1.76997 -3.41754e-16)
(96.2704 -1.70198 3.64124e-16)
(96.5384 -1.63657 -3.52326e-16)
(96.7956 -1.57402 3.74673e-16)
(97.0427 -1.51466 1.13418e-17)
(97.2808 -1.45846 -3.51237e-16)
(97.5103 -1.40526 7.35782e-16)
(97.732 -1.35509 -3.61908e-16)
(97.9463 -1.30789 0)
(98.1539 -1.2637 1.12897e-17)
(98.3553 -1.22227 0)
(98.551 -1.18362 1.12714e-17)
(98.7415 -1.14741 1.12628e-17)
(98.9271 -1.11367 1.12545e-17)
(99.1082 -1.08207 1.12465e-17)
(99.2851 -1.05259 -1.68578e-16)
(99.4581 -1.02504 1.79704e-16)
(99.6275 -0.999289 -1.68361e-16)
(99.7936 -0.975287 1.12226e-17)
(99.9566 -0.95289 1.12159e-17)
(100.117 -0.931939 4.77764e-21)
(100.274 -0.912465 1.90384e-16)
(100.43 -0.894183 -7.83511e-17)
(100.583 -0.877285 1.00693e-16)
(100.734 -0.861146 0)
(100.883 -0.846461 1.1178e-17)
(101.032 -0.831776 1.11728e-17)
(101.175 -0.819084 1.11689e-17)
(101.323 -0.804849 0)
(101.46 -0.794328 1.11606e-17)
(101.61 -0.77892 0)
(101.734 -0.771411 1.11526e-17)
(101.896 -0.752432 -2.22965e-17)
(101.995 -0.748258 2.28256e-17)
(102.201 -0.72392 2.88724e-17)
(34.0799 -1.12343 0)
(35.9025 -2.12298 2.65571e-17)
(37.462 -3.04682 -3.19613e-15)
(39.1386 -3.98035 5.92562e-15)
(40.8374 -4.87231 2.39905e-17)
(42.605 -5.79166 -2.74117e-15)
(44.4511 -6.73259 2.58655e-15)
(46.349 -7.57111 -2.486e-15)
(48.254 -8.40262 2.39868e-15)
(50.1995 -9.17575 2.33341e-18)
(52.199 -9.87884 2.32425e-18)
(54.2318 -10.5112 -4.38073e-15)
(56.2823 -11.0633 -2.23372e-18)
(58.3322 -11.5262 4.15179e-15)
(60.3687 -11.8914 -2.03706e-15)
(62.3847 -12.16 -1.55985e-17)
(64.3692 -12.339 -3.50735e-21)
(66.3097 -12.4315 -1.50298e-17)
(68.1977 -12.4436 -3.45563e-21)
(70.0284 -12.3824 -3.39197e-21)
(71.7961 -12.2574 -3.30427e-21)
(73.4974 -12.0754 0)
(75.13 -11.8453 -3.08046e-21)
(76.692 -11.5729 -1.38129e-17)
(78.1824 -11.268 -9.01679e-16)
(79.6015 -10.9368 8.51504e-16)
(80.9502 -10.5859 -8.56854e-16)
(82.2322 -10.2241 8.48734e-16)
(83.4457 -9.85142 8.15205e-16)
(84.5973 -9.47935 -1.68203e-15)
(85.6854 -9.1032 8.27992e-16)
(86.7116 -8.72651 -1.28446e-17)
(87.6853 -8.36305 -1.27545e-17)
(88.5946 -7.97621 7.98444e-16)
(89.439 -7.62034 -8.06101e-16)
(90.2283 -7.25125 0)
(90.9692 -6.91543 7.97017e-16)
(91.6721 -6.58684 -7.92833e-16)
(92.3283 -6.2703 1.23243e-17)
(92.9447 -5.97486 -1.22646e-17)
(93.5303 -5.68779 1.22048e-17)
(94.0788 -5.41115 -1.21488e-17)
(94.5963 -5.1502 1.20931e-17)
(95.0834 -4.89965 -1.20409e-17)
(95.544 -4.66516 1.19897e-17)
(95.9807 -4.44489 -7.76172e-16)
(96.3967 -4.24007 7.73246e-16)
(96.7946 -4.04776 -1.18518e-17)
(97.173 -3.86536 1.18101e-17)
(97.535 -3.69561 7.53321e-16)
(97.8813 -3.53363 -7.62764e-16)
(98.2123 -3.38308 1.16993e-17)
(98.5317 -3.24156 -1.16667e-17)
(98.8381 -3.10614 1.16356e-17)
(99.1275 -2.9783 -1.16076e-17)
(99.4045 -2.86781 -7.29545e-16)
(99.6738 -2.76638 -1.14947e-17)
(99.9352 -2.67366 1.15882e-17)
(100.189 -2.58236 3.68329e-16)
(100.43 -2.49061 2.67968e-20)
(100.658 -2.4004 3.67057e-16)
(100.875 -2.31095 -2.07058e-22)
(101.079 -2.22381 0)
(101.272 -2.13827 -2.2844e-17)
(101.456 -2.05577 0)
(101.63 -1.9756 3.64606e-16)
(101.795 -1.89882 -3.6421e-16)
(101.953 -1.82508 -2.27373e-17)
(102.103 -1.75483 0)
(102.247 -1.68849 -3.51673e-16)
(102.386 -1.6259 -1.13156e-17)
(102.519 -1.56676 3.50983e-16)
(102.648 -1.51115 -1.13109e-17)
(102.773 -1.45891 -3.50298e-16)
(102.895 -1.41021 3.49991e-16)
(103.013 -1.36458 3.72223e-16)
(103.128 -1.32218 -3.71914e-16)
(103.241 -1.28241 -3.49067e-16)
(103.351 -1.24552 3.60047e-16)
(103.459 -1.2109 0)
(103.565 -1.17872 1.90974e-16)
(103.67 -1.14862 -1.68388e-16)
(103.773 -1.12053 -1.68265e-16)
(103.874 -1.09444 3.6994e-16)
(103.974 -1.07013 -1.79252e-16)
(104.073 -1.0474 1.11961e-17)
(104.172 -1.02635 1.9022e-16)
(104.269 -1.00656 -1.67747e-16)
(104.366 -0.988377 -1.7883e-16)
(104.462 -0.970866 1.67565e-16)
(104.557 -0.95512 0)
(104.653 -0.939056 0)
(104.746 -0.925512 0)
(104.842 -0.909766 -1.11487e-17)
(104.931 -0.898613 1.11449e-17)
(105.03 -0.881539 1.11383e-17)
(105.111 -0.873583 0)
(105.219 -0.8531 -1.11296e-17)
(105.285 -0.848301 9.27701e-23)
(105.423 -0.822788 2.90482e-17)
(67.6588 -1.36403 -1.41376e-17)
(68.232 -2.60831 -1.95168e-17)
(68.5928 -3.80297 0)
(69.1817 -4.87756 -5.78872e-21)
(69.8543 -5.83761 2.29211e-15)
(70.7429 -6.82254 3.67551e-17)
(71.8348 -7.81928 -2.19081e-15)
(73.0504 -8.668 0)
(74.3229 -9.57537 -2.11118e-15)
(75.7248 -10.4111 2.0511e-15)
(77.2082 -11.1652 1.57272e-17)
(78.7399 -11.8434 -1.54512e-17)
(80.2977 -12.4319 1.93136e-15)
(81.855 -12.9142 1.69088e-17)
(83.4016 -13.293 -1.29071e-17)
(84.9144 -13.5658 1.63531e-17)
(86.3871 -13.739 -1.27495e-17)
(87.8042 -13.8157 -3.64995e-15)
(89.1604 -13.8053 1.80607e-15)
(90.4497 -13.7143 1.77673e-15)
(91.6682 -13.5542 1.16547e-18)
(92.8195 -13.3309 -1.75962e-15)
(93.9013 -13.0563 -1.36471e-17)
(94.9183 -12.7348 1.3544e-17)
(95.869 -12.3799 1.34529e-17)
(96.7589 -11.9974 -1.72404e-15)
(97.5901 -11.5944 2.53573e-15)
(98.365 -11.1802 2.00979e-19)
(99.0849 -10.756 -8.13166e-16)
(99.7568 -10.3338 0)
(100.383 -9.91218 8.04187e-16)
(100.959 -9.48648 -1.65127e-15)
(101.511 -9.08961 1.65543e-15)
(102.01 -8.65529 -1.64735e-15)
(102.453 -8.27586 8.00384e-16)
(102.855 -7.8487 1.26441e-17)
(103.222 -7.46941 -1.25846e-17)
(103.572 -7.09156 0)
(103.884 -6.73637 -8.1036e-16)
(104.171 -6.42227 7.94284e-16)
(104.447 -6.11014 -1.12563e-21)
(104.693 -5.80754 0)
(104.92 -5.52419 -7.83082e-16)
(105.129 -5.24961 7.91688e-16)
(105.323 -4.99514 -1.2127e-17)
(105.505 -4.75599 7.84946e-16)
(105.679 -4.53564 -1.21025e-17)
(105.845 -4.32854 -7.66835e-16)
(106 -4.13097 -5.93231e-22)
(106.15 -3.94971 7.616e-16)
(106.295 -3.77439 -7.47356e-16)
(106.432 -3.61379 7.45037e-16)
(106.57 -3.46563 -7.54709e-16)
(106.703 -3.32155 7.52574e-16)
(106.823 -3.18665 -7.50737e-16)
(106.938 -3.06953 -7.60532e-16)
(107.051 -2.95824 7.47097e-16)
(107.164 -2.85549 -1.16472e-17)
(107.275 -2.75334 1.1623e-17)
(107.376 -2.6511 -1.16012e-17)
(107.467 -2.55155 0)
(107.549 -2.45285 -2.7189e-22)
(107.622 -2.35773 7.38719e-16)
(107.688 -2.26438 -1.10644e-15)
(107.748 -2.17535 7.36528e-16)
(107.802 -2.08878 -1.15132e-17)
(107.851 -2.00654 -7.22944e-16)
(107.896 -1.92746 3.78165e-16)
(107.938 -1.85263 3.66184e-16)
(107.976 -1.78246 -3.77138e-16)
(108.013 -1.71644 0)
(108.048 -1.6541 -3.64738e-16)
(108.082 -1.59566 3.64294e-16)
(108.114 -1.54089 -1.31369e-22)
(108.147 -1.49012 0)
(108.179 -1.44256 -1.13428e-17)
(108.211 -1.39864 0)
(108.243 -1.35728 -1.13173e-17)
(108.275 -1.31922 1.13051e-17)
(108.307 -1.28331 0)
(108.34 -1.25019 -1.12822e-17)
(108.373 -1.21914 -8.2283e-23)
(108.406 -1.19019 -1.9143e-16)
(108.44 -1.16349 1.5751e-16)
(108.475 -1.13862 -1.12408e-17)
(108.51 -1.11542 -1.12313e-17)
(108.546 -1.09404 -2.24445e-17)
(108.583 -1.0739 -1.12133e-17)
(108.62 -1.05551 -1.90483e-16)
(108.658 -1.03761 4.23128e-21)
(108.696 -1.02173 1.79024e-16)
(108.736 -1.00515 -8.9443e-17)
(108.775 -0.991543 7.82172e-17)
(108.816 -0.975141 1.11652e-17)
(108.854 -0.963945 -2.23185e-17)
(108.899 -0.946273 -1.11504e-17)
(108.934 -0.938087 -1.11448e-17)
(108.984 -0.917754 3.34101e-17)
(109.014 -0.912111 -3.53978e-17)
(109.08 -0.887548 -2.89763e-17)
(109.649 -0.882848 1.28638e-15)
(107.886 -1.74984 -1.91055e-15)
(106.448 -2.92759 1.48578e-17)
(105.495 -4.32621 1.4865e-17)
(104.678 -5.48959 -1.91592e-15)
(104.225 -6.63161 1.88136e-15)
(104.099 -8.30734 2.64329e-15)
(104.126 -9.00622 -9.79053e-18)
(104.35 -10.0441 1.51753e-17)
(104.845 -11.0272 -1.27394e-17)
(105.48 -11.91 -1.25532e-17)
(106.199 -12.6804 -1.82534e-15)
(106.986 -13.3364 0)
(107.783 -13.8668 -2.78483e-17)
(108.583 -14.2768 -1.7696e-15)
(109.342 -14.5608 -2.90717e-17)
(110.066 -14.732 -1.54032e-18)
(110.731 -14.792 1.73584e-15)
(111.338 -14.7567 -2.70075e-17)
(111.886 -14.6319 0)
(112.373 -14.4376 -2.67998e-17)
(112.816 -14.1769 0)
(113.202 -13.8643 -1.71784e-15)
(113.55 -13.5011 -1.40749e-17)
(113.847 -13.1038 1.68121e-15)
(114.113 -12.6805 1.32109e-17)
(114.344 -12.2343 -1.69968e-15)
(114.543 -11.7833 3.36534e-15)
(114.721 -11.3155 -2.58804e-17)
(114.872 -10.8567 -1.67496e-15)
(115.01 -10.4024 1.68406e-15)
(115.116 -9.91181 -1.68039e-15)
(115.222 -9.56367 0)
(115.29 -8.90052 3.37943e-21)
(115.332 -8.54526 0)
(115.367 -8.10393 -2.35708e-17)
(115.383 -7.7621 -6.32932e-16)
(115.384 -7.37958 7.10974e-16)
(115.337 -6.9595 0)
(115.285 -6.62037 8.29059e-16)
(115.254 -6.27995 -1.64008e-15)
(115.196 -5.95608 8.23466e-16)
(115.139 -5.65849 -2.5249e-17)
(115.072 -5.36945 -1.25762e-17)
(115.01 -5.10725 -1.25295e-17)
(114.949 -4.86204 -1.24888e-17)
(114.894 -4.63633 0)
(114.844 -4.42821 0)
(114.791 -4.2255 7.66305e-16)
(114.75 -4.04686 -1.57617e-15)
(114.714 -3.87042 7.60516e-16)
(114.678 -3.70761 0)
(114.654 -3.55891 7.79084e-16)
(114.635 -3.40612 -7.88444e-16)
(114.601 -3.23594 0)
(114.585 -3.13048 -1.20455e-17)
(114.553 -2.9841 0)
(114.553 -2.9322 -5.58525e-16)
(114.534 -2.82442 1.51572e-15)
(114.505 -2.71448 -7.73671e-16)
(114.469 -2.60717 0)
(114.426 -2.50052 7.34194e-16)
(114.377 -2.39894 -7.56127e-16)
(114.325 -2.29912 2.9844e-22)
(114.268 -2.20531 0)
(114.21 -2.11366 1.17338e-17)
(114.15 -2.0282 -7.72721e-16)
(114.089 -1.94468 7.47731e-16)
(114.027 -1.86653 -1.16588e-17)
(113.965 -1.79441 0)
(113.905 -1.72711 -1.16127e-17)
(113.847 -1.66365 3.82484e-16)
(113.791 -1.60466 -3.81759e-16)
(113.737 -1.54952 -3.81042e-16)
(113.685 -1.49886 7.37654e-16)
(113.635 -1.45132 -7.36397e-16)
(113.587 -1.40812 7.3516e-16)
(113.542 -1.36718 -3.66984e-16)
(113.5 -1.33027 -1.23919e-22)
(113.46 -1.29499 0)
(113.421 -1.26304 -3.65282e-16)
(113.386 -1.23286 7.181e-16)
(113.352 -1.20484 -7.28499e-16)
(113.321 -1.17933 3.75117e-16)
(113.292 -1.1554 -1.70278e-16)
(113.265 -1.13319 1.81396e-16)
(113.24 -1.11275 1.13231e-17)
(113.217 -1.09347 1.80945e-16)
(113.196 -1.07597 -3.5019e-16)
(113.176 -1.05874 1.91817e-16)
(113.159 -1.04367 1.6907e-16)
(113.142 -1.02752 -3.60274e-16)
(113.128 -1.01459 1.79964e-16)