/*--------------------------------*- C++ -*----------------------------------*\
  =========                 |
  \\      /  F ield         | OpenFOAM: The Open Source CFD Toolbox
   \\    /   O peration     | Website:  https://openfoam.org
    \\  /    A nd           | Version:  8
     \\/     M anipulation  |
\*---------------------------------------------------------------------------*/
FoamFile
{
    version     2.0;
    format      ascii;
    class       volScalarField;
    location    "1";
    object      N;
}
// * * * * * * * * * * * * * * * * * * * * * * * * * * * * * * * * * * * * * //

dimensions      [0 -3 0 0 0 0 0];

internalField   nonuniform List<scalar> 
800
(
1918439.2
1918223.8
1918332.7
1918323.4
1918330.4
1918328.5
1918329.7
1918329.2
1918329.4
1918329.5
1918329.5
1918329.4
1918329.2
1918329.7
1918328.5
1918330.4
1918323.4
1918332.7
1918223.8
1918439.2
643.80944
618.85079
631.75035
630.1001
630.89782
630.54366
630.8159
630.80446
630.89042
630.81567
630.81568
630.89043
630.80446
630.81591
630.54367
630.89783
630.10012
631.75037
618.8508
643.80939
0.60143188
0.58131281
0.59193607
0.59023957
0.59108148
0.59070956
0.59096925
0.59096368
0.59105555
0.59099624
0.59099624
0.59105556
0.59096369
0.59096926
0.59070957
0.59108149
0.59023959
0.5919361
0.58131282
0.60143186
0.10038816
0.10037101
0.10038016
0.10037848
0.10037935
0.10037896
0.10037922
0.10037921
0.10037931
0.10037926
0.10037926
0.10037931
0.10037921
0.10037922
0.10037896
0.10037935
0.10037848
0.10038016
0.10037101
0.10038816
0.10001483
0.10001484
0.10001484
0.10001484
0.10001484
0.10001484
0.10001484
0.10001484
0.10001484
0.10001484
0.10001484
0.10001484
0.10001484
0.10001484
0.10001484
0.10001484
0.10001484
0.10001484
0.10001484
0.10001483
0.099924719
0.099924719
0.099924726
0.099924718
0.099924723
0.099924721
0.099924723
0.099924725
0.099924725
0.099924725
0.099924725
0.099924725
0.099924725
0.099924723
0.099924721
0.099924723
0.099924718
0.099924726
0.099924719
0.099924719
0.10006145
0.10006145
0.10006145
0.10006146
0.10006146
0.10006146
0.10006146
0.10006146
0.10006146
0.10006146
0.10006146
0.10006146
0.10006146
0.10006146
0.10006146
0.10006146
0.10006146
0.10006145
0.10006145
0.10006145
0.099885857
0.099885861
0.099885862
0.099885864
0.099885866
0.099885867
0.099885868
0.09988587
0.099885872
0.099885873
0.099885873
0.099885872
0.09988587
0.099885868
0.099885867
0.099885866
0.099885864
0.099885862
0.099885861
0.099885857
0.10014268
0.10014269
0.10014268
0.10014268
0.10014268
0.10014268
0.10014268
0.10014268
0.10014268
0.10014268
0.10014268
0.10014268
0.10014268
0.10014268
0.10014268
0.10014268
0.10014268
0.10014268
0.10014269
0.10014268
0.099763193
0.099763201
0.099763204
0.099763203
0.099763205
0.099763202
0.099763204
0.099763201
0.099763203
0.099763202
0.099763202
0.099763203
0.099763201
0.099763204
0.099763202
0.099763205
0.099763203
0.099763204
0.099763201
0.099763193
1917761.5
1917544
1917653.7
1917644.4
1917651.4
1917649.5
1917650.7
1917650.2
1917650.4
1917650.5
1917650.5
1917650.4
1917650.2
1917650.7
1917649.5
1917651.4
1917644.4
1917653.7
1917544
1917761.5
560.18093
536.42501
548.67121
547.08986
547.84845
547.51434
547.77579
547.76618
547.84774
547.77516
547.77516
547.84774
547.76618
547.7758
547.51435
547.84846
547.08988
548.67124
536.42502
560.1809
0.53850559
0.51969117
0.52959959
0.52802099
0.52879898
0.52845625
0.52869821
0.52869552
0.5287809
0.52872494
0.52872494
0.52878091
0.52869553
0.52869821
0.52845626
0.52879899
0.52802101
0.52959962
0.51969118
0.53850558
0.10033736
0.10032132
0.10032986
0.1003283
0.10032911
0.10032875
0.10032899
0.10032898
0.10032907
0.10032903
0.10032903
0.10032907
0.10032898
0.10032899
0.10032875
0.10032911
0.1003283
0.10032986
0.10032132
0.10033736
0.10001482
0.10001483
0.10001482
0.10001483
0.10001482
0.10001483
0.10001483
0.10001483
0.10001483
0.10001482
0.10001482
0.10001483
0.10001483
0.10001483
0.10001483
0.10001482
0.10001483
0.10001482
0.10001483
0.10001482
0.099924739
0.09992474
0.099924747
0.099924739
0.099924744
0.099924741
0.099924744
0.099924746
0.099924746
0.099924746
0.099924746
0.099924746
0.099924746
0.099924744
0.099924741
0.099924744
0.099924739
0.099924747
0.09992474
0.099924739
0.10006146
0.10006146
0.10006146
0.10006147
0.10006147
0.10006147
0.10006147
0.10006147
0.10006147
0.10006147
0.10006147
0.10006147
0.10006147
0.10006147
0.10006147
0.10006147
0.10006147
0.10006146
0.10006146
0.10006146
0.099885876
0.09988588
0.099885882
0.099885883
0.099885885
0.099885887
0.099885888
0.09988589
0.099885891
0.099885892
0.099885892
0.099885891
0.09988589
0.099885888
0.099885887
0.099885885
0.099885883
0.099885882
0.09988588
0.099885876
0.10014271
0.10014271
0.10014271
0.10014271
0.10014271
0.10014271
0.10014271
0.10014271
0.10014271
0.10014271
0.10014271
0.10014271
0.10014271
0.10014271
0.10014271
0.10014271
0.10014271
0.10014271
0.10014271
0.10014271
0.099763238
0.099763246
0.099763249
0.099763247
0.09976325
0.099763247
0.099763249
0.099763246
0.099763247
0.099763247
0.099763247
0.099763247
0.099763246
0.099763249
0.099763247
0.09976325
0.099763247
0.099763249
0.099763246
0.099763238
1917761.5
1917544
1917653.7
1917644.4
1917651.4
1917649.5
1917650.7
1917650.2
1917650.4
1917650.5
1917650.5
1917650.4
1917650.2
1917650.7
1917649.5
1917651.4
1917644.4
1917653.7
1917544
1917761.5
560.18094
536.42502
548.67122
547.08986
547.84845
547.51434
547.7758
547.76618
547.84774
547.77516
547.77516
547.84774
547.76619
547.7758
547.51435
547.84846
547.08988
548.67124
536.42502
560.18094
0.53850559
0.51969116
0.52959958
0.52802099
0.52879897
0.52845624
0.5286982
0.52869551
0.52878089
0.52872493
0.52872493
0.5287809
0.52869552
0.5286982
0.52845625
0.52879898
0.528021
0.52959961
0.51969118
0.53850561
0.10033736
0.10032132
0.10032986
0.1003283
0.10032911
0.10032875
0.10032899
0.10032898
0.10032907
0.10032903
0.10032903
0.10032907
0.10032898
0.10032899
0.10032875
0.10032911
0.1003283
0.10032986
0.10032132
0.10033736
0.10001482
0.10001483
0.10001482
0.10001483
0.10001482
0.10001483
0.10001483
0.10001483
0.10001483
0.10001482
0.10001482
0.10001483
0.10001483
0.10001483
0.10001483
0.10001482
0.10001483
0.10001482
0.10001483
0.10001482
0.099924739
0.09992474
0.099924747
0.099924739
0.099924744
0.099924741
0.099924744
0.099924746
0.099924746
0.099924746
0.099924746
0.099924746
0.099924746
0.099924744
0.099924741
0.099924744
0.099924739
0.099924747
0.09992474
0.099924739
0.10006146
0.10006146
0.10006146
0.10006147
0.10006147
0.10006147
0.10006147
0.10006147
0.10006147
0.10006147
0.10006147
0.10006147
0.10006147
0.10006147
0.10006147
0.10006147
0.10006147
0.10006146
0.10006146
0.10006146
0.099885876
0.09988588
0.099885882
0.099885883
0.099885885
0.099885887
0.099885888
0.09988589
0.099885891
0.099885892
0.099885892
0.099885891
0.09988589
0.099885888
0.099885887
0.099885885
0.099885883
0.099885882
0.09988588
0.099885876
0.10014271
0.10014271
0.10014271
0.10014271
0.10014271
0.10014271
0.10014271
0.10014271
0.10014271
0.10014271
0.10014271
0.10014271
0.10014271
0.10014271
0.10014271
0.10014271
0.10014271
0.10014271
0.10014271
0.10014271
0.099763238
0.099763246
0.099763249
0.099763247
0.09976325
0.099763247
0.099763249
0.099763246
0.099763247
0.099763247
0.099763247
0.099763247
0.099763246
0.099763249
0.099763247
0.09976325
0.099763247
0.099763249
0.099763246
0.099763238
1918439.2
1918223.8
1918332.7
1918323.4
1918330.4
1918328.5
1918329.7
1918329.2
1918329.4
1918329.5
1918329.5
1918329.4
1918329.2
1918329.7
1918328.5
1918330.4
1918323.4
1918332.7
1918223.8
1918439.2
643.80939
618.85074
631.7503
630.10005
630.89777
630.54361
630.81585
630.80441
630.89037
630.81563
630.81563
630.89038
630.80442
630.81586
630.54362
630.89779
630.10007
631.75033
618.85076
643.8094
0.60143182
0.58131274
0.59193601
0.59023951
0.59108141
0.5907095
0.59096919
0.59096362
0.59105548
0.59099618
0.59099618
0.59105549
0.59096363
0.5909692
0.59070951
0.59108142
0.59023953
0.59193603
0.58131277
0.60143185
0.10038816
0.10037101
0.10038016
0.10037848
0.10037935
0.10037896
0.10037922
0.10037921
0.10037931
0.10037926
0.10037926
0.10037931
0.10037921
0.10037922
0.10037896
0.10037935
0.10037848
0.10038016
0.10037101
0.10038816
0.10001483
0.10001484
0.10001484
0.10001484
0.10001484
0.10001484
0.10001484
0.10001484
0.10001484
0.10001484
0.10001484
0.10001484
0.10001484
0.10001484
0.10001484
0.10001484
0.10001484
0.10001484
0.10001484
0.10001483
0.099924719
0.099924719
0.099924726
0.099924718
0.099924723
0.099924721
0.099924723
0.099924725
0.099924725
0.099924725
0.099924725
0.099924725
0.099924725
0.099924723
0.099924721
0.099924723
0.099924718
0.099924726
0.099924719
0.099924719
0.10006145
0.10006145
0.10006145
0.10006146
0.10006146
0.10006146
0.10006146
0.10006146
0.10006146
0.10006146
0.10006146
0.10006146
0.10006146
0.10006146
0.10006146
0.10006146
0.10006146
0.10006145
0.10006145
0.10006145
0.099885857
0.099885861
0.099885862
0.099885864
0.099885866
0.099885867
0.099885868
0.09988587
0.099885872
0.099885873
0.099885873
0.099885872
0.09988587
0.099885868
0.099885867
0.099885866
0.099885864
0.099885862
0.099885861
0.099885857
0.10014268
0.10014269
0.10014268
0.10014268
0.10014268
0.10014268
0.10014268
0.10014268
0.10014268
0.10014268
0.10014268
0.10014268
0.10014268
0.10014268
0.10014268
0.10014268
0.10014268
0.10014268
0.10014269
0.10014268
0.099763193
0.099763201
0.099763204
0.099763203
0.099763205
0.099763202
0.099763204
0.099763201
0.099763203
0.099763202
0.099763202
0.099763203
0.099763201
0.099763204
0.099763202
0.099763205
0.099763203
0.099763204
0.099763201
0.099763193
)
;

boundaryField
{
    left
    {
        type            zeroGradient;
    }
    right
    {
        type            zeroGradient;
    }
    walls
    {
        type            zeroGradient;
    }
    centreline
    {
        type            zeroGradient;
    }
    frontAndBack
    {
        type            zeroGradient;
    }
}


// ************************************************************************* //
