/*--------------------------------*- C++ -*----------------------------------*\
  =========                 |
  \\      /  F ield         | OpenFOAM: The Open Source CFD Toolbox
   \\    /   O peration     | Website:  https://openfoam.org
    \\  /    A nd           | Version:  8
     \\/     M anipulation  |
\*---------------------------------------------------------------------------*/
FoamFile
{
    version     2.0;
    format      ascii;
    class       surfaceScalarField;
    location    "1";
    object      phi;
}
// * * * * * * * * * * * * * * * * * * * * * * * * * * * * * * * * * * * * * //

dimensions      [1 0 -1 0 0 0 0];

internalField   nonuniform List<scalar> 
2080
(
-6.7928417e-05
0.0028370971
-0.00023458596
-3.4452188e-06
0.0027041251
-0.00023464018
-4.3427897e-06
0.002771822
-0.0002346653
4.266374e-08
0.0027653951
-0.00023467726
-4.5440814e-08
0.002768366
-0.0002346709
6.0823207e-07
0.0027654701
-0.00023467079
-4.7883706e-08
0.0027663011
-0.00023466915
-1.1279877e-08
0.0027660303
-0.00023466943
-3.9451414e-08
0.0027667627
-0.00023466889
-3.7811788e-11
0.0027667434
-0.00023466881
3.9372993e-08
0.0027667435
-0.00023466881
1.1250711e-08
0.0027667628
-0.00023466889
4.7864133e-08
0.0027660304
-0.00023466944
-6.0823351e-07
0.0027663012
-0.00023466915
4.5440682e-08
0.0027654703
-0.00023467079
-4.2660128e-08
0.0027683661
-0.0002346709
4.3428022e-06
0.0027653953
-0.00023467726
3.445228e-06
0.0027718221
-0.0002346653
6.7928389e-05
0.0027041251
-0.00023464017
0.002837097
-0.00023458601
2.6549581e-05
0.018892189
0.00013963129
-5.529327e-07
0.018814312
0.00013964673
-4.106726e-06
0.018857776
0.00013968163
1.3738414e-07
0.018844054
0.00013969035
-1.870137e-07
0.018850272
0.00013969202
7.1139788e-07
0.01884492
0.00013969904
2.0795151e-07
0.018846416
0.00013970213
2.3797753e-07
0.0188459
0.00013970348
1.1925617e-07
0.018847058
0.00013970339
-3.9534657e-11
0.01884707
0.00013970268
-1.1931625e-07
0.01884707
0.00013970268
-2.3801839e-07
0.018847058
0.00013970339
-2.0796532e-07
0.0188459
0.00013970348
-7.1139305e-07
0.018846416
0.00013970213
1.8701484e-07
0.01884492
0.00013969904
-1.3739182e-07
0.018850272
0.00013969202
4.1067024e-06
0.018844054
0.00013969035
5.5286518e-07
0.018857776
0.00013968164
-2.6549664e-05
0.018814312
0.00013964673
0.018892189
0.00013963132
2.9646296e-06
0.034975822
5.7018925e-05
-4.5822293e-06
0.03492492
5.711091e-05
-5.2779422e-06
0.034954006
5.7129799e-05
-1.7358917e-06
0.034938901
5.7138923e-05
-1.1621741e-06
0.034947284
5.7123251e-05
-5.118674e-08
0.034939568
5.7119689e-05
-2.1443754e-07
0.034941771
5.7111936e-05
-4.1983805e-08
0.034940768
5.7112123e-05
-1.1941066e-07
0.034942751
5.7111671e-05
-2.4323587e-11
0.034942892
5.7112508e-05
1.193729e-07
0.034942893
5.7112508e-05
4.1973966e-08
0.034942751
5.7111671e-05
2.1445529e-07
0.034940768
5.7112124e-05
5.1215001e-08
0.034941772
5.7111937e-05
1.1622168e-06
0.034939568
5.711969e-05
1.7359221e-06
0.034947284
5.7123253e-05
5.2779584e-06
0.034938901
5.7138924e-05
4.582222e-06
0.034954006
5.7129792e-05
-2.9646545e-06
0.034924921
5.7110886e-05
0.034975823
5.7018882e-05
1.7571422e-05
0.031058948
6.7939884e-06
1.3751177e-06
0.031026951
6.769191e-06
1.1617357e-06
0.031043857
6.7287357e-06
-7.060294e-07
0.031033282
6.7126771e-06
-4.9874865e-07
0.031039767
6.7273895e-06
4.1549701e-07
0.031034525
6.727744e-06
1.3209987e-06
0.031036651
6.7373064e-06
1.3725718e-06
0.031035658
6.7393504e-06
9.6166533e-07
0.031036773
6.7420437e-06
-3.4394355e-11
0.031036673
6.7422946e-06
-9.6172344e-07
0.031036673
6.7422951e-06
-1.3726017e-06
0.031036773
6.7420447e-06
-1.320995e-06
0.031035658
6.7393519e-06
-4.154659e-07
0.031036651
6.7373077e-06
4.9878343e-07
0.031034525
6.7277439e-06
7.0606368e-07
0.031039767
6.7273887e-06
-1.1617217e-06
0.031033282
6.7126748e-06
-1.3751165e-06
0.031043858
6.7287331e-06
-1.7571423e-05
0.031026951
6.7691938e-06
0.031058948
6.7940173e-06
-3.4261986e-06
0.027222136
-1.1968979e-05
-6.5254531e-06
0.027185912
-1.1892466e-05
-9.0036337e-06
0.027201424
-1.1943945e-05
-5.5344884e-06
0.027188422
-1.1949091e-05
-5.4184287e-06
0.027199141
-1.1954301e-05
-1.9884557e-06
0.027193973
-1.1960067e-05
-8.672602e-07
0.027197897
-1.1961705e-05
2.1428221e-07
0.027194779
-1.1963366e-05
6.4532186e-08
0.02719534
-1.1962445e-05
7.5231928e-12
0.027194292
-1.1962447e-05
-6.4490543e-08
0.027194293
-1.1962446e-05
-2.1422697e-07
0.02719534
-1.1962443e-05
8.6733983e-07
0.027194779
-1.1963363e-05
1.9885567e-06
0.027197897
-1.1961703e-05
5.4185327e-06
0.027193973
-1.1960066e-05
5.5345566e-06
0.027199141
-1.1954301e-05
9.0036579e-06
0.027188423
-1.1949091e-05
6.5254454e-06
0.027201424
-1.1943942e-05
3.4261847e-06
0.027185912
-1.1892454e-05
0.027222136
-1.1968945e-05
5.5794755e-06
-1.2174336e-05
1.1515093e-05
1.5797639e-06
-3.4924142e-05
1.1563625e-05
8.0271931e-06
-2.9418126e-05
1.1525021e-05
9.1477731e-07
-3.3919089e-05
1.1531703e-05
2.7628611e-06
-3.2835405e-05
1.1510748e-05
1.4690328e-06
-3.1594853e-05
1.1525918e-05
3.4401949e-06
-3.3011067e-05
1.1523204e-05
2.1719434e-06
-3.3251366e-05
1.1534227e-05
1.6922822e-06
-3.4711943e-05
1.1537161e-05
-2.5957503e-11
-3.4853512e-05
1.1542385e-05
-1.6923281e-06
-3.4853502e-05
1.1542386e-05
-2.1719706e-06
-3.4711887e-05
1.1537161e-05
-3.44019e-06
-3.325129e-05
1.1534227e-05
-1.4690132e-06
-3.3010964e-05
1.1523205e-05
-2.7628406e-06
-3.1594764e-05
1.1525918e-05
-9.1478701e-07
-3.2835318e-05
1.1510747e-05
-8.0272435e-06
-3.3919005e-05
1.1531704e-05
-1.5798138e-06
-2.9418019e-05
1.1525027e-05
-5.5795017e-06
-3.4924017e-05
1.1563632e-05
-1.2174208e-05
1.1515099e-05
-1.2761433e-05
-0.051157379
-2.5335056e-05
-7.8404953e-06
-0.051204229
-2.4983137e-05
-1.2205147e-05
-0.051186553
-2.4938896e-05
-8.7824165e-06
-0.05119808
-2.4903134e-05
-7.7355888e-06
-0.051191344
-2.4916813e-05
-5.751881e-06
-0.051195095
-2.49203e-05
-5.756761e-06
-0.051193042
-2.4942653e-05
-3.6304183e-06
-0.051194577
-2.495272e-05
-2.2477178e-06
-0.051193964
-2.4965603e-05
5.7218366e-11
-0.051194286
-2.4968665e-05
2.2478433e-06
-0.051194286
-2.4968666e-05
3.6305611e-06
-0.051193964
-2.4965604e-05
5.756911e-06
-0.051194577
-2.4952722e-05
5.7520316e-06
-0.051193042
-2.4942656e-05
7.7357244e-06
-0.051195095
-2.4920301e-05
8.7825293e-06
-0.051191345
-2.4916814e-05
1.2205224e-05
-0.05119808
-2.4903135e-05
7.8405274e-06
-0.051186553
-2.4938898e-05
1.276144e-05
-0.051204229
-2.4983144e-05
-0.051157379
-2.5335069e-05
4.2638195e-06
-0.057500943
-2.3271811e-05
-1.2169474e-05
-0.057512744
-2.3469538e-05
7.0803193e-06
-0.057526461
-2.3278802e-05
4.4681832e-07
-0.057508409
-2.3342829e-05
7.5733268e-06
-0.057515536
-2.3387638e-05
3.3328283e-06
-0.057507379
-2.3435124e-05
5.9382556e-06
-0.057512132
-2.3435241e-05
2.8642964e-06
-0.05750839
-2.344642e-05
2.4373293e-06
-0.057510913
-2.3436478e-05
-8.6831344e-12
-0.057509914
-2.3434738e-05
-2.4373372e-06
-0.057509914
-2.3434737e-05
-2.8642827e-06
-0.057510913
-2.3436476e-05
-5.9382445e-06
-0.05750839
-2.3446419e-05
-3.3328207e-06
-0.057512132
-2.343524e-05
-7.5733361e-06
-0.057507379
-2.3435121e-05
-4.4683065e-07
-0.057515537
-2.3387636e-05
-7.0803442e-06
-0.057508409
-2.3342825e-05
1.216943e-05
-0.057526461
-2.3278798e-05
-4.2638559e-06
-0.057512744
-2.3469534e-05
-0.057500943
-2.3271802e-05
-2.0968173e-05
-0.0084649301
-5.2870422e-05
-2.6606279e-06
-0.0085234978
-5.3068125e-05
-1.5208993e-05
-0.0085148998
-5.3172494e-05
-7.1900349e-06
-0.0085212309
-5.3179942e-05
-1.6545209e-05
-0.0085126467
-5.3153067e-05
-9.6132958e-06
-0.008517863
-5.3130011e-05
-1.1816471e-05
-0.0085118834
-5.3114419e-05
-5.3873394e-06
-0.0085151504
-5.3101775e-05
-4.0006377e-06
-0.0085125089
-5.3097366e-05
2.938524e-11
-0.0085137166
-5.3095528e-05
4.0006908e-06
-0.0085137167
-5.3095527e-05
5.3873753e-06
-0.0085125089
-5.3097365e-05
1.1816476e-05
-0.0085151504
-5.3101775e-05
9.6132675e-06
-0.0085118835
-5.3114419e-05
1.6545135e-05
-0.008517863
-5.3130011e-05
7.1899362e-06
-0.0085126466
-5.3153067e-05
1.5208877e-05
-0.0085212308
-5.3179941e-05
2.660531e-06
-0.0085148998
-5.3172494e-05
2.0968112e-05
-0.0085234977
-5.3068123e-05
-0.0084649301
-5.2870419e-05
4.6965737e-05
0.0001205697
3.5818333e-05
0.00012093641
3.325047e-05
0.00012074657
2.4191305e-05
0.00012079113
2.1890341e-05
0.00012076594
1.1856177e-05
0.00012078618
7.9256282e-06
0.00012078463
2.2631268e-06
0.00012079408
1.0439733e-06
0.000120793
-7.2751822e-11
0.00012079546
-1.0441218e-06
0.00012079546
-2.2632318e-06
0.000120793
-7.9256995e-06
0.00012079408
-1.1856221e-05
0.00012078463
-2.1890367e-05
0.00012078618
-2.4191326e-05
0.00012076594
-3.3250494e-05
0.00012079113
-3.5818349e-05
0.00012074657
-4.6965749e-05
0.00012093641
0.0001205697
-6.8009505e-05
0.0023648637
-1.2975716e-09
-3.4588704e-06
0.0022312812
-1.3278557e-09
-4.3446572e-06
0.0022990779
-1.3348523e-09
4.2551933e-08
0.0022926503
-1.340304e-09
-4.519479e-08
0.0022956298
-1.34326e-09
6.0821454e-07
0.0022927302
-1.3452716e-09
-4.8023201e-08
0.0022935625
-1.3476504e-09
-1.1350567e-08
0.0022932908
-1.348162e-09
-3.951041e-08
0.0022940244
-1.3476615e-09
-3.7845307e-11
0.0022940049
-1.3472324e-09
3.9431856e-08
0.0022940049
-1.3475211e-09
1.1321267e-08
0.0022940244
-1.3486551e-09
4.8003648e-08
0.0022932909
-1.349173e-09
-6.0821571e-07
0.0022935626
-1.3500681e-09
4.5194928e-08
0.0022927304
-1.3458998e-09
-4.2547823e-08
0.0022956299
-1.3419874e-09
4.3446704e-06
0.0022926505
-1.3355997e-09
3.4588744e-06
0.002299078
-1.324406e-09
6.8009468e-05
0.0022312813
-1.3159981e-09
0.0023648636
-1.321559e-09
2.6581371e-05
0.018728867
-1.3721167e-09
-5.4015716e-07
0.018650848
-1.4335514e-09
-4.1027866e-06
0.018694356
-1.4358541e-09
1.3918586e-07
0.01868065
-1.4445721e-09
-1.8604774e-07
0.018686856
-1.4467078e-09
7.1265181e-07
0.018681507
-1.4492907e-09
2.0810608e-07
0.018683
-1.4515676e-09
2.3774867e-07
0.018682484
-1.452016e-09
1.1898433e-07
0.018683641
-1.4513965e-09
-3.9601172e-11
0.018683653
-1.4507518e-09
-1.1904448e-07
0.018683653
-1.450978e-09
-2.377897e-07
0.018683641
-1.4520639e-09
-2.0812003e-07
0.018682484
-1.4542004e-09
-7.1264685e-07
0.018683
-1.4528855e-09
1.860491e-07
0.018681507
-1.4496102e-09
-1.3919349e-07
0.018686856
-1.4433226e-09
4.1027621e-06
0.018680651
-1.4395274e-09
5.4008799e-07
0.018694356
-1.4244519e-09
-2.6581456e-05
0.018650848
-1.4244469e-09
0.018728868
-1.2844873e-09
2.9908351e-06
0.034930792
-8.9505849e-10
-4.570279e-06
0.034879726
-9.0609489e-10
-5.2758366e-06
0.034909014
-9.0999661e-10
-1.7401707e-06
0.03489392
-9.0933717e-10
-1.1665842e-06
0.034902286
-9.0870749e-10
-5.3120912e-08
0.034894577
-9.0874782e-10
-2.1584793e-07
0.034896778
-9.1017429e-10
-4.2222664e-08
0.034895775
-9.1033167e-10
-1.1946752e-07
0.034897756
-9.1059809e-10
-2.4261305e-11
0.034897897
-9.1054186e-10
1.1942998e-07
0.034897897
-9.1058886e-10
4.2212899e-08
0.034897756
-9.1066042e-10
2.1586554e-07
0.034895775
-9.1086837e-10
5.3149461e-08
0.034896778
-9.1056294e-10
1.1666271e-06
0.034894577
-9.0846334e-10
1.7402003e-06
0.034902286
-9.0649387e-10
5.2758504e-06
0.034893921
-9.1076526e-10
4.5702682e-06
0.034909014
-9.2239619e-10
-2.9908627e-06
0.034879726
-9.476009e-10
0.034930793
-9.4157198e-10
1.7563075e-05
0.031021435
-6.2230004e-10
1.3634793e-06
0.030989385
-6.6578953e-10
1.1527382e-06
0.031006328
-6.7051764e-10
-7.0363662e-07
0.030995763
-6.6935645e-10
-4.9608908e-07
0.031002241
-6.6839787e-10
4.1798064e-07
0.030997002
-6.674e-10
1.3224995e-06
0.030999128
-6.6740181e-10
1.3734289e-06
0.030998135
-6.6866691e-10
9.6187735e-07
0.030999249
-6.7039347e-10
-3.441879e-11
0.030999149
-6.7091683e-10
-9.6193529e-07
0.030999149
-6.7019045e-10
-1.3734589e-06
0.030999249
-6.6843234e-10
-1.322496e-06
0.030998135
-6.6590837e-10
-4.1794954e-07
0.030999128
-6.6407558e-10
4.9612372e-07
0.030997002
-6.652505e-10
7.0367011e-07
0.031002241
-6.6906594e-10
-1.1527239e-06
0.030995763
-6.7065641e-10
-1.3634761e-06
0.031006328
-6.697292e-10
-1.7563072e-05
0.030989385
-6.5631806e-10
0.031021435
-5.6565744e-10
-3.4166444e-06
0.027169675
-6.0585594e-10
-6.5384801e-06
0.027133399
-6.1023891e-10
-9.0116168e-06
0.027148912
-6.0450062e-10
-5.5403636e-06
0.027135889
-6.1060944e-10
-5.4207682e-06
0.027146625
-6.0949396e-10
-1.9909512e-06
0.027141447
-6.1241124e-10
-8.6780164e-07
0.027145381
-6.13285e-10
2.1387641e-07
0.027142257
-6.1402288e-10
6.4384735e-08
0.02714282
-6.1620266e-10
7.5313923e-12
0.027141771
-6.155271e-10
-6.4342376e-08
0.027141771
-6.1487982e-10
-2.1382131e-07
0.027142821
-6.1320427e-10
8.678813e-07
0.027142257
-6.1054969e-10
1.9910523e-06
0.027145381
-6.0801018e-10
5.4208718e-06
0.027141447
-6.0904484e-10
5.5404312e-06
0.027146625
-6.1081798e-10
9.0116425e-06
0.027135889
-6.1017215e-10
6.5384754e-06
0.027148912
-5.9522994e-10
3.4166339e-06
0.027133399
-5.9215963e-10
0.027169675
-5.6007461e-10
5.5889465e-06
-5.3420049e-05
-4.5081849e-10
1.577925e-06
-7.6097896e-05
-4.44381e-10
8.0227464e-06
-7.0569068e-05
-4.4368224e-10
9.1462647e-07
-7.5078262e-05
-4.4840562e-10
2.7664079e-06
-7.3991647e-05
-4.5496302e-10
1.4728842e-06
-7.2756905e-05
-4.5402816e-10
3.4443696e-06
-7.4172528e-05
-4.5316983e-10
2.1755887e-06
-7.4418098e-05
-4.5267375e-10
1.6944494e-06
-7.5879587e-05
-4.5338297e-10
-2.6145644e-11
-7.6022939e-05
-4.5598588e-10
-1.6944951e-06
-7.602293e-05
-4.5641691e-10
-2.1756158e-06
-7.5879532e-05
-4.5339695e-10
-3.4443649e-06
-7.4418022e-05
-4.5140769e-10
-1.4728646e-06
-7.4172426e-05
-4.5347006e-10
-2.7663875e-06
-7.2756816e-05
-4.5465982e-10
-9.1463629e-07
-7.399156e-05
-4.533213e-10
-8.0227955e-06
-7.5078179e-05
-4.4573996e-10
-1.5779743e-06
-7.0568963e-05
-4.3550989e-10
-5.5889733e-06
-7.6097771e-05
-4.2897281e-10
-5.3419926e-05
-4.3436753e-10
-1.2672031e-05
-0.051232728
-3.7308846e-10
-7.797681e-06
-0.051279377
-3.7554693e-10
-1.2199981e-05
-0.05126167
-3.7767368e-10
-8.7939486e-06
-0.051273215
-3.8090097e-10
-7.7424193e-06
-0.051266476
-3.8221861e-10
-5.7610991e-06
-0.051270234
-3.8164366e-10
-5.763939e-06
-0.051268185
-3.8209182e-10
-3.6356186e-06
-0.051269724
-3.8254138e-10
-2.2499422e-06
-0.051269113
-3.8139748e-10
5.6986676e-11
-0.051269435
-3.8082617e-10
2.2500674e-06
-0.051269435
-3.8171389e-10
3.6357613e-06
-0.051269113
-3.8219718e-10
5.7640886e-06
-0.051269724
-3.841048e-10
5.7612501e-06
-0.051268185
-3.8416979e-10
7.7425552e-06
-0.051270234
-3.8140617e-10
8.7940607e-06
-0.051266476
-3.7861742e-10
1.2200057e-05
-0.051273215
-3.7585045e-10
7.797712e-06
-0.05126167
-3.7629641e-10
1.2672037e-05
-0.051279377
-3.7843487e-10
-0.051232728
-3.7892935e-10
4.2399035e-06
-0.057655794
-9.6859822e-11
-1.2139144e-05
-0.0576678
-9.8064202e-11
7.0718826e-06
-0.057681468
-1.0066577e-10
4.2462788e-07
-0.057663442
-1.0188645e-10
7.5613981e-06
-0.05767053
-9.8585838e-11
3.3344707e-06
-0.057662387
-1.0137764e-10
5.9399086e-06
-0.057667133
-1.0166302e-10
2.8707976e-06
-0.057663392
-1.0404743e-10
2.4400941e-06
-0.057665912
-1.0484343e-10
-8.5420431e-12
-0.057664913
-1.0140596e-10
-2.4401016e-06
-0.057664913
-1.0068863e-10
-2.870784e-06
-0.057665912
-1.0304823e-10
-5.9398977e-06
-0.057663392
-1.0414011e-10
-3.3344631e-06
-0.057667133
-1.0325741e-10
-7.5614057e-06
-0.057662387
-1.0192421e-10
-4.246422e-07
-0.05767053
-1.009398e-10
-7.0719092e-06
-0.057663443
-1.0174657e-10
1.2139103e-05
-0.057681468
-9.9240471e-11
-4.2399383e-06
-0.057667801
-9.6903546e-11
-0.057655794
-9.2776624e-11
-2.1043409e-05
-0.0087052691
-1.2361461e-10
-2.7080383e-06
-0.0087642624
-1.2420138e-10
-1.5226833e-05
-0.0087556059
-1.2533663e-10
-7.1857703e-06
-0.0087619564
-1.2567783e-10
-1.654445e-05
-0.0087533394
-1.2444471e-10
-9.611549e-06
-0.008758573
-1.250812e-10
-1.1817426e-05
-0.008752586
-1.2428318e-10
-5.3879398e-06
-0.0087558574
-1.2412298e-10
-4.0016425e-06
-0.0087532125
-1.2627569e-10
2.9054658e-11
-0.0087544211
-1.264552e-10
4.0016958e-06
-0.0087544211
-1.2681203e-10
5.3879761e-06
-0.0087532125
-1.2605957e-10
1.181743e-05
-0.0087558575
-1.2314304e-10
9.6115209e-06
-0.008752586
-1.2366541e-10
1.6544376e-05
-0.008758573
-1.2458642e-10
7.1856716e-06
-0.0087533394
-1.2480946e-10
1.5226717e-05
-0.0087619564
-1.2476717e-10
2.7079416e-06
-0.0087556059
-1.2200192e-10
2.1043349e-05
-0.0087642623
-1.1902134e-10
-0.008705269
-1.1907084e-10
4.6814118e-05
-9.4768052e-11
3.5870151e-05
-9.1157753e-11
3.32474e-05
-9.2243158e-11
2.420503e-05
-9.761324e-11
2.1900031e-05
-9.6906612e-11
1.1865523e-05
-9.3411528e-11
7.931589e-06
-9.4289794e-11
2.2668046e-06
-9.3999003e-11
1.0457515e-06
-9.1890841e-11
-7.3236068e-11
-9.4205658e-11
-1.0459003e-06
-9.3371614e-11
-2.2669095e-06
-9.4069709e-11
-7.9316605e-06
-9.201739e-11
-1.1865567e-05
-9.2453018e-11
-2.1900057e-05
-9.2256841e-11
-2.4205051e-05
-9.5980121e-11
-3.3247424e-05
-9.6987969e-11
-3.5870169e-05
-9.4677207e-11
-4.6814129e-05
-9.3958802e-11
-9.315706e-11
-6.8009505e-05
0.0023648639
0.00023458424
-3.4588708e-06
0.0022312815
0.00023463839
-4.3446588e-06
0.0022990781
0.0002346635
4.2550712e-08
0.0022926505
0.00023467545
-4.5195294e-08
0.00229563
0.00023466908
6.0821417e-07
0.0022927305
0.00023466897
-4.8023314e-08
0.0022935627
0.00023466732
-1.1350498e-08
0.002293291
0.00023466761
-3.9510317e-08
0.0022940246
0.00023466707
-3.7981109e-11
0.0022940052
0.00023466699
3.9431446e-08
0.0022940052
0.00023466699
1.1321018e-08
0.0022940246
0.00023466707
4.8003633e-08
0.0022932911
0.00023466761
-6.0821498e-07
0.0022935628
0.00023466732
4.5196132e-08
0.0022927306
0.00023466897
-4.2545362e-08
0.0022956302
0.00023466908
4.3446732e-06
0.0022926507
0.00023467545
3.4588706e-06
0.0022990783
0.00023466352
6.8009459e-05
0.0022312815
0.0002346384
0.0023648639
0.00023458426
2.658136e-05
0.018728868
-0.00013963323
-5.4016556e-07
0.018650848
-0.00013964875
-4.1027886e-06
0.018694356
-0.00013968366
1.3918487e-07
0.018680651
-0.00013969238
-1.860484e-07
0.018686857
-0.00013969406
7.1265141e-07
0.018681508
-0.00013970108
2.0810589e-07
0.018683
-0.00013970418
2.3774888e-07
0.018682485
-0.00013970553
1.1898451e-07
0.018683642
-0.00013970544
-3.9697159e-11
0.018683653
-0.00013970473
-1.1904489e-07
0.018683653
-0.00013970473
-2.3779015e-07
0.018683642
-0.00013970544
-2.0811972e-07
0.018682485
-0.00013970553
-7.1264589e-07
0.018683001
-0.00013970418
1.8605058e-07
0.018681508
-0.00013970108
-1.3919157e-07
0.018686857
-0.00013969406
4.1027647e-06
0.018680651
-0.00013969238
5.4010526e-07
0.018694356
-0.00013968365
-2.6581431e-05
0.018650849
-0.00013964873
0.018728868
-0.00013963314
2.9908346e-06
0.034930793
-5.7020109e-05
-4.5702799e-06
0.034879726
-5.7112123e-05
-5.2758367e-06
0.034909014
-5.7131017e-05
-1.7401705e-06
0.034893921
-5.7140142e-05
-1.1665846e-06
0.034902286
-5.7124467e-05
-5.31211e-08
0.034894577
-5.7120906e-05
-2.1584814e-07
0.034896778
-5.7113155e-05
-4.2222517e-08
0.034895775
-5.7113342e-05
-1.1946728e-07
0.034897757
-5.7112889e-05
-2.4270325e-11
0.034897898
-5.7113727e-05
1.194296e-07
0.034897898
-5.7113727e-05
4.221268e-08
0.034897757
-5.711289e-05
2.1586604e-07
0.034895775
-5.7113343e-05
5.3149895e-08
0.034896778
-5.7113156e-05
1.1666275e-06
0.034894577
-5.7120906e-05
1.740199e-06
0.034902286
-5.7124466e-05
5.2758459e-06
0.034893921
-5.7140144e-05
4.5702609e-06
0.034909014
-5.7131022e-05
-2.9908711e-06
0.034879727
-5.7112154e-05
0.034930793
-5.7020095e-05
1.7563067e-05
0.031021435
-6.7948334e-06
1.3634764e-06
0.030989385
-6.7700884e-06
1.1527384e-06
0.031006328
-6.72964e-06
-7.0363597e-07
0.030995763
-6.7135789e-06
-4.9608953e-07
0.031002241
-6.7282897e-06
4.1798035e-07
0.030997002
-6.7286432e-06
1.3224993e-06
0.030999128
-6.7382061e-06
1.3734289e-06
0.030998135
-6.7402518e-06
9.6187747e-07
0.030999249
-6.7429473e-06
-3.4129492e-11
0.030999149
-6.7431992e-06
-9.6193502e-07
0.030999149
-6.7431987e-06
-1.3734584e-06
0.030999249
-6.7429461e-06
-1.3224956e-06
0.030998135
-6.7402498e-06
-4.1794987e-07
0.030999128
-6.7382034e-06
4.9612322e-07
0.030997002
-6.7286406e-06
7.0366949e-07
0.031002241
-6.7282897e-06
-1.1527231e-06
0.030995763
-6.7135786e-06
-1.3634697e-06
0.031006328
-6.7296373e-06
-1.7563057e-05
0.030989385
-6.7700768e-06
0.031021435
-6.7947909e-06
-3.4166435e-06
0.027169675
1.1968147e-05
-6.5384805e-06
0.027133399
1.1891635e-05
-9.0116183e-06
0.027148912
1.1943118e-05
-5.5403644e-06
0.027135889
1.1948258e-05
-5.4207696e-06
0.027146625
1.1953467e-05
-1.9909519e-06
0.027141447
1.1959229e-05
-8.6780212e-07
0.027145381
1.1960867e-05
2.1387657e-07
0.027142257
1.1962527e-05
6.4385316e-08
0.027142821
1.1961603e-05
7.9732675e-12
0.027141771
1.1961604e-05
-6.4342024e-08
0.027141771
1.1961604e-05
-2.1382055e-07
0.027142821
1.1961604e-05
8.6788192e-07
0.027142257
1.1962529e-05
1.9910523e-06
0.027145381
1.196087e-05
5.4208727e-06
0.027141447
1.195923e-05
5.5404329e-06
0.027146625
1.1953465e-05
9.0116458e-06
0.027135889
1.1948258e-05
6.5384793e-06
0.027148912
1.1943125e-05
3.4166389e-06
0.027133399
1.1891648e-05
0.027169675
1.1968187e-05
5.5889475e-06
-5.3419983e-05
-1.1515693e-05
1.5779243e-06
-7.609783e-05
-1.1564216e-05
8.0227446e-06
-7.0569003e-05
-1.1525613e-05
9.1462603e-07
-7.5078196e-05
-1.15323e-05
2.7664078e-06
-7.399158e-05
-1.1511353e-05
1.4728849e-06
-7.2756838e-05
-1.1526525e-05
3.4443703e-06
-7.4172462e-05
-1.152381e-05
2.1755887e-06
-7.4418032e-05
-1.1534832e-05
1.6944483e-06
-7.587952e-05
-1.1537768e-05
-2.6033538e-11
-7.6022872e-05
-1.1542994e-05
-1.6944945e-06
-7.6022863e-05
-1.1542994e-05
-2.1756157e-06
-7.5879465e-05
-1.1537767e-05
-3.4443652e-06
-7.4417956e-05
-1.1534831e-05
-1.472865e-06
-7.417236e-05
-1.1523809e-05
-2.766387e-06
-7.2756749e-05
-1.1526524e-05
-9.1463491e-07
-7.3991493e-05
-1.1511351e-05
-8.0227931e-06
-7.5078113e-05
-1.1532296e-05
-1.577973e-06
-7.0568898e-05
-1.1525604e-05
-5.5889732e-06
-7.6097709e-05
-1.1564203e-05
-5.3419867e-05
-1.1515676e-05
-1.2672032e-05
-0.051232728
2.5334532e-05
-7.7976815e-06
-0.051279377
2.4982606e-05
-1.2199981e-05
-0.05126167
2.4938363e-05
-8.7939491e-06
-0.051273215
2.4902597e-05
-7.7424194e-06
-0.051266476
2.4916275e-05
-5.7610995e-06
-0.051270234
2.491976e-05
-5.763938e-06
-0.051268185
2.4942114e-05
-3.6356179e-06
-0.051269724
2.495218e-05
-2.2499429e-06
-0.051269113
2.4965065e-05
5.6920032e-11
-0.051269435
2.4968128e-05
2.250067e-06
-0.051269435
2.4968129e-05
3.6357609e-06
-0.051269113
2.4965064e-05
5.7640889e-06
-0.051269724
2.4952179e-05
5.7612505e-06
-0.051268185
2.4942115e-05
7.7425561e-06
-0.051270234
2.4919762e-05
8.7940614e-06
-0.051266476
2.491628e-05
1.2200057e-05
-0.051273215
2.4902603e-05
7.7977114e-06
-0.05126167
2.4938369e-05
1.2672037e-05
-0.051279377
2.4982609e-05
-0.051232728
2.5334537e-05
4.2399018e-06
-0.057655794
2.327168e-05
-1.2139145e-05
-0.0576678
2.3469405e-05
7.0718833e-06
-0.057681468
2.3278666e-05
4.246283e-07
-0.057663442
2.3342693e-05
7.5613979e-06
-0.05767053
2.3387503e-05
3.3344702e-06
-0.057662387
2.3434988e-05
5.9399088e-06
-0.057667133
2.3435103e-05
2.8707979e-06
-0.057663392
2.3446281e-05
2.4400941e-06
-0.057665912
2.3436338e-05
-8.6878357e-12
-0.057664913
2.3434601e-05
-2.4401019e-06
-0.057664913
2.34346e-05
-2.870784e-06
-0.057665912
2.3436337e-05
-5.9398971e-06
-0.057663392
2.3446279e-05
-3.3344622e-06
-0.057667133
2.34351e-05
-7.5614055e-06
-0.057662387
2.3434985e-05
-4.2464202e-07
-0.05767053
2.33875e-05
-7.0719096e-06
-0.057663443
2.334269e-05
1.2139103e-05
-0.057681468
2.3278664e-05
-4.2399377e-06
-0.057667801
2.34694e-05
-0.057655794
2.3271676e-05
-2.104341e-05
-0.0087052691
5.2870242e-05
-2.7080386e-06
-0.0087642624
5.3067942e-05
-1.5226833e-05
-0.0087556059
5.3172311e-05
-7.1857702e-06
-0.0087619564
5.3179758e-05
-1.654445e-05
-0.0087533394
5.3152884e-05
-9.611549e-06
-0.008758573
5.3129829e-05
-1.1817426e-05
-0.008752586
5.3114237e-05
-5.3879406e-06
-0.0087558574
5.3101594e-05
-4.0016424e-06
-0.0087532124
5.3097182e-05
2.9681539e-11
-0.0087544211
5.3095343e-05
4.0016959e-06
-0.0087544211
5.3095342e-05
5.3879765e-06
-0.0087532124
5.3097181e-05
1.181743e-05
-0.0087558574
5.3101595e-05
9.6115205e-06
-0.008752586
5.3114238e-05
1.6544375e-05
-0.008758573
5.312983e-05
7.1856721e-06
-0.0087533394
5.3152885e-05
1.5226718e-05
-0.0087619564
5.317976e-05
2.7079424e-06
-0.0087556059
5.3172314e-05
2.1043349e-05
-0.0087642623
5.3067948e-05
-0.008705269
5.2870244e-05
4.6814115e-05
-0.00012056983
3.5870152e-05
-0.00012093654
3.3247403e-05
-0.0001207467
2.420503e-05
-0.00012079127
2.1900031e-05
-0.00012076608
1.1865523e-05
-0.00012078631
7.9315893e-06
-0.00012078476
2.2668046e-06
-0.00012079421
1.0457511e-06
-0.00012079313
-7.3122534e-11
-0.00012079559
-1.0458998e-06
-0.00012079559
-2.2669092e-06
-0.00012079313
-7.9316602e-06
-0.00012079421
-1.1865567e-05
-0.00012078476
-2.1900056e-05
-0.00012078631
-2.420505e-05
-0.00012076607
-3.3247426e-05
-0.00012079127
-3.587017e-05
-0.0001207467
-4.6814129e-05
-0.00012093654
-0.00012056983
-6.7928437e-05
0.0028370974
-3.4452298e-06
0.0027041254
-4.3427949e-06
0.0027718223
4.2660499e-08
0.0027653954
-4.5442217e-08
0.0027683663
6.0823103e-07
0.0027654705
-4.7884084e-08
0.0027663014
-1.1279666e-08
0.0027660307
-3.9451004e-08
0.002766763
-3.7996741e-11
0.0027667438
3.9371981e-08
0.0027667438
1.1250109e-08
0.0027667631
4.7863828e-08
0.0027660307
-6.0823161e-07
0.0027663015
4.5443881e-08
0.0027654706
-4.2653938e-08
0.0027683665
4.3428097e-06
0.0027653956
3.4452324e-06
0.0027718224
6.79284e-05
0.0027041254
0.0028370974
2.654956e-05
0.018892189
-5.5294823e-07
0.018814313
-4.1067303e-06
0.018857777
1.3738205e-07
0.018844054
-1.8701517e-07
0.018850272
7.1139661e-07
0.018844921
2.0795111e-07
0.018846417
2.3797779e-07
0.018845901
1.1925642e-07
0.018847059
-3.9722437e-11
0.018847071
-1.1931684e-07
0.018847071
-2.3801904e-07
0.018847059
-2.0796481e-07
0.018845901
-7.1139078e-07
0.018846417
1.8701783e-07
0.018844921
-1.3738788e-07
0.018850273
4.1067096e-06
0.018844055
5.5289742e-07
0.018857777
-2.6549621e-05
0.018814313
0.01889219
2.9646233e-06
0.034975823
-4.5822333e-06
0.034924921
-5.2779427e-06
0.034954007
-1.7358912e-06
0.034938902
-1.1621743e-06
0.034947285
-5.118709e-08
0.034939569
-2.1443788e-07
0.034941772
-4.1983856e-08
0.034940769
-1.1941061e-07
0.034942751
-2.4362705e-11
0.034942893
1.1937288e-07
0.034942893
4.1974035e-08
0.034942751
2.1445577e-07
0.034940769
5.1215725e-08
0.034941772
1.1622172e-06
0.034939569
1.7359195e-06
0.034947285
5.2779498e-06
0.034938902
4.5822182e-06
0.034954007
-2.9646481e-06
0.034924922
0.034975823
1.7571405e-05
0.031058948
1.375111e-06
0.031026951
1.1617357e-06
0.031043858
-7.0602819e-07
0.031033282
-4.9874816e-07
0.031039768
4.1549685e-07
0.031034525
1.3209979e-06
0.031036651
1.3725709e-06
0.031035658
9.6166489e-07
0.031036773
-3.4037734e-11
0.031036673
-9.6172224e-07
0.031036673
-1.3726001e-06
0.031036773
-1.3209941e-06
0.031035659
-4.1546639e-07
0.031036651
4.9878184e-07
0.031034525
7.060621e-07
0.031039768
-1.1617189e-06
0.031033282
-1.3751006e-06
0.031043858
-1.7571388e-05
0.031026951
0.031058948
-3.4261986e-06
0.027222137
-6.5254533e-06
0.027185912
-9.003634e-06
0.027201425
-5.5344899e-06
0.027188423
-5.4184291e-06
0.027199141
-1.9884562e-06
0.027193973
-8.6726079e-07
0.027197898
2.1428088e-07
0.027194779
6.4531081e-08
0.02719534
8.0229678e-12
0.027194293
-6.4488006e-08
0.027194293
-2.1422473e-07
0.02719534
8.6734063e-07
0.027194779
1.9885561e-06
0.027197898
5.4185318e-06
0.027193973
5.534559e-06
0.027199141
9.0036636e-06
0.027188423
6.5254557e-06
0.027201425
3.4261998e-06
0.027185912
0.027222137
5.5794775e-06
-1.2174182e-05
1.5797641e-06
-3.4923989e-05
8.0271903e-06
-2.9417974e-05
9.1477488e-07
-3.3918935e-05
2.7628598e-06
-3.2835251e-05
1.4690329e-06
-3.1594699e-05
3.4401952e-06
-3.3010913e-05
2.171943e-06
-3.3251212e-05
1.6922815e-06
-3.4711788e-05
-2.5758725e-11
-3.4853356e-05
-1.692327e-06
-3.4853347e-05
-2.17197e-06
-3.4711733e-05
-3.4401904e-06
-3.3251137e-05
-1.4690136e-06
-3.3010811e-05
-2.7628387e-06
-3.159461e-05
-9.1478262e-07
-3.2835164e-05
-8.0272367e-06
-3.3918851e-05
-1.5798115e-06
-2.941787e-05
-5.5795022e-06
-3.492387e-05
-1.217407e-05
-1.2761435e-05
-0.051157379
-7.8404969e-06
-0.051204229
-1.2205149e-05
-0.051186553
-8.782417e-06
-0.05119808
-7.7355892e-06
-0.051191344
-5.7518811e-06
-0.051195095
-5.756761e-06
-0.051193041
-3.6304178e-06
-0.051194577
-2.2477173e-06
-0.051193964
5.6989453e-11
-0.051194286
2.2478423e-06
-0.051194286
3.63056e-06
-0.051193964
5.7569114e-06
-0.051194577
5.7520331e-06
-0.051193041
7.7357266e-06
-0.051195095
8.7825304e-06
-0.051191344
1.2205224e-05
-0.05119808
7.8405261e-06
-0.051186553
1.2761441e-05
-0.051204229
-0.051157379
4.2638185e-06
-0.057500943
-1.2169475e-05
-0.057512744
7.0803182e-06
-0.05752646
4.4681816e-07
-0.057508409
7.573327e-06
-0.057515536
3.3328273e-06
-0.057507379
5.938255e-06
-0.057512132
2.8642966e-06
-0.05750839
2.43733e-06
-0.057510913
-8.523506e-12
-0.057509914
-2.4373378e-06
-0.057509914
-2.8642834e-06
-0.057510913
-5.9382439e-06
-0.05750839
-3.3328196e-06
-0.057512132
-7.5733348e-06
-0.057507379
-4.4683198e-07
-0.057515536
-7.0803447e-06
-0.057508409
1.2169433e-05
-0.057526461
-4.263854e-06
-0.057512744
-0.057500943
-2.0968174e-05
-0.0084649301
-2.6606282e-06
-0.0085234978
-1.5208993e-05
-0.0085148998
-7.1900349e-06
-0.0085212309
-1.6545209e-05
-0.0085126466
-9.6132954e-06
-0.008517863
-1.1816471e-05
-0.0085118834
-5.3873403e-06
-0.0085151504
-4.0006383e-06
-0.0085125089
2.9512168e-11
-0.0085137166
4.0006916e-06
-0.0085137166
5.3873763e-06
-0.0085125089
1.1816476e-05
-0.0085151504
9.6132673e-06
-0.0085118834
1.6545134e-05
-0.008517863
7.1899366e-06
-0.0085126466
1.5208878e-05
-0.0085212308
2.6605322e-06
-0.0085148998
2.0968112e-05
-0.0085234977
-0.00846493
4.6965737e-05
3.5818332e-05
3.3250472e-05
2.4191305e-05
2.1890339e-05
1.1856178e-05
7.9256297e-06
2.2631273e-06
1.0439733e-06
-7.3149054e-11
-1.0441206e-06
-2.2632327e-06
-7.9257006e-06
-1.1856221e-05
-2.1890365e-05
-2.4191326e-05
-3.3250496e-05
-3.581835e-05
-4.6965748e-05
)
;

boundaryField
{
    left
    {
        type            calculated;
        value           uniform 0;
    }
    right
    {
        type            calculated;
        value           uniform 0;
    }
    walls
    {
        type            calculated;
        value           uniform 0;
    }
    centreline
    {
        type            calculated;
        value           nonuniform List<scalar> 
80
(
-0.014479025
-0.014479205