/*--------------------------------*- C++ -*----------------------------------*\
  =========                 |
  \\      /  F ield         | OpenFOAM: The Open Source CFD Toolbox
   \\    /   O peration     | Website:  https://openfoam.org
    \\  /    A nd           | Version:  8
     \\/     M anipulation  |
\*---------------------------------------------------------------------------*/
FoamFile
{
    version     2.0;
    format      ascii;
    class       volVectorField;
    location    "1";
    object      U;
}
// * * * * * * * * * * * * * * * * * * * * * * * * * * * * * * * * * * * * * //

dimensions      [0 1 -1 0 0 0 0];

internalField   nonuniform List<vector> 
800
(
(-0.00080248022 4.0965206 -0.0016147475)
(2.2742281e-05 4.0970507 -0.0016153829)
(-6.0266719e-05 4.0972301 -0.0016154507)
(1.3014138e-05 4.0972358 -0.001615477)
(-1.2734903e-05 4.0972334 -0.0016154593)
(1.1975945e-05 4.0972405 -0.0016154616)
(-5.8317478e-06 4.0972339 -0.0016154557)
(5.5910982e-06 4.0972424 -0.0016154583)
(-5.8535315e-06 4.097239 -0.0016154562)
(5.6474976e-06 4.0972427 -0.001615457)
(-5.6479112e-06 4.0972427 -0.001615457)
(5.8532729e-06 4.097239 -0.0016154562)
(-5.5912685e-06 4.0972424 -0.0016154583)
(5.8317193e-06 4.0972339 -0.0016154557)
(-1.1975931e-05 4.0972405 -0.0016154616)
(1.2734891e-05 4.0972334 -0.0016154593)
(-1.3014099e-05 4.0972358 -0.001615477)
(6.0266758e-05 4.0972301 -0.0016154507)
(-2.2742261e-05 4.0970507 -0.0016153829)
(0.0008024802 4.0965206 -0.0016147476)
(0.00020547239 -4.7674977 0.00037590921)
(5.8502961e-05 -4.7688815 0.00037609014)
(-6.2151954e-05 -4.7687009 0.00037613529)
(1.7618135e-05 -4.768746 0.00037617561)
(-1.5622885e-05 -4.7687253 0.00037617142)
(1.3125472e-05 -4.7687505 0.00037619003)
(-6.2637858e-06 -4.7687378 0.00037619462)
(8.5385102e-06 -4.7687493 0.0003761974)
(-6.3545051e-06 -4.768741 0.00037619592)
(7.8994814e-06 -4.7687455 0.00037619444)
(-7.8998935e-06 -4.7687455 0.00037619444)
(6.3542416e-06 -4.768741 0.00037619592)
(-8.5386579e-06 -4.7687493 0.0003761974)
(6.2637889e-06 -4.7687378 0.00037619462)
(-1.3125429e-05 -4.7687505 0.00037619003)
(1.562286e-05 -4.7687253 0.00037617142)
(-1.7618204e-05 -4.768746 0.00037617561)
(6.2151775e-05 -4.7687009 0.00037613529)
(-5.8503379e-05 -4.7688815 0.00037609013)
(-0.00020547272 -4.7674977 0.0003759092)
(4.156751e-05 5.7049529 0.00010889327)
(-1.1119579e-05 5.7060606 0.0001090629)
(-3.509361e-05 5.7061319 0.00010912913)
(-5.7483026e-06 5.7060986 0.00010913839)
(-1.231535e-05 5.7061128 0.00010911171)
(3.7726035e-06 5.7061079 0.00010910447)
(-4.6565313e-06 5.7061023 0.00010909044)
(3.2396861e-06 5.7061124 0.00010909091)
(-3.836168e-06 5.7061104 0.00010909006)
(3.0129468e-06 5.7061155 0.0001090912)
(-3.0131555e-06 5.7061155 0.0001090912)
(3.8360669e-06 5.7061104 0.00010909006)
(-3.2396869e-06 5.7061124 0.00010909091)
(4.6566761e-06 5.7061023 0.00010909044)
(-3.7724078e-06 5.7061079 0.00010910447)
(1.2315513e-05 5.7061128 0.00010911171)
(5.7484248e-06 5.7060986 0.00010913839)
(3.5093623e-05 5.7061319 0.00010912912)
(1.1119489e-05 5.7060606 0.00010906287)
(-4.1567631e-05 5.7049529 0.00010889321)
(0.00010056157 -6.4966001 2.3756166e-05)
(1.9580958e-05 -6.4981799 2.3752495e-05)
(-4.5927184e-06 -6.4980978 2.3653824e-05)
(9.7677213e-06 -6.4981477 2.3628919e-05)
(-1.292843e-05 -6.4981149 2.3653944e-05)
(8.220901e-06 -6.4981525 2.3654131e-05)
(-4.6381605e-06 -6.498133 2.3670419e-05)
(1.4793513e-05 -6.49815 2.3673597e-05)
(-5.0657101e-06 -6.4981366 2.3678319e-05)
(1.2280677e-05 -6.4981417 2.3678896e-05)
(-1.2280939e-05 -6.4981417 2.3678897e-05)
(5.0655547e-06 -6.4981366 2.3678319e-05)
(-1.4793582e-05 -6.49815 2.3673598e-05)
(4.6382541e-06 -6.498133 2.367042e-05)
(-8.2207519e-06 -6.4981525 2.3654132e-05)
(1.2928563e-05 -6.4981149 2.3653944e-05)
(-9.7676351e-06 -6.4981477 2.3628916e-05)
(4.5927149e-06 -6.4980978 2.3653819e-05)
(-1.9580946e-05 -6.4981799 2.3752497e-05)
(-0.00010056154 -6.4966001 2.3756194e-05)
(-1.3483023e-06 7.8211125 -3.0765793e-05)
(-1.5040676e-05 7.8227501 -3.0698212e-05)
(-3.4202404e-05 7.8227623 -3.076575e-05)
(-1.9025463e-05 7.8227543 -3.0785334e-05)
(-2.0689971e-05 7.8227566 -3.0783896e-05)
(-1.0746014e-05 7.8227669 -3.0795532e-05)
(-3.4788504e-06 7.8227578 -3.079233e-05)
(-1.416324e-06 7.8227707 -3.0794863e-05)
(2.4636732e-06 7.8227623 -3.0791551e-05)
(-2.1291208e-06 7.8227671 -3.0791786e-05)
(2.1291748e-06 7.8227671 -3.0791785e-05)
(-2.4635734e-06 7.8227623 -3.0791551e-05)
(1.4165064e-06 7.8227707 -3.079486e-05)
(3.4791621e-06 7.8227578 -3.079233e-05)
(1.0746372e-05 7.8227669 -3.079553e-05)
(2.0690257e-05 7.8227566 -3.0783892e-05)
(1.9025642e-05 7.8227543 -3.0785334e-05)
(3.4202383e-05 7.8227623 -3.0765758e-05)
(1.5040638e-05 7.8227501 -3.0698201e-05)
(1.3482615e-06 7.8211125 -3.0765764e-05)
(4.2226398e-05 -9.0247398 2.7674206e-05)
(-1.5506171e-05 -9.0268404 2.7748136e-05)
(2.8069251e-05 -9.0267708 2.7675633e-05)
(8.5854526e-06 -9.0268319 2.7695453e-05)
(-8.2767968e-07 -9.0267776 2.7663818e-05)
(1.2863465e-05 -9.0268179 2.7688749e-05)
(-2.9515726e-06 -9.0267865 2.7685113e-05)
(2.1989224e-05 -9.0268171 2.7702767e-05)
(-1.0366498e-05 -9.026804 2.7706778e-05)
(1.9618318e-05 -9.0268147 2.7714358e-05)
(-1.9618465e-05 -9.0268147 2.771436e-05)
(1.0366406e-05 -9.026804 2.7706778e-05)
(-2.1989277e-05 -9.0268171 2.7702768e-05)
(2.9516235e-06 -9.0267865 2.7685116e-05)
(-1.2863393e-05 -9.0268179 2.768875e-05)
(8.2769688e-07 -9.0267776 2.7663815e-05)
(-8.5855293e-06 -9.0268319 2.7695456e-05)
(-2.8069437e-05 -9.0267708 2.7675641e-05)
(1.550603e-05 -9.0268404 2.7748141e-05)
(-4.2226421e-05 -9.0247398 2.7674209e-05)
(-4.7006613e-05 10.565273 -4.0152938e-05)
(-1.0876493e-05 10.567592 -3.9779998e-05)
(-3.0049797e-05 10.567541 -3.9737456e-05)
(-2.4327648e-05 10.567588 -3.9728462e-05)
(-1.8213671e-05 10.56753 -3.9740062e-05)
(-1.9056043e-05 10.567585 -3.9744364e-05)
(-7.6326593e-06 10.56754 -3.9765475e-05)
(-2.0862903e-05 10.567573 -3.9775299e-05)
(4.3684925e-06 10.567549 -3.9787089e-05)
(-1.4825096e-05 10.567561 -3.9789393e-05)
(1.4825371e-05 10.567561 -3.9789393e-05)
(-4.3681753e-06 10.567549 -3.978709e-05)
(2.0863255e-05 10.567573 -3.97753e-05)
(7.6330275e-06 10.56754 -3.9765477e-05)
(1.9056391e-05 10.567585 -3.9744365e-05)
(1.8213955e-05 10.56753 -3.9740064e-05)
(2.4327901e-05 10.567588 -3.9728462e-05)
(3.0049905e-05 10.567541 -3.9737455e-05)
(1.087655e-05 10.567592 -3.9780003e-05)
(4.7006585e-05 10.565273 -4.0152951e-05)
(8.794565e-05 -12.717387 -1.8035817e-05)
(-7.2319246e-05 -12.720388 -1.8250058e-05)
(2.4368672e-05 -12.720213 -1.8084288e-05)
(4.2148452e-06 -12.720343 -1.8160513e-05)
(-2.1678273e-06 -12.720231 -1.8204936e-05)
(3.28385e-05 -12.72032 -1.8244665e-05)
(-1.9332299e-05 -12.720253 -1.8236875e-05)
(4.3633037e-05 -12.720302 -1.824091e-05)
(-3.1675504e-05 -12.72027 -1.8227925e-05)
(4.1960936e-05 -12.720285 -1.8223697e-05)
(-4.1960976e-05 -12.720285 -1.8223689e-05)
(3.1675533e-05 -12.72027 -1.8227931e-05)
(-4.3633026e-05 -12.720302 -1.8240909e-05)
(1.9332341e-05 -12.720253 -1.8236876e-05)
(-3.2838518e-05 -12.72032 -1.824466e-05)
(2.1678108e-06 -12.720231 -1.8204932e-05)
(-4.2148899e-06 -12.720343 -1.8160507e-05)
(-2.4368738e-05 -12.720213 -1.8084283e-05)
(7.2319137e-05 -12.720388 -1.8250056e-05)
(-8.7945677e-05 -12.717387 -1.803581e-05)
(-9.9668208e-05 14.62699 -5.5959613e-05)
(2.8218548e-05 14.630438 -5.6142715e-05)
(-3.8667998e-05 14.63017 -5.6210369e-05)
(-1.2757442e-05 14.630405 -5.6207718e-05)
(-1.4630884e-05 14.630241 -5.6186061e-05)
(-4.0593731e-05 14.630382 -5.6172708e-05)
(5.5613525e-06 14.630282 -5.6163938e-05)
(-4.4939069e-05 14.630355 -5.6157871e-05)
(2.499167e-05 14.630306 -5.6155778e-05)
(-3.8485274e-05 14.630329 -5.6155631e-05)
(3.8485375e-05 14.630329 -5.615563e-05)
(-2.4991588e-05 14.630306 -5.6155777e-05)
(4.4939115e-05 14.630355 -5.615787e-05)
(-5.5613797e-06 14.630282 -5.6163937e-05)
(4.0593657e-05 14.630382 -5.6172708e-05)
(1.4630707e-05 14.630241 -5.618606e-05)
(1.2757266e-05 14.630405 -5.620772e-05)
(3.8667773e-05 14.63017 -5.621037e-05)
(-2.8218675e-05 14.630438 -5.6142715e-05)
(9.9668124e-05 14.62699 -5.595961e-05)
(-3.753591e-05 -17.172054 -0.00096485461)
(0.00017180269 -17.176372 -0.00096495759)
(-5.7299349e-05 -17.176015 -0.000965083)
(0.00015134845 -17.176321 -0.00096505787)
(-7.3320355e-05 -17.176084 -0.00096506601)
(0.00013402216 -17.176275 -0.00096505865)
(-9.4776429e-05 -17.176127 -0.00096505557)
(0.00011558746 -17.176231 -0.0009650534)
(-0.00010721497 -17.176159 -0.00096505245)
(0.00010959109 -17.176191 -0.00096505231)
(-0.0001095913 -17.176191 -0.00096505231)
(0.00010721477 -17.176159 -0.00096505246)
(-0.0001155876 -17.176231 -0.00096505341)
(9.4776361e-05 -17.176127 -0.00096505557)
(-0.00013402223 -17.176275 -0.00096505866)
(7.3320357e-05 -17.176084 -0.00096506601)
(-0.00015134852 -17.176321 -0.00096505786)
(5.7299352e-05 -17.176015 -0.000965083)
(-0.00017180274 -17.176372 -0.00096495758)
(3.7535927e-05 -17.172054 -0.0009648546)
(-0.00080359596 4.0986493 0.00027640453)
(2.2707149e-05 4.0991784 0.00027631562)
(-6.030892e-05 4.0993583 0.00027634427)
(1.3016939e-05 4.099364 0.00027631464)
(-1.2738536e-05 4.0993616 0.00027633483)
(1.1982432e-05 4.0993688 0.00027633536)
(-5.8378331e-06 4.0993622 0.00027633915)
(5.5955629e-06 4.0993707 0.00027633917)
(-5.859057e-06 4.0993672 0.00027633966)
(5.6525041e-06 4.099371 0.00027633991)
(-5.6529181e-06 4.099371 0.00027633991)
(5.8587973e-06 4.0993672 0.00027633966)
(-5.5957338e-06 4.0993707 0.00027633917)
(5.8378053e-06 4.0993622 0.00027633914)
(-1.1982417e-05 4.0993688 0.00027633536)
(1.2738525e-05 4.0993616 0.00027633483)
(-1.3016896e-05 4.099364 0.00027631465)
(6.0308964e-05 4.0993583 0.00027634429)
(-2.2707181e-05 4.0991784 0.00027631566)
(0.00080359589 4.0986493 0.00027640435)
(0.00020576905 -4.7726878 0.00035714808)
(5.8587472e-05 -4.774074 0.00035722622)
(-6.2122857e-05 -4.7738934 0.00035730512)
(1.7644632e-05 -4.7739386 0.00035734235)
(-1.5628374e-05 -4.7739179 0.00035734042)
(1.314247e-05 -4.7739431 0.00035735833)
(-6.2684535e-06 -4.7739304 0.00035736345)
(8.5444137e-06 -4.7739419 0.00035736596)
(-6.362776e-06 -4.7739336 0.00035736462)
(7.9046511e-06 -4.7739381 0.00035736307)
(-7.9050637e-06 -4.7739381 0.00035736307)
(6.3625122e-06 -4.7739336 0.00035736462)
(-8.5445627e-06 -4.7739419 0.00035736595)
(6.2684563e-06 -4.7739304 0.00035736344)
(-1.3142425e-05 -4.7739431 0.00035735833)
(1.562835e-05 -4.7739179 0.00035734043)
(-1.7644701e-05 -4.7739386 0.00035734236)
(6.212267e-05 -4.7738934 0.00035730514)
(-5.8587898e-05 -4.774074 0.00035722621)
(-0.00020576938 -4.7726878 0.00035714823)
(4.1704209e-05 5.7099156 0.00012387249)
(-1.1012342e-05 5.7110248 0.00012403612)
(-3.5080094e-05 5.7110966 0.00012410041)
(-5.7553339e-06 5.7110634 0.00012410995)
(-1.2344801e-05 5.7110775 0.00012408299)
(3.763362e-06 5.7110726 0.00012407567)
(-4.670446e-06 5.711067 0.00012406163)
(3.241742e-06 5.7110771 0.00012406211)
(-3.8406589e-06 5.711075 0.0001240613)
(3.0167379e-06 5.7110802 0.00012406244)
(-3.0169459e-06 5.7110802 0.00012406244)
(3.8405589e-06 5.711075 0.0001240613)
(-3.241743e-06 5.7110771 0.00012406211)
(4.67059e-06 5.711067 0.00012406163)
(-3.7631642e-06 5.7110726 0.00012407567)
(1.2344964e-05 5.7110775 0.000124083)
(5.7554489e-06 5.7110634 0.00012410995)
(3.5080095e-05 5.7110966 0.00012410039)
(1.1012232e-05 5.7110248 0.00012403604)
(-4.1704341e-05 5.7099156 0.00012387233)
(0.00010060632 -6.5026153 6.3810316e-06)
(1.9520412e-05 -6.5041975 6.3577259e-06)
(-4.648146e-06 -6.504115 6.2605772e-06)
(9.7731942e-06 -6.5041648 6.2351987e-06)
(-1.2920652e-05 -6.504132 6.2606098e-06)
(8.2360613e-06 -6.5041696 6.2607508e-06)
(-4.6357009e-06 -6.5041501 6.2771327e-06)
(1.480507e-05 -6.5041671 6.2802324e-06)
(-5.0711195e-06 -6.5041538 6.2849657e-06)
(1.2289051e-05 -6.5041588 6.2855174e-06)
(-1.2289313e-05 -6.5041588 6.2855187e-06)
(5.0709649e-06 -6.5041538 6.2849689e-06)
(-1.480514e-05 -6.5041671 6.280237e-06)
(4.6357949e-06 -6.5041501 6.2771381e-06)
(-8.2359124e-06 -6.5041696 6.2607508e-06)
(1.2920784e-05 -6.504132 6.2606086e-06)
(-9.7731119e-06 -6.5041648 6.2351948e-06)
(4.6481476e-06 -6.504115 6.2605728e-06)
(-1.9520387e-05 -6.5041975 6.3577335e-06)
(-0.00010060628 -6.5026153 6.3811186e-06)
(-1.3070774e-06 7.8278693 -1.2980089e-05)
(-1.5046549e-05 7.8295093 -1.290943e-05)
(-3.4261185e-05 7.8295214 -1.2977852e-05)
(-1.9037751e-05 7.8295133 -1.2997082e-05)
(-2.0705384e-05 7.8295157 -1.2995862e-05)
(-1.0752837e-05 7.829526 -1.300747e-05)
(-3.4837685e-06 7.8295169 -1.3004281e-05)
(-1.4175315e-06 7.8295298 -1.3006838e-05)
(2.4630876e-06 7.8295213 -1.3003559e-05)
(-2.1292873e-06 7.8295262 -1.3003811e-05)
(2.1293412e-06 7.8295262 -1.300381e-05)
(-2.462986e-06 7.8295213 -1.3003554e-05)
(1.4177112e-06 7.8295298 -1.3006833e-05)
(3.4840831e-06 7.8295169 -1.3004273e-05)
(1.0753194e-05 7.829526 -1.3007469e-05)
(2.070567e-05 7.8295157 -1.2995864e-05)
(1.9037927e-05 7.8295133 -1.2997082e-05)
(3.4261176e-05 7.8295214 -1.2977836e-05)
(1.5046522e-05 7.8295093 -1.2909402e-05)
(1.3070457e-06 7.8278693 -1.2980016e-05)
(4.2296764e-05 -9.03288 1.0486743e-05)
(-1.5522123e-05 -9.0349835 1.0545568e-05)
(2.8063748e-05 -9.0349137 1.0474024e-05)
(8.5826027e-06 -9.0349749 1.0493247e-05)
(-8.2832984e-07 -9.0349205 1.0461901e-05)
(1.2884789e-05 -9.0349609 1.0486799e-05)
(-2.9514216e-06 -9.0349295 1.04832e-05)
(2.2013676e-05 -9.0349601 1.0500976e-05)
(-1.0372337e-05 -9.034947 1.0504987e-05)
(1.9635648e-05 -9.0349576 1.0512565e-05)
(-1.9635796e-05 -9.0349576 1.0512565e-05)
(1.0372247e-05 -9.034947 1.0504986e-05)
(-2.2013731e-05 -9.0349601 1.0500977e-05)
(2.9514724e-06 -9.0349295 1.04832e-05)
(-1.2884717e-05 -9.0349609 1.0486798e-05)
(8.2834625e-07 -9.0349205 1.0461901e-05)
(-8.5826795e-06 -9.0349749 1.0493249e-05)
(-2.8063928e-05 -9.0349137 1.0474033e-05)
(1.5521979e-05 -9.0349835 1.0545585e-05)
(-4.2296787e-05 -9.03288 1.0486757e-05)
(-4.6847153e-05 10.574523 -2.2993948e-05)
(-1.0667943e-05 10.576846 -2.2608121e-05)
(-3.003913e-05 10.576794 -2.2566118e-05)
(-2.4337388e-05 10.576842 -2.2556841e-05)
(-1.8229954e-05 10.576784 -2.256859e-05)
(-1.9078001e-05 10.576839 -2.2572866e-05)
(-7.649767e-06 10.576793 -2.2594004e-05)
(-2.0882401e-05 10.576827 -2.2603869e-05)
(4.3649917e-06 10.576803 -2.2615639e-05)
(-1.4833008e-05 10.576815 -2.2617934e-05)
(1.4833282e-05 10.576815 -2.2617936e-05)
(-4.3646745e-06 10.576803 -2.261564e-05)
(2.0882753e-05 10.576827 -2.2603872e-05)
(7.6501341e-06 10.576793 -2.2594008e-05)
(1.9078351e-05 10.576839 -2.2572867e-05)
(1.8230238e-05 10.576784 -2.2568589e-05)
(2.4337638e-05 10.576842 -2.2556838e-05)
(3.0039237e-05 10.576794 -2.2566119e-05)
(1.0667995e-05 10.576846 -2.2608128e-05)
(4.6847122e-05 10.574523 -2.2993963e-05)
(8.7926203e-05 -12.728637 -3.5644248e-05)
(-7.23777e-05 -12.731642 -3.5885731e-05)
(2.4441869e-05 -12.731466 -3.5721074e-05)
(4.1683191e-06 -12.731597 -3.5796689e-05)
(-2.2111071e-06 -12.731485 -3.5841343e-05)
(3.2848107e-05 -12.731574 -3.5881003e-05)
(-1.9346453e-05 -12.731507 -3.5873169e-05)
(4.3666082e-05 -12.731556 -3.5877296e-05)
(-3.1690564e-05 -12.731524 -3.5864247e-05)
(4.1990553e-05 -12.731539 -3.5860052e-05)
(-4.1990592e-05 -12.731539 -3.5860057e-05)
(3.1690595e-05 -12.731524 -3.5864237e-05)
(-4.3666072e-05 -12.731556 -3.5877296e-05)
(1.9346495e-05 -12.731507 -3.5873167e-05)
(-3.2848124e-05 -12.731574 -3.5881003e-05)
(2.2110976e-06 -12.731485 -3.5841347e-05)
(-4.1683788e-06 -12.731597 -3.5796689e-05)
(-2.4441926e-05 -12.731466 -3.5721074e-05)
(7.2377595e-05 -12.731642 -3.5885727e-05)
(-8.7926227e-05 -12.728637 -3.5644241e-05)
(-9.9833988e-05 14.639412 -2.8246737e-05)
(2.8124762e-05 14.642863 -2.8386888e-05)
(-3.8734426e-05 14.642595 -2.8454597e-05)
(-1.2755096e-05 14.64283 -2.8451072e-05)
(-1.4622349e-05 14.642666 -2.843121e-05)
(-4.0601581e-05 14.642806 -2.8416353e-05)
(5.5745155e-06 14.642707 -2.84092e-05)
(-4.4956051e-05 14.64278 -2.8402026e-05)
(2.5007222e-05 14.642731 -2.8400812e-05)
(-3.8504524e-05 14.642753 -2.8400288e-05)
(3.8504623e-05 14.642753 -2.8400288e-05)
(-2.5007139e-05 14.642731 -2.8400812e-05)
(4.4956096e-05 14.64278 -2.8402025e-05)
(-5.5745421e-06 14.642707 -2.8409199e-05)
(4.0601507e-05 14.642806 -2.8416352e-05)
(1.4622172e-05 14.642666 -2.843121e-05)
(1.2754919e-05 14.64283 -2.8451067e-05)
(3.8734202e-05 14.642595 -2.8454595e-05)
(-2.8124888e-05 14.642863 -2.8386884e-05)
(9.9833906e-05 14.639412 -2.8246732e-05)
(-3.8248144e-05 -17.187762 0.0011392082)
(0.000172067 -17.192086 0.0011398651)
(-5.7407671e-05 -17.191728 0.0011397105)
(0.0001514495 -17.192034 0.0011397585)
(-7.3379231e-05 -17.191797 0.0011397323)
(0.00013410894 -17.191989 0.0011397536)
(-9.4834514e-05 -17.191841 0.001139746)
(0.00011566275 -17.191944 0.0011397557)
(-0.00010727832 -17.191872 0.0011397517)
(0.00010965928 -17.191905 0.0011397543)
(-0.00010965949 -17.191905 0.0011397543)
(0.00010727812 -17.191872 0.0011397517)
(-0.00011566289 -17.191944 0.0011397557)
(9.4834445e-05 -17.191841 0.001139746)
(-0.00013410902 -17.191989 0.0011397536)
(7.3379232e-05 -17.191797 0.0011397323)
(-0.00015144957 -17.192034 0.0011397585)
(5.7407673e-05 -17.191728 0.0011397105)
(-0.00017206705 -17.192086 0.0011398651)
(3.8248165e-05 -17.187762 0.0011392082)
(-0.00080359596 4.0986493 -0.00027641174)
(2.2707149e-05 4.0991784 -0.00027632299)
(-6.0308928e-05 4.0993583 -0.00027635168)
(1.3016932e-05 4.099364 -0.00027632207)
(-1.273854e-05 4.0993616 -0.00027634228)
(1.198243e-05 4.0993688 -0.00027634282)
(-5.8378346e-06 4.0993622 -0.00027634663)
(5.5955633e-06 4.0993707 -0.00027634665)
(-5.8590563e-06 4.0993672 -0.00027634714)
(5.6525041e-06 4.099371 -0.00027634738)
(-5.6529194e-06 4.099371 -0.00027634738)
(5.8587952e-06 4.0993672 -0.00027634714)
(-5.5957355e-06 4.0993707 -0.00027634666)
(5.8378069e-06 4.0993622 -0.00027634663)
(-1.198241e-05 4.0993688 -0.00027634283)
(1.2738534e-05 4.0993616 -0.00027634228)
(-1.3016883e-05 4.099364 -0.00027632206)
(6.0308979e-05 4.0993583 -0.00027635164)
(-2.2707229e-05 4.0991784 -0.00027632297)
(0.00080359584 4.0986493 -0.00027641174)
(0.00020576899 -4.7726878 -0.000357155)
(5.8587412e-05 -4.774074 -0.00035723348)
(-6.2122868e-05 -4.7738934 -0.0003573124)
(1.7644626e-05 -4.7739386 -0.00035734967)
(-1.562838e-05 -4.7739179 -0.00035734775)
(1.3142468e-05 -4.7739431 -0.00035736567)
(-6.2684559e-06 -4.7739304 -0.0003573708)
(8.5444144e-06 -4.7739419 -0.00035737331)
(-6.3627745e-06 -4.7739336 -0.00035737197)
(7.9046517e-06 -4.7739381 -0.00035737042)
(-7.9050648e-06 -4.7739381 -0.00035737042)
(6.3625087e-06 -4.7739336 -0.00035737197)
(-8.5445635e-06 -4.7739419 -0.00035737332)
(6.26846e-06 -4.7739304 -0.0003573708)
(-1.3142419e-05 -4.7739431 -0.00035736567)
(1.5628361e-05 -4.7739179 -0.00035734774)
(-1.7644688e-05 -4.7739386 -0.00035734965)
(6.2122679e-05 -4.7738934 -0.00035731236)
(-5.8587762e-05 -4.774074 -0.00035723342)
(-0.00020576923 -4.7726878 -0.00035715469)
(4.1704205e-05 5.7099156 -0.00012387631)
(-1.1012343e-05 5.7110248 -0.00012404001)
(-3.50801e-05 5.7110966 -0.00012410431)
(-5.7553296e-06 5.7110634 -0.00012411385)
(-1.2344803e-05 5.7110775 -0.00012408689)
(3.7633611e-06 5.7110726 -0.00012407956)
(-4.6704472e-06 5.711067 -0.00012406553)
(3.2417416e-06 5.7110771 -0.00012406601)
(-3.8406569e-06 5.711075 -0.0001240652)
(3.0167379e-06 5.7110802 -0.00012406634)
(-3.016946e-06 5.7110802 -0.00012406634)
(3.8405559e-06 5.711075 -0.00012406521)
(-3.2417423e-06 5.7110771 -0.00012406601)
(4.6705933e-06 5.711067 -0.00012406553)
(-3.7631623e-06 5.7110726 -0.00012407956)
(1.2344966e-05 5.7110775 -0.00012408688)
(5.7554362e-06 5.7110634 -0.00012411385)
(3.5080071e-05 5.7110966 -0.00012410433)
(1.1012184e-05 5.7110248 -0.0001240401)
(-4.1704368e-05 5.7099156 -0.00012387634)
(0.00010060629 -6.5026153 -6.3833382e-06)
(1.9520389e-05 -6.5041975 -6.3601852e-06)
(-4.64815e-06 -6.504115 -6.2630534e-06)
(9.7732e-06 -6.5041648 -6.2376683e-06)
(-1.2920654e-05 -6.504132 -6.2630769e-06)
(8.2360596e-06 -6.5041696 -6.2632145e-06)
(-4.6357014e-06 -6.5041501 -6.2795963e-06)
(1.4805068e-05 -6.5041671 -6.2827007e-06)
(-5.0711186e-06 -6.5041538 -6.2874405e-06)
(1.2289051e-05 -6.5041588 -6.2879945e-06)
(-1.2289311e-05 -6.5041588 -6.2879934e-06)
(5.0709649e-06 -6.5041538 -6.2874369e-06)
(-1.4805136e-05 -6.5041671 -6.2826952e-06)
(4.6357938e-06 -6.5041501 -6.279589e-06)
(-8.2359139e-06 -6.5041696 -6.2632059e-06)
(1.2920782e-05 -6.504132 -6.2630769e-06)
(-9.7731132e-06 -6.5041648 -6.2376688e-06)
(4.6481536e-06 -6.504115 -6.2630468e-06)
(-1.9520333e-05 -6.5041975 -6.3601558e-06)
(-0.00010060623 -6.5026153 -6.383226e-06)
(-1.3070737e-06 7.8278693 1.2978164e-05)
(-1.5046547e-05 7.8295093 1.2907499e-05)
(-3.4261191e-05 7.8295214 1.2975928e-05)
(-1.9037752e-05 7.8295133 1.2995148e-05)
(-2.0705391e-05 7.8295157 1.299392e-05)
(-1.0752838e-05 7.829526 1.3005518e-05)
(-3.4837719e-06 7.8295169 1.3002327e-05)
(-1.4175312e-06 7.8295298 1.3004882e-05)
(2.4630881e-06 7.8295213 1.3001596e-05)
(-2.1292857e-06 7.8295262 1.3001849e-05)
(2.1293425e-06 7.8295262 1.300185e-05)
(-2.4629859e-06 7.8295213 1.3001599e-05)
(1.4177149e-06 7.8295298 1.3004887e-05)
(3.4840836e-06 7.8295169 1.3002336e-05)
(1.0753193e-05 7.829526 1.3005528e-05)
(2.0705675e-05 7.8295157 1.2993919e-05)
(1.9037934e-05 7.8295133 1.2995149e-05)
(3.4261185e-05 7.8295214 1.2975941e-05)
(1.5046541e-05 7.8295093 1.2907529e-05)
(1.3070557e-06 7.8278693 1.2978247e-05)
(4.2296765e-05 -9.03288 -1.0487978e-05)
(-1.5522118e-05 -9.0349835 -1.0546786e-05)
(2.8063738e-05 -9.0349137 -1.0475242e-05)
(8.5826032e-06 -9.0349749 -1.0494478e-05)
(-8.2833328e-07 -9.0349205 -1.0463151e-05)
(1.2884793e-05 -9.0349609 -1.0488045e-05)
(-2.9514204e-06 -9.0349295 -1.0484444e-05)
(2.2013679e-05 -9.0349601 -1.0502218e-05)
(-1.037234e-05 -9.034947 -1.0506231e-05)
(1.9635645e-05 -9.0349576 -1.0513817e-05)
(-1.9635793e-05 -9.0349576 -1.0513818e-05)
(1.0372247e-05 -9.034947 -1.0506231e-05)
(-2.2013729e-05 -9.0349601 -1.0502216e-05)
(2.9514703e-06 -9.0349295 -1.0484445e-05)
(-1.2884718e-05 -9.0349609 -1.0488046e-05)
(8.2834952e-07 -9.0349205 -1.0463146e-05)
(-8.5826734e-06 -9.0349749 -1.0494473e-05)
(-2.8063922e-05 -9.0349137 -1.0475229e-05)
(1.5521981e-05 -9.0349835 -1.0546761e-05)
(-4.2296789e-05 -9.03288 -1.0487947e-05)
(-4.6847154e-05 10.574523 2.2993101e-05)
(-1.0667946e-05 10.576846 2.2607268e-05)
(-3.0039129e-05 10.576794 2.2565261e-05)
(-2.4337391e-05 10.576842 2.2555975e-05)
(-1.8229954e-05 10.576784 2.2567722e-05)
(-1.9078001e-05 10.576839 2.2571999e-05)
(-7.6497679e-06 10.576793 2.2593137e-05)
(-2.0882396e-05 10.576827 2.2603e-05)
(4.3649897e-06 10.576803 2.2614773e-05)
(-1.483301e-05 10.576815 2.261707e-05)
(1.4833283e-05 10.576815 2.2617069e-05)
(-4.3646772e-06 10.576803 2.2614772e-05)
(2.0882754e-05 10.576827 2.2603e-05)
(7.6501342e-06 10.576793 2.2593135e-05)
(1.9078353e-05 10.576839 2.2572e-05)
(1.823024e-05 10.576784 2.2567728e-05)
(2.433764e-05 10.576842 2.2555983e-05)
(3.0039234e-05 10.576794 2.2565265e-05)
(1.0667994e-05 10.576846 2.2607268e-05)
(4.6847122e-05 10.574523 2.2993103e-05)
(8.7926201e-05 -12.728637 3.5644056e-05)
(-7.2377706e-05 -12.731642 3.5885537e-05)
(2.4441871e-05 -12.731466 3.5720875e-05)
(4.1683204e-06 -12.731597 3.5796488e-05)
(-2.2111069e-06 -12.731485 3.5841149e-05)
(3.2848106e-05 -12.731574 3.5880802e-05)
(-1.9346454e-05 -12.731507 3.5872967e-05)
(4.3666084e-05 -12.731556 3.587709e-05)
(-3.1690565e-05 -12.731524 3.586404e-05)
(4.1990553e-05 -12.731539 3.5859852e-05)
(-4.1990593e-05 -12.731539 3.5859858e-05)
(3.1690595e-05 -12.731524 3.5864034e-05)
(-4.3666072e-05 -12.731556 3.587709e-05)
(1.9346497e-05 -12.731507 3.5872962e-05)
(-3.2848123e-05 -12.731574 3.5880801e-05)
(2.211098e-06 -12.731485 3.5841148e-05)
(-4.1683781e-06 -12.731597 3.5796488e-05)
(-2.4441929e-05 -12.731466 3.5720878e-05)
(7.2377597e-05 -12.731642 3.5885535e-05)
(-8.7926227e-05 -12.728637 3.5644058e-05)
(-9.9833989e-05 14.639412 2.8246524e-05)
(2.8124759e-05 14.642863 2.8386673e-05)
(-3.8734425e-05 14.642595 2.845438e-05)
(-1.2755095e-05 14.64283 2.8450855e-05)
(-1.4622349e-05 14.642666 2.8430995e-05)
(-4.0601581e-05 14.642806 2.8416137e-05)
(5.5745156e-06 14.642707 2.8408985e-05)
(-4.4956052e-05 14.64278 2.8401811e-05)
(2.500722e-05 14.642731 2.8400594e-05)
(-3.8504521e-05 14.642753 2.8400069e-05)
(3.8504623e-05 14.642753 2.8400068e-05)
(-2.5007138e-05 14.642731 2.8400594e-05)
(4.4956097e-05 14.64278 2.8401812e-05)
(-5.5745429e-06 14.642707 2.8408985e-05)
(4.0601506e-05 14.642806 2.8416137e-05)
(1.4622172e-05 14.642666 2.8430994e-05)
(1.2754921e-05 14.64283 2.8450851e-05)
(3.8734202e-05 14.642595 2.8454384e-05)
(-2.8124884e-05 14.642863 2.8386679e-05)
(9.9833906e-05 14.639412 2.8246526e-05)
(-3.8248145e-05 -17.187762 -0.0011392084)
(0.00017206699 -17.192086 -0.0011398652)
(-5.7407659e-05 -17.191728 -0.0011397106)
(0.0001514495 -17.192034 -0.0011397587)
(-7.337923e-05 -17.191797 -0.0011397324)
(0.00013410894 -17.191989 -0.0011397537)
(-9.4834514e-05 -17.191841 -0.0011397461)
(0.00011566276 -17.191944 -0.0011397559)
(-0.00010727832 -17.191872 -0.0011397519)
(0.00010965928 -17.191905 -0.0011397544)
(-0.00010965949 -17.191905 -0.0011397544)
(0.00010727812 -17.191872 -0.0011397519)
(-0.00011566289 -17.191944 -0.0011397559)
(9.4834446e-05 -17.191841 -0.0011397461)
(-0.00013410902 -17.191989 -0.0011397537)
(7.3379234e-05 -17.191797 -0.0011397324)
(-0.00015144957 -17.192034 -0.0011397587)
(5.7407669e-05 -17.191728 -0.0011397106)
(-0.00017206705 -17.192086 -0.0011398652)
(3.8248165e-05 -17.187762 -0.0011392084)
(-0.0008024803 4.0965206 0.0016147451)
(2.2742183e-05 4.0970507 0.0016153803)
(-6.0266748e-05 4.0972301 0.0016154481)
(1.3014121e-05 4.0972358 0.0016154744)
(-1.2734915e-05 4.0972334 0.0016154567)
(1.1975938e-05 4.0972405 0.0016154589)
(-5.8317523e-06 4.0972339 0.001615453)
(5.591099e-06 4.0972424 0.0016154556)
(-5.853529e-06 4.097239 0.0016154535)
(5.6474983e-06 4.0972427 0.0016154543)
(-5.6479138e-06 4.0972427 0.0016154543)
(5.853267e-06 4.097239 0.0016154535)
(-5.5912718e-06 4.0972424 0.0016154556)
(5.8317194e-06 4.0972339 0.001615453)
(-1.1975911e-05 4.0972405 0.0016154589)
(1.2734912e-05 4.0972334 0.0016154567)
(-1.3014064e-05 4.0972358 0.0016154744)
(6.0266794e-05 4.0972301 0.0016154481)
(-2.2742229e-05 4.0970507 0.0016153803)
(0.00080248022 4.0965206 0.0016147452)
(0.00020547228 -4.7674977 -0.00037591221)
(5.8502848e-05 -4.7688815 -0.00037609324)
(-6.2151974e-05 -4.7687009 -0.0003761384)
(1.7618117e-05 -4.768746 -0.00037617872)
(-1.5622893e-05 -4.7687253 -0.00037617454)
(1.3125463e-05 -4.7687505 -0.00037619316)
(-6.26379e-06 -4.7687378 -0.00037619775)
(8.5385106e-06 -4.7687493 -0.00037620053)
(-6.3545028e-06 -4.768741 -0.00037619905)
(7.8994821e-06 -4.7687455 -0.00037619757)
(-7.8998954e-06 -4.7687455 -0.00037619757)
(6.354237e-06 -4.768741 -0.00037619905)
(-8.5386596e-06 -4.7687493 -0.00037620053)
(6.2637953e-06 -4.7687378 -0.00037619775)
(-1.3125413e-05 -4.7687505 -0.00037619316)
(1.5622878e-05 -4.7687253 -0.00037617454)
(-1.7618172e-05 -4.768746 -0.00037617872)
(6.2151808e-05 -4.7687009 -0.00037613838)
(-5.8503139e-05 -4.7688815 -0.00037609319)
(-0.00020547249 -4.7674977 -0.00037591208)
(4.1567484e-05 5.7049529 -0.00010889465)
(-1.111961e-05 5.7060606 -0.00010906433)
(-3.5093616e-05 5.7061319 -0.00010913057)
(-5.7483004e-06 5.7060986 -0.00010913983)
(-1.2315349e-05 5.7061128 -0.00010911315)
(3.7726012e-06 5.7061079 -0.00010910591)
(-4.6565333e-06 5.7061023 -0.00010909188)
(3.2396854e-06 5.7061124 -0.00010909235)
(-3.8361678e-06 5.7061104 -0.0001090915)
(3.0129468e-06 5.7061155 -0.00010909264)
(-3.0131556e-06 5.7061155 -0.00010909264)
(3.836067e-06 5.7061104 -0.0001090915)
(-3.2396864e-06 5.7061124 -0.00010909235)
(4.6566794e-06 5.7061023 -0.00010909187)
(-3.7724024e-06 5.7061079 -0.00010910591)
(1.231551e-05 5.7061128 -0.00010911315)
(5.7484062e-06 5.7060986 -0.00010913983)
(3.5093571e-05 5.7061319 -0.00010913057)
(1.1119501e-05 5.7060606 -0.00010906437)
(-4.1567579e-05 5.7049529 -0.00010889455)
(0.00010056151 -6.4966001 -2.3757128e-05)
(1.9580899e-05 -6.4981799 -2.3753517e-05)
(-4.5927221e-06 -6.4980978 -2.3654852e-05)
(9.7677251e-06 -6.4981477 -2.3629946e-05)
(-1.2928427e-05 -6.4981149 -2.3654965e-05)
(8.2209018e-06 -6.4981525 -2.3655152e-05)
(-4.6381624e-06 -6.498133 -2.3671441e-05)
(1.4793509e-05 -6.49815 -2.3674621e-05)
(-5.0657129e-06 -6.4981366 -2.3679344e-05)
(1.2280677e-05 -6.4981417 -2.3679924e-05)
(-1.2280936e-05 -6.4981417 -2.3679923e-05)
(5.0655603e-06 -6.4981366 -2.3679344e-05)
(-1.4793576e-05 -6.49815 -2.3674619e-05)
(4.6382555e-06 -6.498133 -2.3671438e-05)
(-8.2207568e-06 -6.4981525 -2.3655151e-05)
(1.2928556e-05 -6.4981148 -2.3654965e-05)
(-9.7676367e-06 -6.4981477 -2.3629945e-05)
(4.5927322e-06 -6.4980978 -2.3654849e-05)
(-1.9580816e-05 -6.4981799 -2.3753501e-05)
(-0.00010056143 -6.4966001 -2.3757071e-05)
(-1.348306e-06 7.8211125 3.0764985e-05)
(-1.5040673e-05 7.8227501 3.0697393e-05)
(-3.4202405e-05 7.8227623 3.0764951e-05)
(-1.9025469e-05 7.8227543 3.0784512e-05)
(-2.0689972e-05 7.8227566 3.078309e-05)
(-1.0746016e-05 7.8227669 3.0794728e-05)
(-3.4788511e-06 7.8227578 3.0791527e-05)
(-1.416327e-06 7.8227707 3.0794059e-05)
(2.4636697e-06 7.8227623 3.0790746e-05)
(-2.1291212e-06 7.8227671 3.0790975e-05)
(2.1291782e-06 7.8227671 3.0790975e-05)
(-2.4635675e-06 7.8227623 3.0790746e-05)
(1.4165117e-06 7.8227707 3.0794061e-05)
(3.4791622e-06 7.8227578 3.0791528e-05)
(1.074637e-05 7.8227669 3.0794724e-05)
(2.0690255e-05 7.8227566 3.0783087e-05)
(1.9025656e-05 7.8227543 3.0784511e-05)
(3.4202405e-05 7.8227623 3.0764961e-05)
(1.5040686e-05 7.8227501 3.0697406e-05)
(1.3483033e-06 7.8211125 3.0765032e-05)
(4.2226405e-05 -9.0247398 -2.7674705e-05)
(-1.5506165e-05 -9.0268404 -2.7748625e-05)
(2.8069245e-05 -9.0267708 -2.7676125e-05)
(8.5854427e-06 -9.0268319 -2.769595e-05)
(-8.2768632e-07 -9.0267776 -2.7664319e-05)
(1.2863465e-05 -9.0268179 -2.7689256e-05)
(-2.9515716e-06 -9.0267865 -2.768562e-05)
(2.1989223e-05 -9.0268171 -2.7703275e-05)
(-1.03665e-05 -9.026804 -2.7707286e-05)
(1.9618317e-05 -9.0268147 -2.7714864e-05)
(-1.9618463e-05 -9.0268147 -2.7714864e-05)
(1.0366409e-05 -9.026804 -2.7707284e-05)
(-2.1989276e-05 -9.0268171 -2.7703274e-05)