/*--------------------------------*- C++ -*----------------------------------*\
  =========                 |
  \\      /  F ield         | OpenFOAM: The Open Source CFD Toolbox
   \\    /   O peration     | Website:  https://openfoam.org
    \\  /    A nd           | Version:  8
     \\/     M anipulation  |
\*---------------------------------------------------------------------------*/
FoamFile
{
    version     2.0;
    format      ascii;
    class       surfaceScalarField;
    location    "0.4";
    object      phi;
}
// * * * * * * * * * * * * * * * * * * * * * * * * * * * * * * * * * * * * * //

dimensions      [1 0 -1 0 0 0 0];

internalField   nonuniform List<scalar> 
2080
(
-2.8670528e-07
-2.9286587e-05
-6.8520494e-07
-2.3418393e-08
-2.9835014e-05
-6.8601501e-07
-3.4736867e-08
-2.9559928e-05
-6.8688053e-07
-8.0458081e-09
-2.9597957e-05
-6.8676384e-07
-8.0525468e-09
-2.9571334e-05
-6.867875e-07
-3.8518738e-09
-2.9575458e-05
-6.867888e-07
-2.8903251e-09
-2.9572272e-05
-6.8678728e-07
-1.6805409e-09
-2.9572437e-05
-6.8679216e-07
-7.9960542e-10
-2.9572131e-05
-6.8679026e-07
-9.8384183e-15
-2.9572018e-05
-6.8679216e-07
7.9959142e-10
-2.9572018e-05
-6.8679216e-07
1.6805309e-09
-2.9572131e-05
-6.8679026e-07
2.8903203e-09
-2.9572437e-05
-6.8679216e-07
3.8518683e-09
-2.9572272e-05
-6.8678727e-07
8.0525392e-09
-2.9575458e-05
-6.8678879e-07
8.0458091e-09
-2.9571334e-05
-6.867875e-07
3.4736879e-08
-2.9597957e-05
-6.8676384e-07
2.3418402e-08
-2.9559928e-05
-6.8688053e-07
2.8670528e-07
-2.9835014e-05
-6.8601501e-07
-2.9286587e-05
-6.8520494e-07
6.3468375e-08
-2.9553144e-05
2.0301356e-07
-5.8210491e-09
-2.9970494e-05
2.0428928e-07
-5.3350577e-09
-2.9764708e-05
2.0395821e-07
-4.7686035e-09
-2.9802939e-05
2.0405748e-07
-3.6709576e-09
-2.9776851e-05
2.0400504e-07
-2.7353348e-09
-2.978071e-05
2.0402021e-07
-1.604374e-09
-2.9777779e-05
2.0401097e-07
-1.2610367e-09
-2.977704e-05
2.0401515e-07
-4.6600329e-10
-2.9777219e-05
2.0401274e-07
-1.3162351e-14
-2.9776733e-05
2.0401386e-07
4.6598504e-10
-2.9776733e-05
2.0401386e-07
1.2610218e-09
-2.9777219e-05
2.0401275e-07
1.6043657e-09
-2.977704e-05
2.0401515e-07
2.7353282e-09
-2.9777778e-05
2.0401097e-07
3.6709465e-09
-2.978071e-05
2.0402021e-07
4.7686077e-09
-2.9776851e-05
2.0400505e-07
5.335062e-09
-2.9802939e-05
2.0405748e-07
5.8210599e-09
-2.9764708e-05
2.0395821e-07
-6.3468358e-08
-2.9970494e-05
2.0428929e-07
-2.9553144e-05
2.0301356e-07
5.380104e-08
-2.9994785e-05
1.6919657e-07
-2.8381388e-08
-3.0275553e-05
1.6948996e-07
-2.3893065e-08
-3.0156961e-05
1.6963095e-07
-1.4743368e-08
-3.0199602e-05
1.6960591e-07
-1.3253148e-08
-3.0166017e-05
1.696414e-07
-7.5960722e-09
-3.0173998e-05
1.6964357e-07
-6.0380152e-09
-3.0167014e-05
1.6964574e-07
-3.3326338e-09
-3.0167387e-05
1.696531e-07
-1.7635942e-09
-3.0166439e-05
1.6965002e-07
-6.0322062e-15
-3.0166131e-05
1.696531e-07
1.7635854e-09
-3.0166131e-05
1.696531e-07
3.3326283e-09
-3.0166439e-05
1.6965002e-07
6.0380138e-09
-3.0167387e-05
1.696531e-07
7.5960698e-09
-3.0167014e-05
1.6964574e-07
1.325314e-08
-3.0173997e-05
1.6964355e-07
1.4743368e-08
-3.0166017e-05
1.696414e-07
2.3893067e-08
-3.0199602e-05
1.6960591e-07
2.8381394e-08
-3.0156961e-05
1.6963095e-07
-5.3801035e-08
-3.0275553e-05
1.6948996e-07
-2.9994785e-05
1.6919657e-07
4.9251117e-08
-2.9502048e-05
9.2201772e-08
1.4148284e-08
-2.9699891e-05
9.2705454e-08
2.1109742e-08
-2.9622999e-05
9.2575213e-08
4.7744899e-09
-2.9642618e-05
9.2640559e-08
8.7510048e-09
-2.9629374e-05
9.259771e-08
1.6887452e-09
-2.9626141e-05
9.2610234e-08
3.4979126e-09
-2.9628144e-05
9.260044e-08
5.4619177e-10
-2.9623533e-05
9.2601175e-08
9.2856055e-10
-2.962599e-05
9.2599958e-08
-1.5074865e-14
-2.9624285e-05
9.2599603e-08
-9.2858691e-10
-2.9624285e-05
9.2599602e-08
-5.4621141e-10
-2.962599e-05
9.2599963e-08
-3.4979231e-09
-2.9623533e-05
9.2601179e-08
-1.6887573e-09
-2.9628144e-05
9.2600448e-08
-8.7509968e-09
-2.9626141e-05
9.2610243e-08
-4.7744877e-09
-2.9629374e-05
9.2597711e-08
-2.1109746e-08
-2.9642618e-05
9.2640555e-08
-1.4148281e-08
-2.9622999e-05
9.2575208e-08
-4.9251117e-08
-2.9699891e-05
9.2705453e-08
-2.9502048e-05
9.2201769e-08
-2.2798769e-10
-2.9898053e-05
-4.7961168e-08
-3.9064303e-08
-3.0055674e-05
-4.820996e-08
-2.8179513e-08
-3.0028925e-05
-4.8176104e-08
-2.5738487e-08
-3.0039764e-05
-4.8191682e-08
-2.2228212e-08
-3.002763e-05
-4.8175835e-08
-1.4821854e-08
-3.0028419e-05
-4.8168675e-08
-1.2252564e-08
-3.0025574e-05
-4.8170947e-08
-6.7533761e-09
-3.0023992e-05
-4.8163053e-08
-3.8317162e-09
-3.0023866e-05
-4.8166562e-08
4.9155086e-15
-3.0023094e-05
-4.8163647e-08
3.8317249e-09
-3.0023094e-05
-4.8163641e-08
6.7533824e-09
-3.0023866e-05
-4.816656e-08
1.2252566e-08
-3.0023992e-05
-4.8163045e-08
1.4821857e-08
-3.0025574e-05
-4.817095e-08
2.2228206e-08
-3.0028419e-05
-4.8168694e-08
2.5738481e-08
-3.002763e-05
-4.8175842e-08
2.8179499e-08
-3.0039764e-05
-4.8191685e-08
3.90643e-08
-3.0028925e-05
-4.8176116e-08
2.2798751e-10
-3.0055674e-05
-4.8209959e-08
-2.9898053e-05
-4.7961164e-08
8.3580201e-08
-2.8295215e-05
1.2465431e-07
3.9195324e-08
-2.8326407e-05
1.2496848e-07
5.8123146e-08
-2.8362882e-05
1.2501537e-07
2.2955607e-08
-2.8320056e-05
1.2501179e-07
3.2121538e-08
-2.8352428e-05
1.2500041e-07
1.2241375e-08
-2.8323898e-05
1.2500103e-07
1.5264167e-08
-2.8344154e-05
1.2499698e-07
5.2679986e-09
-2.8329177e-05
1.2499637e-07
4.4508742e-09
-2.8338331e-05
1.2499538e-07
-4.9378065e-15
-2.8333778e-05
1.2499514e-07
-4.4508696e-09
-2.8333778e-05
1.2499515e-07
-5.2679984e-09
-2.8338331e-05
1.2499539e-07
-1.5264167e-08
-2.8329177e-05
1.2499638e-07
-1.2241363e-08
-2.8344154e-05
1.2499697e-07
-3.2121522e-08
-2.8323898e-05
1.2500104e-07
-2.2955588e-08
-2.8352428e-05
1.2500038e-07
-5.8123129e-08
-2.8320056e-05
1.2501178e-07
-3.9195317e-08
-2.8362882e-05
1.2501537e-07
-8.3580196e-08
-2.8326408e-05
1.2496847e-07
-2.8295215e-05
1.246543e-07
-6.4959572e-08
-2.8364908e-05
-1.2153638e-07
-5.5736403e-08
-2.8469383e-05
-1.2176961e-07
-5.9766648e-08
-2.8492503e-05
-1.218979e-07
-4.1815307e-08
-2.8471662e-05
-1.2184679e-07
-4.2805811e-08
-2.8484928e-05
-1.2187423e-07
-2.6493468e-08
-2.8474077e-05
-1.2185304e-07
-2.4459339e-08
-2.848002e-05
-1.2186434e-07
-1.2669044e-08
-2.8475077e-05
-1.2185581e-07
-7.8618435e-09
-2.8477266e-05
-1.2185961e-07
2.8563092e-14
-2.8475852e-05
-1.2185746e-07
7.8618988e-09
-2.8475852e-05
-1.2185746e-07
1.2669103e-08
-2.8477266e-05
-1.218596e-07
2.4459377e-08
-2.8475077e-05
-1.2185583e-07
2.649349e-08
-2.848002e-05
-1.2186434e-07
4.2805818e-08
-2.8474077e-05
-1.2185305e-07
4.1815296e-08
-2.8484928e-05
-1.2187426e-07
5.9766628e-08
-2.8471662e-05
-1.2184679e-07
5.5736369e-08
-2.8492503e-05
-1.2189791e-07
6.4959545e-08
-2.8469383e-05
-1.2176962e-07
-2.8364908e-05
-1.2153639e-07
2.9327248e-07
-2.7297583e-05
3.7287456e-07
6.9593833e-08
-2.6887599e-05
3.7452769e-07
1.3293194e-07
-2.7196387e-05
3.7415391e-07
4.9114139e-08
-2.7029728e-05
3.7440934e-07
6.7026806e-08
-2.7143759e-05
3.7420998e-07
3.0251298e-08
-2.7078578e-05
3.7433711e-07
3.263635e-08
-2.7123231e-05
3.7424265e-07
1.423527e-08
-2.7097398e-05
3.7430313e-07
9.8531771e-09
-2.7113422e-05
3.7426351e-07
1.5403502e-14
-2.7106452e-05
3.742817e-07
-9.8531477e-09
-2.7106452e-05
3.7428171e-07
-1.4235247e-08
-2.7113422e-05
3.7426352e-07
-3.263636e-08
-2.7097398e-05
3.7430313e-07
-3.025133e-08
-2.7123231e-05
3.7424264e-07
-6.7026887e-08
-2.7078578e-05
3.7433716e-07
-4.9114144e-08
-2.714376e-05
3.7420992e-07
-1.3293193e-07
-2.7029728e-05
3.7440936e-07
-6.9593883e-08
-2.7196387e-05
3.7415398e-07
-2.9327248e-07
-2.6887599e-05
3.7452767e-07
-2.7297583e-05
3.7287457e-07
-2.8712273e-07
-2.8788103e-05
-3.588111e-07
-8.5263078e-08
-2.8864425e-05
-3.6032352e-07
-1.5071597e-07
-2.8907389e-05
-3.6000661e-07
-6.707247e-08
-2.8888163e-05
-3.6025754e-07
-8.6195755e-08
-2.8900437e-05
-3.6005517e-07
-4.4791098e-08
-2.8895378e-05
-3.6019395e-07
-4.5872179e-08
-2.8897939e-05
-3.6009036e-07
-2.2150985e-08
-2.8897085e-05
-3.6016017e-07
-1.4496039e-08
-2.8897175e-05
-3.6011477e-07
-1.9542661e-14
-2.8897162e-05
-3.6013633e-07
1.4496011e-08
-2.8897162e-05
-3.6013632e-07
2.2150956e-08
-2.8897175e-05
-3.6011476e-07
4.5872176e-08
-2.8897085e-05
-3.6016016e-07
4.4791106e-08
-2.8897939e-05
-3.6009035e-07
8.619577e-08
-2.8895378e-05
-3.6019395e-07
6.7072464e-08
-2.8900437e-05
-3.6005518e-07
1.5071595e-07
-2.8888163e-05
-3.6025753e-07
8.5263071e-08
-2.8907389e-05
-3.6000659e-07
2.8712273e-07
-2.8864425e-05
-3.603235e-07
-2.8788103e-05
-3.5881109e-07
9.8314302e-08
2.4347614e-07
1.1358983e-07
2.556331e-07
8.837461e-08
2.4847731e-07
8.5079406e-08
2.4996544e-07
6.6551354e-08
2.4943738e-07
5.5965917e-08
2.4962872e-07
4.054369e-08
2.4951132e-07
2.7684917e-08
2.495872e-07
1.3568777e-08
2.4953815e-07
-2.6808778e-14
2.4956221e-07
-1.3568829e-08
2.4956221e-07
-2.7684937e-08
2.4953811e-07
-4.0543715e-08
2.4958722e-07
-5.5965926e-08
2.495113e-07
-6.6551364e-08
2.4962871e-07
-8.507939e-08
2.4943735e-07
-8.8374563e-08
2.4996547e-07
-1.1358976e-07
2.4847731e-07
-9.8314257e-08
2.5563315e-07
2.4347615e-07
-2.90402e-07
-3.0651835e-05
9.0815359e-15
-2.3394023e-08
-3.1209292e-05
6.1411354e-16
-3.5010117e-08
-3.093192e-05
1.1279145e-14
-8.101979e-09
-3.097023e-05
1.1292175e-14
-8.1129857e-09
-3.0943434e-05
8.7014074e-15
-3.8835215e-09
-3.0947594e-05
1.2620501e-14
-2.9141821e-09
-3.0944383e-05
9.5123654e-16
-1.6943375e-09
-3.094456e-05
4.7952361e-15
-8.0642996e-10
-3.0944247e-05
7.6063637e-15
-8.7448695e-15
-3.0944138e-05
1.02863e-14
8.0641686e-10
-3.0944138e-05
1.0767985e-14
1.6943302e-09
-3.0944247e-05
1.1944623e-14
2.9141764e-09
-3.094456e-05
2.0144061e-14
3.8835176e-09
-3.0944383e-05
1.5979547e-14
8.1129758e-09
-3.0947594e-05
2.5652362e-14
8.1019753e-09
-3.0943434e-05
6.9942335e-15
3.501013e-08
-3.097023e-05
5.2044068e-15
2.3394033e-08
-3.093192e-05
-7.9958982e-16
2.9040201e-07
-3.1209292e-05
3.6847096e-15
-3.0651835e-05
1.1969157e-14
6.4068021e-08
-3.0513563e-05
1.2456328e-14
-5.8590332e-09
-3.0936154e-05
4.7833685e-15
-5.4153087e-09
-3.0729341e-05
6.3561683e-15
-4.8167068e-09
-3.0767728e-05
4.9598682e-15
-3.712425e-09
-3.0741546e-05
5.611632e-15
-2.7617322e-09
-3.0745418e-05
6.2319735e-15
-1.6221491e-09
-3.0742475e-05
9.8177943e-16
-1.2726292e-09
-3.0741738e-05
7.1579274e-15
-4.7115126e-10
-3.0741915e-05
1.1073418e-14
-1.1804643e-14
-3.0741429e-05
1.4475248e-14
4.7113105e-10
-3.0741429e-05
1.7455976e-14
1.2726143e-09
-3.0741915e-05
2.0068461e-14
1.6221417e-09
-3.0741738e-05
9.2106303e-15
2.7617252e-09
-3.0742475e-05
1.7317949e-14
3.7124156e-09
-3.0745418e-05
1.1711028e-14
4.8167086e-09
-3.0741546e-05
1.5183682e-14
5.4153125e-09
-3.0767728e-05
1.0954502e-14
5.8590458e-09
-3.0729341e-05
1.0134727e-14
-6.4068004e-08
-3.0936154e-05
1.0746561e-14
-3.0513563e-05
6.3062314e-15
5.3963892e-08
-3.0616521e-05
7.1836286e-15
-2.8581905e-08
-3.0901418e-05
1.0518714e-14
-2.4087654e-08
-3.0781884e-05
9.013167e-15
-1.4865625e-08
-3.0824801e-05
1.2637448e-14
-1.3360718e-08
-3.0790991e-05
1.4939526e-15
-7.6609144e-09
-3.079901e-05
1.4056181e-14
-6.0887315e-09
-3.0791981e-05
5.7835189e-15
-3.3611737e-09
-3.0792348e-05
1.7187672e-14
-1.7786833e-09
-3.0791397e-05
1.3302328e-14
-6.3862475e-15
-3.0791083e-05
1.0131906e-14
1.7786738e-09
-3.0791083e-05
1.1886874e-14
3.3611685e-09
-3.0791397e-05
1.3470524e-14
6.0887268e-09
-3.0792348e-05
5.6258948e-15
7.6609117e-09
-3.0791981e-05
9.4062365e-15
1.3360713e-08
-3.079901e-05
4.4543564e-15
1.4865623e-08
-3.0790991e-05
1.3787406e-14
2.4087657e-08
-3.0824801e-05
6.1930266e-15
2.8581914e-08
-3.0781884e-05
4.7422597e-16
-5.3963889e-08
-3.0901418e-05
7.7922053e-15
-3.0616521e-05
1.3993526e-14
4.9726691e-08
-2.9940286e-05
-8.0191841e-15
1.4236733e-08
-3.0140384e-05
2.8612182e-15
2.1228311e-08
-3.006323e-05
4.670133e-15
4.8041584e-09
-3.0082873e-05
1.4420412e-16
8.7945895e-09
-3.0069595e-05
-9.9465285e-15
1.6986761e-09
-3.0066326e-05
2.8082369e-15
3.5143962e-09
-3.0068344e-05
6.7640762e-15
5.4958529e-10
-3.0063707e-05
2.005658e-15
9.3286368e-10
-3.0066176e-05
-1.8814642e-15
-1.5109246e-14
-3.0064461e-05
-2.7335792e-15
-9.3288914e-10
-3.0064461e-05
4.9533915e-16
-5.4960654e-10
-3.0066176e-05
9.4509651e-15
-3.5144067e-09
-3.0063707e-05
9.206135e-15
-1.6986853e-09
-3.0068344e-05
1.2079155e-14
-8.7945814e-09
-3.0066326e-05
3.7093837e-17
-4.8041541e-09
-3.0069595e-05
-7.159279e-15
-2.1228313e-08
-3.0082873e-05
-9.0895989e-15
-1.4236736e-08
-3.0063229e-05
4.0339064e-15
-4.9726696e-08
-3.0140384e-05
2.9271933e-15
-2.9940286e-05
-3.0510384e-15
-4.5703796e-10
-3.0431554e-05
3.0066356e-14
-3.9375785e-08
-3.0592093e-05
-3.4166086e-16
-2.8437847e-08
-3.0565139e-05
2.8384737e-15
-2.5951366e-08
-3.0576026e-05
2.4786976e-14
-2.2414131e-08
-3.0563807e-05
1.4512512e-14
-1.4948398e-08
-3.056458e-05
-7.9476682e-15
-1.2354626e-08
-3.0561719e-05
-9.3942946e-15
-6.8118593e-09
-3.0560114e-05
-8.6118887e-15
-3.8637259e-09
-3.055999e-05
-9.3428812e-15
2.6903501e-15
-3.0559209e-05
3.7871418e-15
3.8637365e-09
-3.0559209e-05
-1.2069246e-15
6.8118603e-09
-3.055999e-05
-6.5456365e-15
1.235463e-08
-3.0560114e-05
-1.3615821e-15
1.4948399e-08
-3.0561719e-05
2.6519406e-15
2.2414119e-08
-3.056458e-05
-2.2747984e-15
2.5951362e-08
-3.0563807e-05
-4.8608498e-15
2.8437847e-08
-3.0576026e-05
1.9074153e-14
3.9375778e-08
-3.0565139e-05
3.7364668e-14
4.5702062e-10
-3.0592093e-05
7.8409105e-16
-3.0431554e-05
2.6066435e-15
8.4321263e-08
-2.8580476e-05
1.6232802e-14
3.9489516e-08
-2.8612772e-05
-1.1539859e-14
5.8524314e-08
-2.8649501e-05
4.5779327e-15
2.3145312e-08
-2.8606411e-05
1.0690458e-14
3.2338112e-08
-2.863896e-05
-8.6345356e-16
1.2347333e-08
-2.8610274e-05
2.3372182e-14
1.5368188e-08
-2.8630632e-05
2.8137838e-15
5.3152438e-09
-2.8615578e-05
-1.1689006e-15
4.4815607e-09
-2.8624776e-05
-7.2207761e-15
-8.4700058e-15
-2.86202e-05
2.2968312e-15
-4.4815555e-09
-2.86202e-05
-1.1600096e-14
-5.3152446e-09
-2.8624776e-05
4.6993827e-15
-1.5368194e-08
-2.8615578e-05
4.8251835e-15
-1.2347316e-08
-2.8630632e-05
-1.315365e-14
-3.2338095e-08
-2.8610274e-05
1.5840415e-14
-2.3145297e-08
-2.863896e-05
-1.5657947e-14
-5.8524295e-08
-2.8606411e-05
-3.3940354e-15
-3.9489507e-08
-2.8649501e-05
-3.6938317e-15
-8.4321258e-08
-2.8612772e-05
-7.4622491e-15
-2.8580476e-05
6.6702324e-15
-6.5670986e-08
-2.8892686e-05
-2.6600998e-15
-5.6186837e-08
-2.8999702e-05
1.3261107e-14
-6.0254234e-08
-2.9023035e-05
-1.1908406e-14
-4.2174954e-08
-2.9001993e-05
-5.5215782e-15
-4.3148727e-08
-2.901538e-05
8.026898e-15
-2.6728992e-08
-2.9004422e-05
-1.828585e-15
-2.4656341e-08
-2.9010419e-05
1.7155458e-14
-1.2783759e-08
-2.9005426e-05
-5.6545463e-15
-7.9254551e-09
-2.9007636e-05
-2.0284876e-14
2.8701612e-14
-2.9006207e-05
7.0458475e-15
7.9255066e-09
-2.9006207e-05
8.2711682e-16
1.2783818e-08
-2.9007636e-05
5.4949171e-15
2.4656377e-08
-2.9005426e-05
-2.2712572e-15
2.6729013e-08
-2.9010419e-05
-1.8194303e-14
4.3148739e-08
-2.9004422e-05
-1.7047313e-14
4.2174937e-08
-2.901538e-05
-6.9129548e-15
6.0254207e-08
-2.9001993e-05
-2.1054192e-14
5.6186813e-08
-2.9023035e-05
-1.8696652e-14
6.5670961e-08
-2.8999702e-05
9.3678695e-15
-2.8892686e-05
7.5056267e-15
2.9554166e-07
-2.7081805e-05
-3.2753206e-14
7.0159076e-08
-2.666708e-05
2.9151829e-14
1.338451e-07
-2.6978883e-05
-8.336815e-15
4.9563116e-08
-2.68107e-05
-3.4416545e-14
6.7505108e-08
-2.6925745e-05
1.8346705e-14
3.053357e-08
-2.6859976e-05
-2.7609296e-14
3.2877271e-08
-2.6905028e-05
2.229564e-14
1.4370028e-08
-2.6878958e-05
-1.961233e-14
9.9272141e-09
-2.6895128e-05
-4.6026755e-14
2.5400377e-14
-2.6888094e-05
-6.7523127e-15
-9.9271784e-09
-2.6888094e-05
3.1587842e-14
-1.4370023e-08
-2.6895128e-05
7.1673077e-16
-3.2877303e-08
-2.6878958e-05
6.8053384e-15
-3.0533617e-08
-2.6905028e-05
-7.1932202e-15
-6.7505148e-08
-2.6859976e-05
-1.2719557e-14
-4.9563183e-08
-2.6925745e-05
-3.076822e-14
-1.3384512e-07
-2.68107e-05
-2.6178337e-14
-7.0159035e-08
-2.6978883e-05
2.5052229e-14
-2.9554164e-07
-2.666708e-05
2.472683e-14
-2.7081805e-05
3.233821e-14
-2.8940233e-07
-2.9287895e-05
-2.0714775e-14
-8.5970901e-08
-2.9366356e-05
-6.3402202e-15
-1.5179783e-07
-2.9409753e-05
-1.199091e-15
-6.7688815e-08
-2.9390346e-05
4.1377281e-15
-8.6843141e-08
-2.9402732e-05
1.1851957e-14
-4.5209432e-08
-2.9397623e-05
6.3974375e-15
-4.6228584e-08
-2.9400208e-05
-1.0265879e-14
-2.2360071e-08
-2.9399343e-05
-3.6022272e-14
-1.461044e-08
-2.9399434e-05
-5.8329331e-15
-2.6167613e-14
-2.9399421e-05
5.8259133e-15
1.4610417e-08
-2.9399421e-05
3.9353561e-15
2.2360045e-08
-2.9399434e-05
2.6735376e-15
4.6228578e-08
-2.9399343e-05
3.7879919e-15
4.5209442e-08
-2.9400208e-05
1.4277031e-15
8.6843158e-08
-2.9397623e-05
5.059564e-15
6.7688812e-08
-2.9402732e-05
7.2082353e-15
1.517978e-07
-2.9390346e-05
-5.3983778e-15
8.5970892e-08
-2.9409753e-05
1.6791194e-14
2.8940233e-07
-2.9366356e-05
8.9488011e-15
-2.9287895e-05
-1.6222634e-14
8.8486941e-08
-7.0451443e-14
1.1612444e-07
2.2334357e-14
8.8521762e-08
9.3681209e-15
8.5997806e-08
-8.5761686e-14
6.7072766e-08
-2.9674845e-14
5.6522711e-08
2.3231727e-15
4.0876636e-08
-1.2175828e-14
2.7957045e-08
-2.209558e-14
1.3680049e-08
6.7636254e-16
-2.6430708e-14
-4.3672689e-16
-1.3680103e-08
6.8608172e-15
-2.7957067e-08
-3.7422635e-14
-4.0876664e-08
2.3062628e-14
-5.6522726e-08
-3.7301009e-15
-6.7072791e-08
2.7089487e-14
-8.5997791e-08
-1.945947e-14
-8.8521707e-08
-2.9542527e-14
-1.161244e-07
-5.9315598e-15
-8.8486895e-08
2.3251306e-14
-2.5229589e-17
-2.90402e-07
-3.0651835e-05
6.8520495e-07
-2.3394024e-08
-3.1209292e-05
6.8601502e-07
-3.5010119e-08
-3.093192e-05
6.8688054e-07
-8.1019784e-09
-3.097023e-05
6.8676384e-07
-8.1129835e-09
-3.0943434e-05
6.8678751e-07
-3.8835172e-09
-3.0947594e-05
6.867888e-07
-2.9141794e-09
-3.0944383e-05
6.8678728e-07
-1.6943362e-09
-3.094456e-05
6.8679217e-07
-8.0642801e-10
-3.0944247e-05
6.8679027e-07
-8.6114101e-15
-3.0944138e-05
6.8679216e-07
8.0641266e-10
-3.0944138e-05
6.8679217e-07
1.694326e-09
-3.0944247e-05
6.8679027e-07
2.9141757e-09
-3.094456e-05
6.8679217e-07
3.8835165e-09
-3.0944383e-05
6.867873e-07
8.1129789e-09
-3.0947594e-05
6.8678881e-07
8.1019769e-09
-3.0943434e-05
6.867875e-07
3.5010129e-08
-3.097023e-05
6.8676384e-07
2.3394031e-08
-3.093192e-05
6.8688054e-07
2.9040201e-07
-3.1209292e-05
6.8601502e-07
-3.0651835e-05
6.8520495e-07
6.4068024e-08
-3.0513563e-05
-2.0301354e-07
-5.8590344e-09
-3.0936154e-05
-2.0428927e-07
-5.4153095e-09
-3.0729341e-05
-2.039582e-07
-4.8167047e-09
-3.0767728e-05
-2.0405746e-07
-3.7124243e-09
-3.0741546e-05
-2.0400502e-07
-2.76173e-09
-3.0745418e-05
-2.040202e-07
-1.6221485e-09
-3.0742475e-05
-2.0401096e-07
-1.2726266e-09
-3.0741738e-05
-2.0401513e-07
-4.711496e-10
-3.0741915e-05
-2.0401272e-07
-9.7755018e-15
-3.0741429e-05
-2.0401383e-07
4.7113077e-10
-3.0741429e-05
-2.0401384e-07
1.2726127e-09
-3.0741915e-05
-2.0401272e-07
1.6221411e-09
-3.0741738e-05
-2.0401513e-07
2.7617213e-09
-3.0742475e-05
-2.0401095e-07
3.7124163e-09
-3.0745418e-05
-2.0402019e-07
4.8167091e-09
-3.0741546e-05
-2.0400503e-07
5.415311e-09
-3.0767728e-05
-2.0405746e-07
5.8590444e-09
-3.0729341e-05
-2.0395819e-07
-6.4068009e-08
-3.0936154e-05
-2.0428927e-07
-3.0513563e-05
-2.0301355e-07
5.3963902e-08
-3.0616521e-05
-1.6919656e-07
-2.8581905e-08
-3.0901418e-05
-1.6948995e-07
-2.4087656e-08
-3.0781884e-05
-1.6963093e-07
-1.486562e-08
-3.0824801e-05
-1.6960589e-07
-1.3360719e-08
-3.0790991e-05
-1.6964139e-07
-7.6609125e-09
-3.079901e-05
-1.6964355e-07
-6.0887312e-09
-3.0791981e-05
-1.6964573e-07
-3.3611712e-09
-3.0792348e-05
-1.6965308e-07
-1.7786809e-09
-3.0791397e-05
-1.6965001e-07
-4.9235048e-15
-3.0791083e-05
-1.6965309e-07
1.7786704e-09
-3.0791083e-05
-1.6965308e-07
3.3611644e-09
-3.0791397e-05
-1.6965e-07
6.0887283e-09
-3.0792348e-05
-1.6965309e-07
7.6609089e-09
-3.0791981e-05
-1.6964573e-07
1.3360714e-08
-3.079901e-05
-1.6964354e-07
1.4865622e-08
-3.0790991e-05
-1.6964138e-07
2.4087656e-08
-3.0824801e-05
-1.696059e-07
2.8581912e-08
-3.0781884e-05
-1.6963094e-07
-5.3963892e-08
-3.0901418e-05
-1.6948995e-07
-3.0616521e-05
-1.6919657e-07
4.9726695e-08
-2.9940286e-05
-9.220177e-08
1.4236737e-08
-3.0140384e-05
-9.2705452e-08
2.1228317e-08
-3.006323e-05
-9.2575208e-08
4.8041579e-09
-3.0082873e-05
-9.2640552e-08
8.7945801e-09
-3.0069595e-05
-9.2597707e-08
1.6986756e-09
-3.0066326e-05
-9.2610239e-08
3.5143968e-09
-3.0068344e-05
-9.260044e-08
5.4958828e-10
-3.0063707e-05
-9.2601181e-08
9.3286609e-10
-3.0066176e-05
-9.2599966e-08
-1.3732112e-14
-3.0064461e-05
-9.2599605e-08
-9.3289118e-10
-3.0064461e-05
-9.2599602e-08
-5.4960714e-10
-3.0066176e-05
-9.259996e-08
-3.5144083e-09
-3.0063707e-05
-9.2601173e-08
-1.6986878e-09
-3.0068344e-05
-9.2600436e-08
-8.7945824e-09
-3.0066326e-05
-9.2610236e-08
-4.8041589e-09
-3.0069595e-05
-9.2597708e-08
-2.1228314e-08
-3.0082873e-05
-9.2640571e-08
-1.4236734e-08
-3.0063229e-05
-9.2575203e-08
-4.9726698e-08
-3.0140384e-05
-9.2705451e-08
-2.9940286e-05
-9.2201772e-08
-4.5701924e-10
-3.0431554e-05
4.7961176e-08
-3.9375791e-08
-3.0592093e-05
4.8209973e-08
-2.8437865e-08
-3.0565139e-05
4.817612e-08
-2.5951357e-08
-3.0576026e-05
4.8191692e-08
-2.2414115e-08
-3.0563807e-05
4.8175844e-08
-1.4948394e-08
-3.056458e-05
4.8168673e-08
-1.2354624e-08
-3.0561719e-05
4.8170942e-08
-6.8118522e-09
-3.0560114e-05
4.8163044e-08
-3.8637218e-09
-3.055999e-05
4.8166561e-08
6.0295197e-15
-3.0559209e-05
4.8163646e-08
3.8637342e-09
-3.0559208e-05
4.8163644e-08
6.8118579e-09
-3.055999e-05
4.8166552e-08
1.2354626e-08
-3.0560114e-05
4.8163051e-08
1.4948396e-08
-3.0561719e-05
4.8170948e-08
2.2414114e-08
-3.056458e-05
4.8168684e-08
2.5951342e-08
-3.0563807e-05
4.8175838e-08
2.8437844e-08
-3.0576026e-05
4.8191689e-08
3.9375798e-08
-3.0565139e-05
4.8176128e-08
4.5703046e-10
-3.0592093e-05
4.8209973e-08
-3.0431554e-05
4.7961175e-08
8.4321266e-08
-2.8580476e-05
-1.2465431e-07
3.9489493e-08
-2.8612772e-05
-1.2496847e-07
5.852431e-08
-2.8649501e-05
-1.2501536e-07
2.3145323e-08
-2.8606411e-05
-1.2501179e-07
3.2338108e-08
-2.863896e-05
-1.2500039e-07
1.2347341e-08
-2.8610274e-05
-1.2500101e-07
1.5368198e-08
-2.8630632e-05
-1.2499697e-07
5.3152511e-09
-2.8615578e-05
-1.2499638e-07
4.4815524e-09
-2.8624776e-05
-1.249954e-07
-4.098865e-15
-2.86202e-05
-1.2499516e-07
-4.4815579e-09
-2.86202e-05
-1.2499515e-07
-5.3152505e-09
-2.8624776e-05
-1.2499539e-07
-1.536819e-08
-2.8615578e-05
-1.2499638e-07
-1.2347318e-08
-2.8630632e-05
-1.2499699e-07
-3.2338095e-08
-2.8610274e-05
-1.2500103e-07
-2.31453e-08
-2.863896e-05
-1.250004e-07
-5.8524298e-08
-2.8606411e-05
-1.250118e-07
-3.9489503e-08
-2.8649501e-05
-1.2501537e-07
-8.4321257e-08
-2.8612772e-05
-1.2496847e-07
-2.8580476e-05
-1.246543e-07
-6.5670989e-08
-2.8892686e-05
1.2153639e-07
-5.618683e-08
-2.8999702e-05
1.2176962e-07
-6.0254228e-08
-2.9023035e-05
1.2189791e-07
-4.2174966e-08
-2.9001993e-05
1.2184679e-07
-4.3148732e-08
-2.901538e-05
1.2187425e-07
-2.6729008e-08
-2.9004422e-05
1.2185305e-07
-2.4656325e-08
-2.9010419e-05
1.2186433e-07
-1.2783743e-08
-2.9005426e-05
1.2185581e-07
-7.9254648e-09
-2.9007636e-05
1.218596e-07
3.4359456e-14
-2.9006207e-05
1.2185746e-07
7.9254994e-09
-2.9006207e-05
1.2185747e-07
1.2783808e-08
-2.9007636e-05
1.2185961e-07
2.4656376e-08
-2.9005426e-05
1.2185582e-07
2.6729014e-08
-2.9010419e-05
1.2186433e-07
4.3148741e-08
-2.9004422e-05
1.2185304e-07
4.2174936e-08
-2.901538e-05
1.2187424e-07
6.0254208e-08
-2.9001993e-05
1.2184676e-07
5.6186813e-08
-2.9023035e-05
1.218979e-07
6.5670967e-08
-2.8999702e-05
1.2176964e-07
-2.8892686e-05
1.215364e-07
2.9554163e-07
-2.7081805e-05
-3.7287457e-07
7.0159071e-08
-2.666708e-05
-3.745277e-07
1.3384512e-07
-2.6978883e-05
-3.7415395e-07
4.9563117e-08
-2.68107e-05
-3.7440938e-07
6.7505113e-08
-2.6925745e-05
-3.7420997e-07
3.0533574e-08
-2.6859976e-05
-3.7433716e-07
3.2877305e-08
-2.6905028e-05
-3.7424265e-07
1.4370056e-08
-2.6878958e-05
-3.7430314e-07
9.9271839e-09
-2.6895128e-05
-3.7426353e-07
-9.7439542e-16
-2.6888094e-05
-3.7428172e-07
-9.9271624e-09
-2.6888094e-05
-3.7428172e-07
-1.4370005e-08
-2.6895128e-05
-3.7426351e-07
-3.287728e-08
-2.6878958e-05
-3.7430313e-07
-3.0533598e-08
-2.6905028e-05
-3.7424265e-07
-6.7505148e-08
-2.6859976e-05
-3.7433713e-07
-4.9563184e-08
-2.6925745e-05
-3.7420998e-07
-1.3384517e-07
-2.68107e-05
-3.7440936e-07
-7.015909e-08
-2.6978883e-05
-3.7415394e-07
-2.9554165e-07
-2.666708e-05
-3.745277e-07
-2.7081805e-05
-3.7287456e-07
-2.8940232e-07
-2.9287895e-05
3.5881107e-07
-8.5970895e-08
-2.9366356e-05
3.6032352e-07
-1.5179782e-07
-2.9409753e-05
3.600066e-07
-6.7688816e-08
-2.9390346e-05
3.6025754e-07
-8.6843142e-08
-2.9402732e-05
3.6005519e-07
-4.5209434e-08
-2.9397623e-05
3.6019395e-07
-4.622858e-08
-2.9400208e-05
3.6009035e-07
-2.2360074e-08
-2.9399343e-05
3.6016014e-07
-1.4610442e-08
-2.9399434e-05
3.6011475e-07
-1.8795761e-14
-2.9399421e-05
3.6013634e-07
1.4610417e-08
-2.9399421e-05
3.6013633e-07
2.2360045e-08
-2.9399434e-05
3.6011475e-07
4.6228577e-08
-2.9399343e-05
3.6016016e-07
4.5209442e-08
-2.9400208e-05
3.6009036e-07
8.6843153e-08
-2.9397623e-05
3.6019396e-07
6.7688813e-08
-2.9402732e-05
3.6005517e-07
1.517978e-07
-2.9390346e-05
3.6025754e-07
8.597089e-08
-2.9409753e-05
3.6000661e-07
2.8940233e-07
-2.9366356e-05
3.6032352e-07
-2.9287895e-05
3.5881107e-07
8.8486871e-08
-2.4347617e-07
1.1612447e-07
-2.5563316e-07
8.852185e-08
-2.4847731e-07
8.5997812e-08
-2.4996552e-07
6.7072774e-08
-2.4943744e-07
5.6522709e-08
-2.496287e-07
4.0876639e-08
-2.4951132e-07
2.7957051e-08
-2.4958725e-07
1.3680049e-08
-2.4953815e-07
-3.4779148e-14
-2.4956221e-07
-1.3680106e-08
-2.4956219e-07
-2.795706e-08
-2.4953816e-07
-4.0876657e-08
-2.495872e-07
-5.6522722e-08
-2.4951131e-07
-6.707276e-08
-2.4962869e-07
-8.599777e-08
-2.4943741e-07
-8.8521742e-08
-2.4996551e-07
-1.1612442e-07
-2.4847733e-07
-8.8486895e-08
-2.5563314e-07
-2.4347617e-07
-2.8670528e-07
-2.9286587e-05
-2.3418393e-08
-2.9835014e-05
-3.4736869e-08
-2.9559928e-05
-8.0458106e-09
-2.9597957e-05
-8.0525468e-09
-2.9571334e-05
-3.8518709e-09
-2.9575458e-05
-2.890325e-09
-2.9572272e-05
-1.680539e-09
-2.9572437e-05
-7.996048e-10
-2.9572131e-05
-8.6320986e-15
-2.9572018e-05
7.9959085e-10
-2.9572018e-05
1.680533e-09
-2.9572131e-05
2.8903068e-09
-2.9572437e-05
3.8518673e-09
-2.9572272e-05
8.0525523e-09
-2.9575458e-05
8.0458069e-09
-2.9571334e-05
3.473688e-08
-2.9597957e-05
2.3418401e-08
-2.9559928e-05
2.8670528e-07
-2.9835014e-05
-2.9286587e-05
6.3468373e-08
-2.9553144e-05
-5.8210501e-09
-2.9970494e-05
-5.3350578e-09
-2.9764708e-05
-4.7686018e-09
-2.9802939e-05
-3.6709576e-09
-2.9776851e-05
-2.7353354e-09
-2.978071e-05
-1.6043727e-09
-2.9777779e-05
-1.2610346e-09
-2.977704e-05
-4.6600274e-10
-2.9777219e-05
-1.1366449e-14
-2.9776733e-05
4.6598468e-10
-2.9776733e-05
1.2610222e-09
-2.9777219e-05
1.6043658e-09
-2.977704e-05
2.7353278e-09
-2.9777779e-05
3.6709455e-09
-2.978071e-05
4.7686055e-09
-2.9776851e-05
5.3350609e-09
-2.9802939e-05
5.82106e-09
-2.9764708e-05
-6.346836e-08
-2.9970494e-05
-2.9553144e-05
5.380104e-08
-2.9994785e-05
-2.8381386e-08
-3.0275553e-05
-2.3893065e-08
-3.0156961e-05
-1.4743367e-08
-3.0199602e-05
-1.3253148e-08
-3.0166017e-05
-7.5960741e-09
-3.0173998e-05
-6.0380144e-09
-3.0167014e-05
-3.332632e-09
-3.0167387e-05
-1.7635949e-09
-3.0166439e-05
-5.59962e-15
-3.0166131e-05
1.7635845e-09
-3.0166131e-05
3.3326268e-09
-3.0166439e-05
6.0380139e-09
-3.0167387e-05
7.5960709e-09
-3.0167014e-05
1.325314e-08
-3.0173997e-05
1.4743366e-08
-3.0166017e-05
2.3893066e-08
-3.0199602e-05
2.8381393e-08
-3.0156961e-05
-5.3801033e-08
-3.0275553e-05
-2.9994785e-05
4.9251119e-08
-2.9502048e-05
1.4148285e-08
-2.9699891e-05
2.1109741e-08
-2.9622999e-05
4.7744876e-09
-2.9642618e-05
8.7510046e-09
-2.9629374e-05
1.6887443e-09
-2.9626141e-05
3.4979106e-09
-2.9628144e-05
5.4619223e-10
-2.9623533e-05
9.2856182e-10
-2.962599e-05
-1.4065869e-14
-2.9624285e-05
-9.285851e-10
-2.9624285e-05
-5.4620867e-10
-2.962599e-05
-3.4979228e-09
-2.9623533e-05
-1.6887592e-09
-2.9628144e-05
-8.7509991e-09
-2.9626141e-05
-4.7744835e-09
-2.9629374e-05
-2.1109744e-08
-2.9642618e-05
-1.4148287e-08
-2.9622999e-05
-4.9251118e-08
-2.9699891e-05
-2.9502048e-05
-2.2798667e-10
-2.9898053e-05
-3.9064304e-08
-3.0055674e-05
-2.8179513e-08
-3.0028925e-05
-2.5738489e-08
-3.0039764e-05
-2.2228215e-08
-3.002763e-05
-1.4821857e-08
-3.0028419e-05
-1.2252563e-08
-3.0025574e-05
-6.7533734e-09
-3.0023992e-05
-3.8317158e-09
-3.0023866e-05
3.9275421e-15
-3.0023094e-05
3.8317244e-09
-3.0023094e-05
6.7533852e-09
-3.0023866e-05
1.2252565e-08
-3.0023992e-05
1.4821856e-08
-3.0025574e-05
2.2228207e-08
-3.0028419e-05
2.5738482e-08
-3.002763e-05
2.8179504e-08
-3.0039764e-05
3.9064302e-08
-3.0028925e-05
2.2798739e-10
-3.0055674e-05
-2.9898053e-05
8.35802e-08
-2.8295215e-05
3.9195322e-08
-2.8326407e-05
5.8123145e-08
-2.8362882e-05
2.2955612e-08
-2.8320056e-05
3.2121539e-08
-2.8352428e-05
1.224137e-08
-2.8323898e-05
1.5264162e-08
-2.8344154e-05
5.2679952e-09
-2.8329177e-05
4.4508723e-09
-2.8338331e-05
4.1206494e-16
-2.8333778e-05
-4.4508652e-09
-2.8333778e-05
-5.2680014e-09
-2.8338331e-05
-1.5264168e-08
-2.8329177e-05
-1.2241363e-08
-2.8344154e-05
-3.2121525e-08
-2.8323898e-05
-2.2955586e-08
-2.8352428e-05
-5.8123127e-08
-2.8320056e-05
-3.9195314e-08
-2.8362882e-05
-8.3580194e-08
-2.8326408e-05
-2.8295215e-05
-6.4959574e-08
-2.8364908e-05
-5.5736405e-08
-2.8469383e-05
-5.9766649e-08
-2.8492503e-05
-4.1815302e-08
-2.8471662e-05
-4.2805815e-08
-2.8484928e-05
-2.6493469e-08
-2.8474077e-05
-2.4459341e-08
-2.848002e-05
-1.2669045e-08
-2.8475077e-05
-7.8618431e-09
-2.8477266e-05
3.4216969e-14
-2.8475852e-05
7.8618974e-09
-2.8475852e-05
1.2669095e-08
-2.8477266e-05
2.4459373e-08
-2.8475077e-05
2.6493493e-08
-2.848002e-05
4.280582e-08
-2.8474077e-05
4.1815293e-08
-2.8484928e-05
5.976663e-08
-2.8471662e-05
5.5736375e-08
-2.8492503e-05
6.4959548e-08
-2.8469383e-05
-2.8364908e-05
2.9327248e-07
-2.7297583e-05
6.9593849e-08
-2.6887599e-05
1.3293192e-07
-2.7196387e-05
4.911412e-08
-2.7029728e-05
6.702682e-08
-2.7143759e-05
3.02513e-08
-2.7078578e-05
3.2636354e-08
-2.7123231e-05
1.4235269e-08
-2.7097398e-05
9.8531797e-09
-2.7113422e-05
1.913918e-14
-2.7106452e-05
-9.8531466e-09
-2.7106452e-05
-1.4235248e-08
-2.7113422e-05
-3.2636357e-08
-2.7097398e-05
-3.0251335e-08
-2.7123231e-05
-6.7026859e-08
-2.7078578e-05