/*--------------------------------*- C++ -*----------------------------------*\
  =========                 |
  \\      /  F ield         | OpenFOAM: The Open Source CFD Toolbox
   \\    /   O peration     | Website:  https://openfoam.org
    \\  /    A nd           | Version:  8
     \\/     M anipulation  |
\*---------------------------------------------------------------------------*/
FoamFile
{
    version     2.0;
    format      ascii;
    class       volVectorField;
    location    "0.4";
    object      U;
}
// * * * * * * * * * * * * * * * * * * * * * * * * * * * * * * * * * * * * * //

dimensions      [0 1 -1 0 0 0 0];

internalField   nonuniform List<vector> 
800
(
(-8.8888056e-05 0.053449045 -0.00016517799)
(5.1597611e-06 0.053515954 -0.00016556796)
(-1.1484865e-05 0.05353668 -0.00016566357)
(1.0653676e-06 0.05353465 -0.00016565248)
(-3.2123827e-06 0.053536374 -0.00016565737)
(7.2912447e-07 0.053537242 -0.00016565893)
(-1.7470308e-06 0.053536786 -0.00016565836)
(8.3842505e-07 0.053537712 -0.00016566018)
(-1.280792e-06 0.053537248 -0.00016565944)
(1.0275641e-06 0.053537603 -0.00016566013)
(-1.0275667e-06 0.053537603 -0.00016566013)
(1.2807902e-06 0.053537248 -0.00016565944)
(-8.3842584e-07 0.053537712 -0.00016566018)
(1.74703e-06 0.053536786 -0.00016565836)
(-7.2912535e-07 0.053537242 -0.00016565893)
(3.2123815e-06 0.053536374 -0.00016565737)
(-1.0653661e-06 0.05353465 -0.00016565248)
(1.1484867e-05 0.05353668 -0.00016566357)
(-5.1597603e-06 0.053515954 -0.00016556796)
(8.8888056e-05 0.053449045 -0.00016517799)
(1.4334826e-05 -0.066984246 1.4328451e-05)
(1.1512469e-06 -0.067142189 1.4425296e-05)
(-2.4085583e-06 -0.067126149 1.4402299e-05)
(9.1577531e-07 -0.067129355 1.4409053e-05)
(-1.9593719e-06 -0.067127467 1.4405287e-05)
(9.337999e-07 -0.067129097 1.4406493e-05)
(-1.5273182e-06 -0.067128091 1.4405711e-05)
(1.0698784e-06 -0.067129204 1.4406102e-05)
(-1.3423938e-06 -0.067128613 1.4405864e-05)
(1.2083336e-06 -0.067129013 1.4405975e-05)
(-1.2083367e-06 -0.067129013 1.4405975e-05)
(1.342392e-06 -0.067128613 1.4405864e-05)
(-1.0698799e-06 -0.067129204 1.4406103e-05)
(1.5273176e-06 -0.067128091 1.440571e-05)
(-9.3380092e-07 -0.067129097 1.4406493e-05)
(1.9593702e-06 -0.067127467 1.4405286e-05)
(-9.1577255e-07 -0.067129355 1.4409053e-05)
(2.4085565e-06 -0.067126149 1.4402299e-05)
(-1.1512424e-06 -0.067142189 1.4425297e-05)
(-1.4334826e-05 -0.066984246 1.4328451e-05)
(1.1232085e-05 0.074901704 6.29239e-06)
(-7.604206e-08 0.075031835 6.3033017e-06)
(-5.6639824e-06 0.075039836 6.3124791e-06)
(3.3090089e-07 0.075038633 6.3111029e-06)
(-3.2986547e-06 0.075039808 6.3130763e-06)
(3.3610668e-07 0.07504123 6.3133578e-06)
(-1.8594499e-06 0.075040424 6.313378e-06)
(5.0277779e-07 0.075041832 6.3138837e-06)
(-1.1702418e-06 0.075041111 6.3136544e-06)
(7.7306893e-07 0.075041646 6.3138575e-06)
(-7.7307016e-07 0.075041646 6.3138577e-06)
(1.1702411e-06 0.075041111 6.3136549e-06)
(-5.0277808e-07 0.075041832 6.3138839e-06)
(1.8594498e-06 0.075040424 6.3133759e-06)
(-3.361071e-07 0.07504123 6.3133578e-06)
(3.2986536e-06 0.075039808 6.3130757e-06)
(-3.3089979e-07 0.075038633 6.3111029e-06)
(5.6639817e-06 0.075039836 6.3124793e-06)
(7.6043874e-08 0.075031835 6.3033016e-06)
(-1.1232086e-05 0.074901704 6.292385e-06)
(8.7708249e-06 -0.092968041 7.2681564e-06)
(8.4426482e-08 -0.093165031 7.3096937e-06)
(2.6615233e-06 -0.093155298 7.3019158e-06)
(9.9445815e-07 -0.09316078 7.3055589e-06)
(4.8751096e-09 -0.093156733 7.3029955e-06)
(1.448309e-06 -0.093159705 7.3037743e-06)
(-1.0677827e-06 -0.093157623 7.3031328e-06)
(1.6267967e-06 -0.093159346 7.3032457e-06)
(-1.4962184e-06 -0.093158341 7.303125e-06)
(1.6409534e-06 -0.093158922 7.3031307e-06)
(-1.640956e-06 -0.093158922 7.3031308e-06)
(1.4962163e-06 -0.09315834 7.3031251e-06)
(-1.6267986e-06 -0.093159346 7.3032458e-06)
(1.0677827e-06 -0.093157623 7.303133e-06)
(-1.4483115e-06 -0.093159705 7.3037772e-06)
(-4.8713186e-09 -0.093156733 7.3029958e-06)
(-9.9446161e-07 -0.09316078 7.3055585e-06)
(-2.6615205e-06 -0.093155298 7.3019159e-06)
(-8.442872e-08 -0.093165031 7.3096956e-06)
(-8.7708226e-06 -0.092968041 7.2681548e-06)
(2.2471011e-06 0.1058538 -4.9547203e-06)
(-2.3084514e-06 0.10606006 -4.9748429e-06)
(-3.6423431e-06 0.10605786 -4.9729942e-06)
(-9.0378658e-07 0.10606196 -4.9734959e-06)
(-3.0182185e-06 0.10605879 -4.9728678e-06)
(-5.4726438e-07 0.10606268 -4.972388e-06)
(-1.7141421e-06 0.10605999 -4.9725691e-06)
(-2.4743356e-07 0.10606257 -4.972137e-06)
(-7.8505005e-07 0.10606109 -4.9723275e-06)
(1.7247147e-07 0.10606198 -4.9721752e-06)
(-1.7247078e-07 0.10606198 -4.9721745e-06)
(7.8505084e-07 0.10606109 -4.9723277e-06)
(2.4743366e-07 0.10606257 -4.9721366e-06)
(1.7141425e-06 0.10605999 -4.9725696e-06)
(5.4726416e-07 0.10606268 -4.972384e-06)
(3.0182178e-06 0.10605879 -4.9728647e-06)
(9.0378634e-07 0.10606196 -4.9734958e-06)
(3.6423411e-06 0.10605786 -4.9730031e-06)
(2.3084527e-06 0.10606006 -4.9748429e-06)
(-2.2471024e-06 0.1058538 -4.9547214e-06)
(1.0869812e-05 -0.129681 7.474866e-06)
(1.708656e-07 -0.12994862 7.5047792e-06)
(5.3337872e-06 -0.12994146 7.5061596e-06)
(2.1585325e-06 -0.12994814 7.5060421e-06)
(1.174834e-06 -0.12994233 7.5054578e-06)
(2.8764401e-06 -0.12994705 7.5055644e-06)
(-1.0568053e-06 -0.12994339 7.5052706e-06)
(2.9481844e-06 -0.12994617 7.5053388e-06)
(-2.153693e-06 -0.1299444 7.5052183e-06)
(2.6995253e-06 -0.12994532 7.5052458e-06)
(-2.6995258e-06 -0.12994532 7.5052466e-06)
(2.153694e-06 -0.1299444 7.5052185e-06)
(-2.9481855e-06 -0.12994617 7.5053395e-06)
(1.0568064e-06 -0.12994339 7.5052706e-06)
(-2.8764396e-06 -0.12994705 7.5055647e-06)
(-1.1748323e-06 -0.12994233 7.5054567e-06)
(-2.1585314e-06 -0.12994814 7.5060422e-06)
(-5.3337862e-06 -0.12994146 7.50616e-06)
(-1.708654e-07 -0.12994862 7.5047788e-06)
(-1.0869812e-05 -0.129681 7.4748659e-06)
(-5.3751631e-06 0.14943112 -6.6777756e-06)
(-2.0569744e-06 0.14973999 -6.6992272e-06)
(-4.431526e-06 0.14972768 -6.703461e-06)
(-2.3437597e-06 0.14974014 -6.7014406e-06)
(-2.5746851e-06 0.14972984 -6.7025104e-06)
(-2.2474049e-06 0.14973847 -6.7016819e-06)
(-8.9025869e-07 0.14973198 -6.7020815e-06)
(-1.8523274e-06 0.14973686 -6.7017839e-06)
(3.4503867e-07 0.14973379 -6.7018946e-06)
(-1.2241148e-06 0.14973537 -6.701829e-06)
(1.224118e-06 0.14973537 -6.7018286e-06)
(-3.4503571e-07 0.14973379 -6.7018948e-06)
(1.8523313e-06 0.14973686 -6.7017841e-06)
(8.9025926e-07 0.14973198 -6.7020814e-06)
(2.2474069e-06 0.14973847 -6.701682e-06)
(2.5746839e-06 0.14972984 -6.702511e-06)
(2.3437597e-06 0.14974014 -6.7014404e-06)
(4.4315237e-06 0.14972768 -6.7034609e-06)
(2.0569731e-06 0.14973999 -6.6992273e-06)
(5.3751614e-06 0.14943112 -6.6777758e-06)
(2.7992221e-05 -0.18087878 1.2471562e-05)
(4.7035399e-07 -0.18125827 1.2539825e-05)
(6.8887401e-06 -0.18124809 1.2533627e-05)
(5.5922757e-06 -0.18125889 1.2538761e-05)
(-2.6989247e-07 -0.18124923 1.2534347e-05)
(6.396148e-06 -0.18125739 1.2537455e-05)
(-3.0739714e-06 -0.18125085 1.2535002e-05)
(6.0048039e-06 -0.18125569 1.2536672e-05)
(-4.4301145e-06 -0.18125248 1.2535552e-05)
(5.3073468e-06 -0.18125407 1.2536076e-05)
(-5.3073453e-06 -0.18125407 1.2536083e-05)
(4.4301158e-06 -0.18125248 1.2535543e-05)
(-6.0048029e-06 -0.18125569 1.2536672e-05)
(3.0739697e-06 -0.18125085 1.2534999e-05)
(-6.3961495e-06 -0.18125739 1.2537459e-05)
(2.6988628e-07 -0.18124923 1.2534349e-05)
(-5.5922702e-06 -0.18125889 1.2538765e-05)
(-6.8887448e-06 -0.18124809 1.2533632e-05)
(-4.7035457e-07 -0.18125827 1.2539824e-05)
(-2.7992221e-05 -0.18087878 1.2471563e-05)
(-2.317264e-05 0.20989266 -1.0870869e-05)
(-7.3192802e-07 0.21037425 -1.0927337e-05)
(-6.9068746e-06 0.21033305 -1.092348e-05)
(-5.2937695e-06 0.21036155 -1.0927813e-05)
(-8.2134511e-07 0.21033939 -1.0923924e-05)
(-6.0251676e-06 0.21035517 -1.0926952e-05)
(1.9109083e-06 0.21034325 -1.0924561e-05)
(-5.5176601e-06 0.2103514 -1.0926287e-05)
(3.4761852e-06 0.2103461 -1.0925136e-05)
(-4.6110874e-06 0.21034863 -1.0925699e-05)
(4.6110858e-06 0.21034863 -1.0925699e-05)
(-3.4761859e-06 0.2103461 -1.0925136e-05)
(5.5176585e-06 0.2103514 -1.0926287e-05)
(-1.9109072e-06 0.21034325 -1.0924561e-05)
(6.0251673e-06 0.21035517 -1.0926952e-05)
(8.2134636e-07 0.21033939 -1.0923924e-05)
(5.2937678e-06 0.21036155 -1.0927817e-05)
(6.9068744e-06 0.21033305 -1.0923479e-05)
(7.3192767e-07 0.21037425 -1.0927337e-05)
(2.3172641e-05 0.20989266 -1.0870869e-05)
(-1.6518308e-05 -0.252181 -0.00013622126)
(2.2485487e-05 -0.25275785 -0.00013648436)
(-1.2870976e-05 -0.25271797 -0.000136594)
(1.8144141e-05 -0.25274763 -0.0001365782)
(-1.0972346e-05 -0.25272404 -0.00013657972)
(1.4991796e-05 -0.25274158 -0.00013658177)
(-1.0282918e-05 -0.25272808 -0.00013657977)
(1.2745151e-05 -0.25273749 -0.00013658115)
(-1.0418206e-05 -0.25273128 -0.00013658024)
(1.1244215e-05 -0.25273426 -0.00013658064)
(-1.1244217e-05 -0.25273426 -0.00013658065)
(1.0418204e-05 -0.25273128 -0.00013658024)
(-1.274515e-05 -0.25273749 -0.00013658115)
(1.0282916e-05 -0.25272808 -0.00013657978)
(-1.4991795e-05 -0.25274158 -0.00013658177)
(1.0972344e-05 -0.25272404 -0.00013657972)
(-1.8144138e-05 -0.25274763 -0.00013657819)
(1.2870977e-05 -0.25271797 -0.000136594)
(-2.2485482e-05 -0.25275785 -0.00013648435)
(1.6518306e-05 -0.252181 -0.00013622125)
(-9.0052688e-05 0.053776723 6.4752853e-05)
(5.2507628e-06 0.053844274 6.5021722e-05)
(-1.1568286e-05 0.053865138 6.4992358e-05)
(1.0689391e-06 0.053863099 6.4998089e-05)
(-3.2318376e-06 0.05386483 6.4999524e-05)
(7.3075771e-07 0.053865703 6.500087e-05)
(-1.7575764e-06 0.053865245 6.5000531e-05)
(8.4187205e-07 0.053866176 6.5001622e-05)
(-1.2881158e-06 0.05386571 6.5001167e-05)
(1.0328498e-06 0.053866066 6.5001577e-05)
(-1.0328523e-06 0.053866066 6.5001577e-05)
(1.2881145e-06 0.05386571 6.5001167e-05)
(-8.418728e-07 0.053866176 6.5001625e-05)
(1.7575754e-06 0.053865245 6.500053e-05)
(-7.3075783e-07 0.053865703 6.5000871e-05)
(3.2318348e-06 0.05386483 6.4999523e-05)
(-1.0689373e-06 0.053863099 6.4998088e-05)
(1.1568288e-05 0.053865138 6.4992356e-05)
(-5.2507619e-06 0.053844274 6.5021722e-05)
(9.0052688e-05 0.053776723 6.4752853e-05)
(1.4468247e-05 -0.067564853 1.0723228e-05)
(1.1658582e-06 -0.067724732 1.0783552e-05)
(-2.4319448e-06 -0.067708579 1.0765959e-05)
(9.1826048e-07 -0.067711807 1.0771378e-05)
(-1.9732999e-06 -0.067709907 1.0768701e-05)
(9.3697318e-07 -0.067711548 1.0769375e-05)
(-1.5367651e-06 -0.067710536 1.0769014e-05)
(1.0746735e-06 -0.067711657 1.0769148e-05)
(-1.3499411e-06 -0.067711062 1.0769085e-05)
(1.2145279e-06 -0.067711466 1.0769116e-05)
(-1.2145308e-06 -0.067711466 1.0769116e-05)
(1.3499387e-06 -0.067711062 1.0769086e-05)
(-1.0746746e-06 -0.067711657 1.0769148e-05)
(1.5367642e-06 -0.067710536 1.0769014e-05)
(-9.3697379e-07 -0.067711548 1.0769375e-05)
(1.9732979e-06 -0.067709907 1.0768702e-05)
(-9.1825802e-07 -0.067711807 1.0771379e-05)
(2.4319431e-06 -0.067708579 1.0765959e-05)
(-1.1658535e-06 -0.067724732 1.0783552e-05)
(-1.4468247e-05 -0.067564853 1.0723228e-05)
(1.1271558e-05 0.075454476 1.1525983e-05)
(-8.0814222e-08 0.075586061 1.1546529e-05)
(-5.7015613e-06 0.075594124 1.1552112e-05)
(3.2663495e-07 0.075592916 1.1550884e-05)
(-3.3201141e-06 0.075594097 1.1552627e-05)
(3.3438702e-07 0.075595529 1.155257e-05)
(-1.8713379e-06 0.075594719 1.1552779e-05)
(5.0370747e-07 0.075596136 1.1553045e-05)
(-1.1771547e-06 0.075595411 1.1552951e-05)
(7.7671763e-07 0.07559595 1.155307e-05)
(-7.7671894e-07 0.07559595 1.155307e-05)
(1.177154e-06 0.075595411 1.1552951e-05)
(-5.0370786e-07 0.075596136 1.1553044e-05)
(1.8713373e-06 0.075594719 1.1552782e-05)
(-3.3438705e-07 0.075595529 1.155257e-05)
(3.3201131e-06 0.075594097 1.1552627e-05)
(-3.2663446e-07 0.075592916 1.1550884e-05)
(5.7015615e-06 0.075594124 1.1552112e-05)
(8.0815762e-08 0.075586061 1.1546529e-05)
(-1.1271558e-05 0.075454476 1.1525988e-05)
(8.8563382e-06 -0.093712968 1.1511199e-06)
(8.550198e-08 -0.093912246 1.1553648e-06)
(2.6769679e-06 -0.093902464 1.1514171e-06)
(1.0003474e-06 -0.093907974 1.1536667e-06)
(4.7053245e-09 -0.093903907 1.152359e-06)
(1.4562113e-06 -0.093906895 1.1527248e-06)
(-1.0737004e-06 -0.093904802 1.1524711e-06)
(1.6355984e-06 -0.093906535 1.1524386e-06)
(-1.5043206e-06 -0.093905524 1.1524425e-06)
(1.6498013e-06 -0.093906109 1.1524095e-06)
(-1.6498038e-06 -0.093906109 1.1524095e-06)
(1.5043186e-06 -0.093905524 1.1524428e-06)
(-1.6356008e-06 -0.093906535 1.1524388e-06)
(1.073701e-06 -0.093904802 1.1524717e-06)
(-1.4562138e-06 -0.093906895 1.1527225e-06)
(-4.7014173e-09 -0.093903907 1.1523589e-06)
(-1.0003506e-06 -0.093907974 1.1536667e-06)
(-2.6769649e-06 -0.093902464 1.1514164e-06)
(-8.5505532e-08 -0.093912246 1.1553626e-06)
(-8.8563356e-06 -0.093712968 1.1511213e-06)
(2.2217608e-06 0.10667066 1.1665469e-06)
(-2.3281637e-06 0.10687927 1.1676208e-06)
(-3.6713881e-06 0.10687706 1.168207e-06)
(-9.1534228e-07 0.10688118 1.1675433e-06)
(-3.0398716e-06 0.106878 1.1681349e-06)
(-5.5484304e-07 0.10688191 1.1681985e-06)
(-1.7262913e-06 0.10687921 1.1682066e-06)
(-2.5132873e-07 0.10688181 1.1683804e-06)
(-7.9027534e-07 0.10688032 1.1683008e-06)
(1.7266591e-07 0.10688121 1.1683723e-06)
(-1.7266545e-07 0.10688121 1.1683721e-06)
(7.9027642e-07 0.10688032 1.1683011e-06)
(2.5132796e-07 0.10688181 1.1683809e-06)
(1.7262927e-06 0.10687921 1.1682068e-06)
(5.5484181e-07 0.10688191 1.1681934e-06)
(3.039871e-06 0.106878 1.1681316e-06)
(9.153422e-07 0.10688118 1.167543e-06)
(3.6713882e-06 0.10687706 1.1682151e-06)
(2.3281623e-06 0.10687927 1.1676208e-06)
(-2.2217627e-06 0.10667066 1.1665482e-06)
(1.0966394e-05 -0.13072524 8.8923703e-07)
(1.7364157e-07 -0.13099606 8.805448e-07)
(5.3709054e-06 -0.13098886 8.8229083e-07)
(2.1748307e-06 -0.13099558 8.8218559e-07)
(1.1846188e-06 -0.13098974 8.8199525e-07)
(2.895281e-06 -0.13099449 8.8194961e-07)
(-1.0609255e-06 -0.13099081 8.8195727e-07)
(2.9659648e-06 -0.1309936 8.8186395e-07)
(-2.1648651e-06 -0.13099182 8.8190971e-07)
(2.7147114e-06 -0.13099274 8.8187196e-07)
(-2.7147124e-06 -0.13099274 8.8187154e-07)
(2.1648667e-06 -0.13099182 8.8191057e-07)
(-2.9659666e-06 -0.1309936 8.8186389e-07)
(1.0609265e-06 -0.13099081 8.8195725e-07)
(-2.8952799e-06 -0.13099449 8.8194957e-07)
(-1.1846175e-06 -0.13098974 8.8199454e-07)
(-2.1748298e-06 -0.13099558 8.8218553e-07)
(-5.370904e-06 -0.13098886 8.822905e-07)
(-1.7364167e-07 -0.13099606 8.8054479e-07)
(-1.0966393e-05 -0.13072524 8.8923652e-07)
(-5.4408539e-06 0.15061858 -3.1342813e-07)
(-2.0731725e-06 0.15093105 -3.054629e-07)
(-4.4671868e-06 0.15091867 -3.0856953e-07)
(-2.3641485e-06 0.15093121 -3.0767711e-07)
(-2.5958031e-06 0.15092084 -3.0816997e-07)
(-2.2656514e-06 0.15092952 -3.077969e-07)
(-8.9924326e-07 0.150923 -3.0803348e-07)
(-1.8659317e-06 0.15092791 -3.0785209e-07)
(3.4536097e-07 0.15092483 -3.0795384e-07)
(-1.2317252e-06 0.15092641 -3.0789947e-07)
(1.2317285e-06 0.15092641 -3.078998e-07)
(-3.4535829e-07 0.15092483 -3.0795285e-07)
(1.8659358e-06 0.15092791 -3.0785245e-07)
(8.992433e-07 0.150923 -3.0803432e-07)
(2.2656539e-06 0.15092952 -3.0779727e-07)
(2.595802e-06 0.15092084 -3.0817068e-07)
(2.3641474e-06 0.15093121 -3.0767733e-07)
(4.467185e-06 0.15091867 -3.0856978e-07)
(2.0731716e-06 0.15093105 -3.0546307e-07)
(5.4408519e-06 0.15061858 -3.1342837e-07)
(2.8205376e-05 -0.18236057 5.8493367e-06)
(4.8077967e-07 -0.18274469 5.8628985e-06)
(6.9351819e-06 -0.18273445 5.8506313e-06)
(5.6349119e-06 -0.18274531 5.8581092e-06)
(-2.6683639e-07 -0.1827356 5.8526834e-06)
(6.4392914e-06 -0.1827438 5.8558512e-06)
(-3.08821e-06 -0.18273723 5.8536392e-06)
(6.0421545e-06 -0.18274209 5.8549554e-06)
(-4.4536185e-06 -0.18273887 5.8541189e-06)
(5.3379291e-06 -0.18274047 5.8544936e-06)
(-5.3379267e-06 -0.18274047 5.854487e-06)
(4.4536196e-06 -0.18273887 5.8541278e-06)
(-6.0421551e-06 -0.18274209 5.854956e-06)
(3.0882077e-06 -0.18273723 5.8536409e-06)
(-6.4392938e-06 -0.1827438 5.8558491e-06)
(2.6683506e-07 -0.1827356 5.8526789e-06)
(-5.6349175e-06 -0.18274531 5.858107e-06)
(-6.9351786e-06 -0.18273445 5.8506297e-06)
(-4.8077893e-07 -0.18274469 5.8628978e-06)
(-2.8205375e-05 -0.18236057 5.8493359e-06)
(-2.3353385e-05 0.21164165 -4.2506601e-06)
(-7.4376067e-07 0.212129 -4.2584343e-06)
(-6.9557827e-06 0.21208751 -4.2488471e-06)
(-5.3355034e-06 0.21211619 -4.2551414e-06)
(-8.3292698e-07 0.2120939 -4.2504669e-06)
(-6.0674648e-06 0.21210977 -4.2533108e-06)
(1.9169014e-06 0.21209778 -4.2513156e-06)
(-5.5532049e-06 0.21210597 -4.2525444e-06)
(3.4935592e-06 0.21210065 -4.2517724e-06)
(-4.6379322e-06 0.2121032 -4.252122e-06)
(4.6379301e-06 0.2121032 -4.252122e-06)
(-3.4935592e-06 0.21210065 -4.2517722e-06)
(5.5532028e-06 0.21210597 -4.2525437e-06)
(-1.9169001e-06 0.21209778 -4.2513156e-06)
(6.0674644e-06 0.21210977 -4.2533108e-06)
(8.3292858e-07 0.2120939 -4.250467e-06)
(5.3355015e-06 0.21211619 -4.2551373e-06)
(6.9557826e-06 0.21208751 -4.2488466e-06)
(7.4376006e-07 0.212129 -4.258434e-06)
(2.3353386e-05 0.21164165 -4.2506603e-06)
(-1.7508117e-05 -0.25431848 0.00014395099)
(2.2806273e-05 -0.25490241 0.00014463326)
(-1.2995499e-05 -0.25486226 0.00014449521)
(1.8278312e-05 -0.25489211 0.00014453085)
(-1.1035797e-05 -0.25486838 0.00014451415)
(1.5090635e-05 -0.25488602 0.00014452278)
(-1.0338951e-05 -0.25487244 0.00014451675)
(1.2823845e-05 -0.2548819 0.00014452073)
(-1.0475994e-05 -0.25487566 0.00014451814)
(1.1309584e-05 -0.25487866 0.00014451937)
(-1.1309586e-05 -0.25487866 0.00014451937)
(1.0475992e-05 -0.25487566 0.00014451813)
(-1.2823845e-05 -0.2548819 0.00014452074)
(1.0338949e-05 -0.25487244 0.00014451675)
(-1.5090634e-05 -0.25488602 0.00014452278)
(1.1035794e-05 -0.25486838 0.00014451415)
(-1.8278308e-05 -0.25489211 0.00014453085)
(1.2995499e-05 -0.25486226 0.00014449521)
(-2.280627e-05 -0.25490241 0.00014463325)
(1.7508117e-05 -0.25431848 0.00014395098)
(-9.0052688e-05 0.053776723 -6.4752851e-05)
(5.2507628e-06 0.053844274 -6.5021722e-05)
(-1.1568286e-05 0.053865138 -6.4992356e-05)
(1.0689389e-06 0.053863099 -6.4998087e-05)
(-3.2318372e-06 0.05386483 -6.4999522e-05)
(7.3075809e-07 0.053865703 -6.5000868e-05)
(-1.7575756e-06 0.053865245 -6.5000531e-05)
(8.4187211e-07 0.053866176 -6.5001621e-05)
(-1.2881155e-06 0.05386571 -6.5001166e-05)
(1.0328501e-06 0.053866066 -6.5001576e-05)
(-1.0328525e-06 0.053866066 -6.5001575e-05)
(1.2881133e-06 0.05386571 -6.5001165e-05)
(-8.4187277e-07 0.053866176 -6.5001622e-05)
(1.7575752e-06 0.053865245 -6.5000527e-05)
(-7.3075796e-07 0.053865703 -6.5000868e-05)
(3.2318357e-06 0.05386483 -6.4999522e-05)
(-1.0689377e-06 0.053863099 -6.4998087e-05)
(1.1568288e-05 0.053865138 -6.4992356e-05)
(-5.2507622e-06 0.053844274 -6.5021721e-05)
(9.0052688e-05 0.053776723 -6.4752852e-05)
(1.4468247e-05 -0.067564853 -1.0723227e-05)
(1.1658589e-06 -0.067724732 -1.0783551e-05)
(-2.4319457e-06 -0.067708579 -1.0765958e-05)
(9.1826132e-07 -0.067711807 -1.0771378e-05)
(-1.9733002e-06 -0.067709907 -1.07687e-05)
(9.3697373e-07 -0.067711548 -1.0769374e-05)
(-1.5367652e-06 -0.067710536 -1.0769014e-05)
(1.0746737e-06 -0.067711657 -1.0769147e-05)
(-1.3499408e-06 -0.067711062 -1.0769084e-05)
(1.2145282e-06 -0.067711466 -1.0769114e-05)
(-1.2145307e-06 -0.067711466 -1.0769114e-05)
(1.3499385e-06 -0.067711062 -1.0769084e-05)
(-1.0746748e-06 -0.067711657 -1.0769147e-05)
(1.5367642e-06 -0.067710536 -1.0769012e-05)
(-9.3697475e-07 -0.067711548 -1.0769374e-05)
(1.9732991e-06 -0.067709907 -1.07687e-05)
(-9.1825902e-07 -0.067711807 -1.0771377e-05)
(2.4319438e-06 -0.067708579 -1.0765958e-05)
(-1.1658545e-06 -0.067724732 -1.078355e-05)
(-1.4468248e-05 -0.067564853 -1.0723227e-05)
(1.1271558e-05 0.075454476 -1.1525982e-05)
(-8.0812194e-08 0.075586061 -1.1546528e-05)
(-5.7015633e-06 0.075594124 -1.1552111e-05)
(3.2663656e-07 0.075592916 -1.1550883e-05)
(-3.3201147e-06 0.075594097 -1.1552627e-05)
(3.3438728e-07 0.075595529 -1.1552569e-05)
(-1.8713376e-06 0.075594719 -1.1552779e-05)
(5.0370729e-07 0.075596136 -1.1553043e-05)
(-1.1771541e-06 0.075595411 -1.155295e-05)
(7.7671774e-07 0.07559595 -1.1553069e-05)
(-7.7671883e-07 0.07559595 -1.1553069e-05)
(1.1771531e-06 0.075595411 -1.1552949e-05)
(-5.0370783e-07 0.075596136 -1.1553044e-05)
(1.8713376e-06 0.075594719 -1.1552781e-05)
(-3.3438786e-07 0.075595529 -1.1552569e-05)
(3.3201141e-06 0.075594097 -1.1552626e-05)
(-3.2663549e-07 0.075592916 -1.1550883e-05)
(5.7015623e-06 0.075594124 -1.1552112e-05)
(8.0814422e-08 0.075586061 -1.1546528e-05)
(-1.1271558e-05 0.075454476 -1.1525986e-05)
(8.8563376e-06 -0.093712968 -1.1511205e-06)
(8.5503226e-08 -0.093912246 -1.1553646e-06)
(2.6769674e-06 -0.093902464 -1.1514167e-06)
(1.000349e-06 -0.093907974 -1.1536667e-06)
(4.7036295e-09 -0.093903907 -1.1523599e-06)
(1.4562112e-06 -0.093906895 -1.1527246e-06)
(-1.0737004e-06 -0.093904802 -1.1524705e-06)
(1.6355984e-06 -0.093906535 -1.1524385e-06)
(-1.50432e-06 -0.093905524 -1.1524427e-06)
(1.6498012e-06 -0.093906109 -1.1524097e-06)
(-1.6498036e-06 -0.093906109 -1.1524095e-06)
(1.504318e-06 -0.093905524 -1.1524419e-06)
(-1.6356004e-06 -0.093906535 -1.1524379e-06)
(1.0737003e-06 -0.093904802 -1.1524706e-06)
(-1.4562136e-06 -0.093906895 -1.1527225e-06)
(-4.7017948e-09 -0.093903907 -1.1523594e-06)
(-1.0003512e-06 -0.093907974 -1.1536675e-06)
(-2.6769645e-06 -0.093902464 -1.151416e-06)
(-8.5505723e-08 -0.093912246 -1.1553624e-06)
(-8.8563356e-06 -0.093712968 -1.1511216e-06)
(2.2217619e-06 0.10667066 -1.1665445e-06)
(-2.3281613e-06 0.10687927 -1.1676208e-06)
(-3.6713913e-06 0.10687706 -1.1682068e-06)
(-9.1534194e-07 0.10688118 -1.1675411e-06)
(-3.0398706e-06 0.106878 -1.1681336e-06)
(-5.5484169e-07 0.10688191 -1.1681992e-06)
(-1.7262919e-06 0.10687921 -1.1682074e-06)
(-2.5132783e-07 0.10688181 -1.1683811e-06)
(-7.9027506e-07 0.10688032 -1.1683014e-06)
(1.7266621e-07 0.10688121 -1.168372e-06)
(-1.7266518e-07 0.10688121 -1.1683722e-06)
(7.9027578e-07 0.10688032 -1.1683016e-06)
(2.5132816e-07 0.10688181 -1.1683811e-06)
(1.7262919e-06 0.10687921 -1.1682067e-06)
(5.5484209e-07 0.10688191 -1.1681937e-06)
(3.0398699e-06 0.106878 -1.1681319e-06)
(9.1534024e-07 0.10688118 -1.1675414e-06)
(3.6713896e-06 0.10687706 -1.1682122e-06)
(2.3281642e-06 0.10687927 -1.1676207e-06)
(-2.2217628e-06 0.10667066 -1.1665481e-06)
(1.0966394e-05 -0.13072524 -8.8923604e-07)
(1.736426e-07 -0.13099606 -8.8054566e-07)
(5.3709013e-06 -0.13098886 -8.8229048e-07)
(2.1748342e-06 -0.13099558 -8.8218495e-07)
(1.1846167e-06 -0.13098974 -8.8199536e-07)
(2.8952826e-06 -0.13099449 -8.8194814e-07)
(-1.0609258e-06 -0.13099081 -8.8195699e-07)
(2.9659664e-06 -0.1309936 -8.81864e-07)
(-2.1648657e-06 -0.13099182 -8.8191034e-07)
(2.7147111e-06 -0.13099274 -8.8187188e-07)
(-2.7147116e-06 -0.13099274 -8.8187242e-07)
(2.1648654e-06 -0.13099182 -8.8191036e-07)
(-2.965966e-06 -0.1309936 -8.8186362e-07)
(1.0609265e-06 -0.13099081 -8.8195814e-07)
(-2.8952802e-06 -0.13099449 -8.8194853e-07)
(-1.1846172e-06 -0.13098974 -8.8199559e-07)
(-2.1748306e-06 -0.13099558 -8.8218592e-07)
(-5.3709034e-06 -0.13098886 -8.8229083e-07)
(-1.7364174e-07 -0.13099606 -8.8054521e-07)
(-1.0966393e-05 -0.13072524 -8.8923623e-07)
(-5.4408534e-06 0.15061858 3.1342802e-07)
(-2.0731733e-06 0.15093105 3.0546367e-07)
(-4.467185e-06 0.15091867 3.0856902e-07)
(-2.3641498e-06 0.15093121 3.0767674e-07)
(-2.595803e-06 0.15092084 3.0817051e-07)
(-2.2656518e-06 0.15092952 3.0779686e-07)
(-8.9924485e-07 0.150923 3.0803443e-07)
(-1.8659283e-06 0.15092791 3.0785179e-07)
(3.4535944e-07 0.15092483 3.0795283e-07)
(-1.2317249e-06 0.15092641 3.0789983e-07)
(1.2317289e-06 0.15092641 3.0789991e-07)
(-3.4535956e-07 0.15092483 3.0795322e-07)
(1.865936e-06 0.15092791 3.0785235e-07)
(8.9924298e-07 0.150923 3.0803328e-07)
(2.2656543e-06 0.15092952 3.0779641e-07)
(2.5958017e-06 0.15092084 3.081702e-07)
(2.3641478e-06 0.15093121 3.0767598e-07)
(4.4671846e-06 0.15091867 3.0856867e-07)
(2.0731721e-06 0.15093105 3.0546367e-07)
(5.440852e-06 0.15061858 3.134288e-07)
(2.8205375e-05 -0.18236057 -5.8493382e-06)
(4.8077717e-07 -0.18274469 -5.8628972e-06)
(6.9351841e-06 -0.18273445 -5.8506317e-06)
(5.6349118e-06 -0.18274531 -5.858111e-06)
(-2.6683618e-07 -0.1827356 -5.8526825e-06)
(6.4392917e-06 -0.1827438 -5.8558526e-06)
(-3.0882099e-06 -0.18273723 -5.8536381e-06)
(6.0421578e-06 -0.18274209 -5.8549563e-06)
(-4.4536189e-06 -0.18273887 -5.8541212e-06)
(5.3379266e-06 -0.18274047 -5.8544939e-06)
(-5.3379267e-06 -0.18274047 -5.8544855e-06)
(4.4536213e-06 -0.18273887 -5.8541278e-06)
(-6.042155e-06 -0.18274209 -5.8549557e-06)
(3.0882097e-06 -0.18273723 -5.8536414e-06)
(-6.4392939e-06 -0.1827438 -5.8558497e-06)
(2.6683501e-07 -0.1827356 -5.8526804e-06)
(-5.6349174e-06 -0.18274531 -5.8581083e-06)
(-6.9351831e-06 -0.18273445 -5.8506286e-06)
(-4.8077998e-07 -0.18274469 -5.8628967e-06)
(-2.8205375e-05 -0.18236057 -5.8493344e-06)
(-2.3353384e-05 0.21164165 4.2506591e-06)
(-7.4376089e-07 0.212129 4.2584341e-06)
(-6.955782e-06 0.21208751 4.248847e-06)
(-5.3355034e-06 0.21211619 4.2551415e-06)
(-8.3292693e-07 0.2120939 4.2504673e-06)
(-6.0674649e-06 0.21210977 4.253311e-06)
(1.9169014e-06 0.21209778 4.2513153e-06)
(-5.5532046e-06 0.21210597 4.252543e-06)
(3.4935586e-06 0.21210065 4.2517721e-06)
(-4.6379315e-06 0.2121032 4.2521223e-06)
(4.6379301e-06 0.2121032 4.2521223e-06)
(-3.4935592e-06 0.21210065 4.2517723e-06)
(5.5532029e-06 0.21210597 4.2525438e-06)
(-1.9169001e-06 0.21209778 4.2513158e-06)
(6.0674643e-06 0.21210977 4.2533111e-06)
(8.3292831e-07 0.2120939 4.2504673e-06)
(5.335502e-06 0.21211619 4.2551371e-06)
(6.9557821e-06 0.21208751 4.2488472e-06)
(7.4376051e-07 0.212129 4.2584344e-06)
(2.3353385e-05 0.21164165 4.2506597e-06)
(-1.7508117e-05 -0.25431848 -0.00014395099)
(2.2806269e-05 -0.25490241 -0.00014463326)
(-1.2995493e-05 -0.25486226 -0.00014449521)
(1.8278312e-05 -0.25489211 -0.00014453086)
(-1.1035796e-05 -0.25486838 -0.00014451415)
(1.5090635e-05 -0.25488602 -0.00014452278)
(-1.0338951e-05 -0.25487244 -0.00014451675)
(1.2823846e-05 -0.2548819 -0.00014452073)
(-1.0475993e-05 -0.25487566 -0.00014451814)
(1.1309584e-05 -0.25487866 -0.00014451937)
(-1.1309586e-05 -0.25487866 -0.00014451937)
(1.0475992e-05 -0.25487566 -0.00014451814)
(-1.2823845e-05 -0.2548819 -0.00014452074)
(1.0338949e-05 -0.25487244 -0.00014451675)
(-1.5090634e-05 -0.25488602 -0.00014452278)
(1.1035796e-05 -0.25486838 -0.00014451415)
(-1.8278308e-05 -0.25489211 -0.00014453085)
(1.2995497e-05 -0.25486226 -0.00014449521)
(-2.2806269e-05 -0.25490241 -0.00014463325)
(1.7508116e-05 -0.25431848 -0.00014395098)
(-8.8888056e-05 0.053449045 0.00016517799)
(5.1597612e-06 0.053515954 0.00016556796)
(-1.1484865e-05 0.05353668 0.00016566357)
(1.0653675e-06 0.05353465 0.00016565248)
(-3.2123835e-06 0.053536374 0.00016565737)
(7.2912538e-07 0.053537242 0.00016565893)
(-1.7470308e-06 0.053536786 0.00016565836)
(8.3842511e-07 0.053537712 0.00016566018)
(-1.2807917e-06 0.053537248 0.00016565944)
(1.0275642e-06 0.053537603 0.00016566013)
(-1.0275667e-06 0.053537603 0.00016566013)
(1.2807901e-06 0.053537248 0.00016565944)
(-8.3842534e-07 0.053537712 0.00016566018)
(1.7470257e-06 0.053536786 0.00016565836)
(-7.2912133e-07 0.053537242 0.00016565893)
(3.2123811e-06 0.053536374 0.00016565737)
(-1.065366e-06 0.05353465 0.00016565248)
(1.1484867e-05 0.05353668 0.00016566357)
(-5.1597602e-06 0.053515954 0.00016556796)
(8.8888056e-05 0.053449045 0.00016517799)
(1.4334825e-05 -0.066984246 -1.432845e-05)
(1.1512466e-06 -0.067142189 -1.4425296e-05)
(-2.4085582e-06 -0.067126149 -1.4402298e-05)
(9.157754e-07 -0.067129355 -1.4409052e-05)
(-1.9593717e-06 -0.067127467 -1.4405285e-05)
(9.3379975e-07 -0.067129097 -1.4406492e-05)
(-1.5273183e-06 -0.067128091 -1.4405709e-05)
(1.0698787e-06 -0.067129204 -1.4406101e-05)
(-1.3423938e-06 -0.067128613 -1.4405863e-05)
(1.2083338e-06 -0.067129013 -1.4405974e-05)
(-1.2083365e-06 -0.067129013 -1.4405974e-05)
(1.3423917e-06 -0.067128613 -1.4405863e-05)
(-1.0698797e-06 -0.067129204 -1.4406101e-05)
(1.5273175e-06 -0.067128091 -1.4405709e-05)
(-9.3380094e-07 -0.067129097 -1.4406492e-05)
(1.95937e-06 -0.067127467 -1.4405286e-05)
(-9.1577287e-07 -0.067129355 -1.4409052e-05)
(2.4085565e-06 -0.067126149 -1.4402298e-05)
(-1.1512425e-06 -0.067142189 -1.4425296e-05)
(-1.4334826e-05 -0.066984246 -1.432845e-05)
(1.1232085e-05 0.074901704 -6.2923896e-06)
(-7.60419e-08 0.075031835 -6.3033013e-06)
(-5.6639824e-06 0.075039836 -6.3124787e-06)
(3.3090115e-07 0.075038633 -6.3111023e-06)
(-3.2986548e-06 0.075039808 -6.3130752e-06)
(3.3610653e-07 0.07504123 -6.3133579e-06)
(-1.85945e-06 0.075040424 -6.3133783e-06)
(5.0277805e-07 0.075041832 -6.3138839e-06)
(-1.1702418e-06 0.075041111 -6.3136545e-06)
(7.7306895e-07 0.075041646 -6.313857e-06)
(-7.7307016e-07 0.075041646 -6.313857e-06)
(1.1702408e-06 0.075041111 -6.3136544e-06)
(-5.0277814e-07 0.075041832 -6.3138841e-06)
(1.85945e-06 0.075040424 -6.3133757e-06)
(-3.3610711e-07 0.07504123 -6.3133574e-06)
(3.2986536e-06 0.075039808 -6.3130756e-06)
(-3.3090005e-07 0.075038633 -6.3111025e-06)
(5.6639816e-06 0.075039836 -6.3124788e-06)
(7.6043943e-08 0.075031835 -6.3033016e-06)
(-1.1232086e-05 0.074901704 -6.2923852e-06)
(8.770825e-06 -0.092968041 -7.2681557e-06)
(8.4426611e-08 -0.093165031 -7.3096934e-06)
(2.6615233e-06 -0.093155298 -7.3019157e-06)
(9.9445797e-07 -0.09316078 -7.3055585e-06)
(4.8749498e-09 -0.093156733 -7.3029945e-06)
(1.4483091e-06 -0.093159705 -7.3037748e-06)
(-1.0677829e-06 -0.093157623 -7.3031334e-06)
(1.6267966e-06 -0.093159346 -7.3032461e-06)
(-1.4962182e-06 -0.093158341 -7.3031254e-06)
(1.6409534e-06 -0.093158922 -7.303131e-06)
(-1.6409558e-06 -0.093158922 -7.3031308e-06)
(1.4962165e-06 -0.093158341 -7.3031256e-06)
(-1.6267982e-06 -0.093159346 -7.3032463e-06)
(1.0677824e-06 -0.093157623 -7.303133e-06)
(-1.4483115e-06 -0.093159705 -7.3037767e-06)
(-4.8717337e-09 -0.093156733 -7.3029952e-06)
(-9.9446029e-07 -0.09316078 -7.3055591e-06)
(-2.6615215e-06 -0.093155298 -7.301916e-06)
(-8.4428733e-08 -0.093165031 -7.3096956e-06)
(-8.7708228e-06 -0.092968041 -7.2681549e-06)
(2.2471012e-06 0.1058538 4.9547185e-06)
(-2.3084513e-06 0.10606006 4.9748436e-06)
(-3.642343e-06 0.10605786 4.9729949e-06)
(-9.0378689e-07 0.10606196 4.9734941e-06)
(-3.0182186e-06 0.10605879 4.9728667e-06)
(-5.4726454e-07 0.10606268 4.9723886e-06)
(-1.7141423e-06 0.10605999 4.9725697e-06)