/*--------------------------------*- C++ -*----------------------------------*\
  =========                 |
  \\      /  F ield         | OpenFOAM: The Open Source CFD Toolbox
   \\    /   O peration     | Website:  https://openfoam.org
    \\  /    A nd           | Version:  8
     \\/     M anipulation  |
\*---------------------------------------------------------------------------*/
FoamFile
{
    version     2.0;
    format      ascii;
    class       volScalarField;
    location    "2.50002999";
    object      alphat;
}
// * * * * * * * * * * * * * * * * * * * * * * * * * * * * * * * * * * * * * //

dimensions      [1 -1 -1 0 0 0 0];

internalField   nonuniform List<scalar> 
6800
(
0.00595152
0.0154778
0.0202709
0.0230933
0.0267291
0.0299984
0.0271817
0.0224872
0.0135816
0.0102221
0.00468535
0.0155094
0.0214361
0.0240518
0.0296195
0.0284045
0.0202765
0.0124872
0.00910234
0.00837679
0.00579972
0.0175026
0.0222783
0.0268322
0.0305814
0.0202302
0.0120149
0.00906663
0.00809686
0.00709859
0.00627712
0.0194407
0.0240228
0.0288158
0.0236838
0.0143537
0.0110899
0.00903474
0.00717875
0.00646753
0.006629
0.0207813
0.0249659
0.0290028
0.017638
0.0119198
0.00829684
0.00692951
0.00630878
0.00587252
0.0068527
0.022965
0.0266328
0.0248227
0.0145679
0.00942148
0.00834126
0.00756743
0.00646355
0.0056943
0.00692806
0.0246558
0.0278631
0.0198933
0.0107732
0.00889628
0.00729117
0.00607734
0.005429
0.00509473
0.00726177
0.0271707
0.0274604
0.0143608
0.0107452
0.00845852
0.00731154
0.00649985
0.00574479
0.00531641
0.0076199
0.0296456
0.0241887
0.0139644
0.00912733
0.00766995
0.00640982
0.00550882
0.00507776
0.00480894
0.00802038
0.0326126
0.0225242
0.0114682
0.00946884
0.007592
0.00670098
0.00585941
0.005298
0.00495808
0.0345347
0.147469
0.203838
0.219523
0.223961
0.224581
0.226831
0.230258
0.234068
0.235771
0.0331421
0.142137
0.197115
0.213149
0.21587
0.214576
0.214653
0.216015
0.217754
0.219215
0.0306326
0.130789
0.183309
0.200602
0.20154
0.198925
0.197237
0.195674
0.193605
0.193537
0.0276557
0.117804
0.166968
0.183263
0.182542
0.179218
0.173614
0.169777
0.162473
0.153723
0.0245342
0.104924
0.149938
0.159809
0.156029
0.149199
0.140385
0.13106
0.115661
0.0932045
0.0218328
0.0937055
0.127126
0.127931
0.119281
0.110376
0.0947723
0.0707451
0.0576051
0.0415248
0.0195367
0.0793932
0.0988006
0.0887884
0.0777571
0.0553154
0.0404108
0.0341324
0.033626
0.0292143
0.0183957
0.0626322
0.0577092
0.0471808
0.0323673
0.0297046
0.0295707
0.0285948
0.0287872
0.0263022
0.0158893
0.0331622
0.0262045
0.0254183
0.0253722
0.0269469
0.028234
0.0279899
0.027178
0.0236486
0.0115862
0.0175334
0.0199984
0.0226686
0.0250616
0.0276819
0.0288605
0.0263605
0.0252898
0.0157722
0.236942
0.23756
0.236053
0.23412
0.232275
0.230651
0.229248
0.228086
0.22716
0.226428
0.225851
0.225381
0.224983
0.224645
0.224336
0.224057
0.223801
0.223577
0.223377
0.223191
0.223012
0.222835
0.222653
0.222466
0.222271
0.222069
0.221861
0.221649
0.221436
0.221222
0.221011
0.220807
0.220611
0.220422
0.220239
0.220061
0.219887
0.219715
0.219543
0.21937
0.219197
0.219024
0.218854
0.218686
0.218522
0.218362
0.218209
0.218064
0.217928
0.217802
0.217687
0.217584
0.217492
0.217411
0.217342
0.217281
0.217227
0.217179
0.217132
0.217084
0.217033
0.216976
0.21691
0.216834
0.216746
0.216645
0.216533
0.216407
0.21627
0.216122
0.215965
0.2158
0.215629
0.215453
0.215276
0.215099
0.214923
0.214751
0.214585
0.214425
0.214274
0.214132
0.214
0.213881
0.213771
0.213676
0.213589
0.21352
0.213454
0.213414
0.213364
0.213355
0.213314
0.213342
0.213302
0.213369
0.213306
0.21345
0.213162
0.213709
0.220624
0.221227
0.220362
0.218974
0.217615
0.216451
0.215514
0.214816
0.214313
0.213973
0.213761
0.213618
0.213514
0.213465
0.213407
0.213385
0.213394
0.213426
0.213472
0.213524
0.213573
0.213614
0.213641
0.213654
0.213651
0.213634
0.213605
0.213567
0.213523
0.21347
0.213423
0.213383
0.213348
0.213317
0.213287
0.213257
0.213223
0.213185
0.213142
0.213091
0.21304
0.212989
0.212935
0.21288
0.212824
0.212769
0.212717
0.212669
0.212628
0.212595
0.21257
0.212556
0.21255
0.212555
0.212567
0.212585
0.212607
0.21263
0.212652
0.21267
0.212681
0.212682
0.212673
0.21265
0.212615
0.212565
0.212502
0.212426
0.212337
0.212237
0.212128
0.212011
0.211887
0.211759
0.211629
0.211499
0.21137
0.211245
0.211124
0.211011
0.210905
0.210809
0.210722
0.210647
0.210581
0.21053
0.210485
0.21046
0.210435
0.210438
0.210428
0.210462
0.210458
0.210529
0.210523
0.210633
0.210602
0.210792
0.210525
0.211126
0.196893
0.196219
0.195039
0.193631
0.192433
0.191586
0.191072
0.190842
0.190813
0.190936
0.191178
0.191533
0.191983
0.19251
0.193161
0.193855
0.194556
0.195248
0.195919
0.19656
0.197164
0.197725
0.198243
0.198717
0.199151
0.199549
0.199916
0.200255
0.200574
0.200866
0.201176
0.201481
0.201774
0.202051
0.20231
0.202551
0.202775
0.202979
0.203166
0.203336
0.203485
0.203616
0.203732
0.203839
0.203938
0.204034
0.204128
0.204223
0.204321
0.204423
0.20453
0.204644
0.204763
0.204889
0.205014
0.205138
0.205259
0.205376
0.20549
0.205591
0.20568
0.205755
0.205817
0.205866
0.205901
0.205922
0.20593
0.205926
0.20591
0.205885
0.205851
0.20581
0.205763
0.205712
0.205659
0.205605
0.205553
0.205504
0.205459
0.20542
0.205389
0.205366
0.205351
0.205347
0.20535
0.205368
0.205392
0.205434
0.205474
0.205541
0.205592
0.205689
0.205741
0.205873
0.205918
0.20609
0.2061
0.206357
0.206117
0.206815
0.15557
0.156692
0.158188
0.159027
0.159993
0.161105
0.16233
0.163597
0.164885
0.166175
0.167461
0.168738
0.170014
0.171267
0.172483
0.17368
0.174848
0.175988
0.177083
0.178128
0.179111
0.180029
0.180882
0.181676
0.182416
0.183109
0.183763
0.184383
0.184975
0.185545
0.186049
0.186508
0.186937
0.187344
0.187733
0.188105
0.18846
0.188799
0.189121
0.189429
0.189722
0.190003
0.190272
0.190534
0.19079
0.191044
0.191298
0.191554
0.191814
0.192079
0.192351
0.192628
0.192912
0.193198
0.193492
0.19379
0.194088
0.194381
0.194662
0.194941
0.19521
0.195465
0.195703
0.195923
0.196125
0.19631
0.196475
0.196627
0.196767
0.196895
0.197011
0.197115
0.19721
0.197297
0.197379
0.197458
0.197536
0.197614
0.197695
0.197779
0.197868
0.197963
0.198064
0.198173
0.198285
0.198409
0.198532
0.198672
0.198803
0.198964
0.199099
0.199286
0.199417
0.199635
0.199752
0.200004
0.200081
0.200421
0.200213
0.201039
0.0925266
0.0944618
0.0966089
0.0994254
0.102672
0.106143
0.109579
0.112751
0.115752
0.118607
0.121352
0.123992
0.126558
0.12906
0.131497
0.133875
0.136167
0.138391
0.140505
0.142509
0.144384
0.146141
0.147788
0.149341
0.15081
0.152212
0.153554
0.154848
0.156096
0.157311
0.158507
0.159664
0.160787
0.161876
0.16293
0.163945
0.164924
0.16586
0.16676
0.167622
0.16845
0.169244
0.170009
0.170749
0.171468
0.17217
0.172858
0.173537
0.174206
0.174869
0.175525
0.176175
0.176819
0.177455
0.17808
0.178692
0.179289
0.179864
0.180418
0.180943
0.181437
0.181904
0.182346
0.182763
0.18316
0.183532
0.183885
0.184211
0.18451
0.184786
0.185044
0.185286
0.185518
0.185741
0.185959
0.186175
0.18639
0.186607
0.186826
0.18705
0.187277
0.187512
0.187749
0.187995
0.188242
0.1885
0.188754
0.189026
0.189282
0.18957
0.189825
0.190136
0.190377
0.190718
0.190943
0.19132
0.191492
0.191962
0.191824
0.192825
0.0425821
0.044958
0.0471927
0.0499145
0.0523863
0.0546394
0.0569903
0.05955
0.0623859
0.065338
0.0684044
0.0715019
0.0746867
0.0779213
0.0811952
0.0844619
0.0876317
0.0907641
0.093652
0.0963704
0.0988652
0.10125
0.103528
0.10573
0.107865
0.109949
0.111984
0.113983
0.115942
0.117866
0.119774
0.121605
0.123424
0.125224
0.126971
0.128671
0.130332
0.131938
0.133503
0.135011
0.136469
0.137873
0.13923
0.14055
0.141838
0.143104
0.14435
0.145581
0.146796
0.147995
0.14918
0.150348
0.1515
0.15263
0.153739
0.154816
0.155864
0.156873
0.157846
0.158779
0.159662
0.16051
0.161323
0.162107
0.162858
0.163572
0.164254
0.164905
0.165529
0.166128
0.166704
0.167261
0.167802
0.168332
0.168852
0.169365
0.169874
0.17038
0.170883
0.171386
0.171886
0.172389
0.172887
0.173388
0.173881
0.174382
0.174867
0.175368
0.175842
0.176348
0.176806
0.177326
0.177749
0.178283
0.178673
0.179234
0.17956
0.180209
0.180195
0.181414
0.0298032
0.0304947
0.0311286
0.0318119
0.0325328
0.033259
0.034023
0.0347637
0.0356584
0.0365356
0.0375179
0.0385732
0.0397598
0.041116
0.0425934
0.0440306
0.0455233
0.0470225
0.048606
0.050397
0.0522085
0.054101
0.0560056
0.0579819
0.0600359
0.0621155
0.0642306
0.0663829
0.0685843
0.0708162
0.0730849
0.0753632
0.0776534
0.0799363
0.0822174
0.0844685
0.0867069
0.0888993
0.0910697
0.0931108
0.0950795
0.0969412
0.0987955
0.100647
0.10247
0.104324
0.106173
0.108016
0.109851
0.111673
0.113482
0.115271
0.117041
0.118779
0.120488
0.122149
0.123771
0.125333
0.126843
0.128299
0.129665
0.131006
0.132302
0.133575
0.134779
0.135908
0.137009
0.13806
0.139077
0.140061
0.14102
0.141961
0.142886
0.1438
0.144702
0.145597
0.146482
0.147363
0.148234
0.149101
0.149958
0.150811
0.151649
0.152485
0.153301
0.154119
0.154908
0.155712
0.156472
0.15727
0.157983
0.158759
0.15942
0.160208
0.160807
0.161605
0.162126
0.163046
0.163223
0.164725
0.0264652
0.0265091
0.0264638
0.0263904
0.0262828
0.0261591
0.0260208
0.0258981
0.0257981
0.0257082
0.0256572
0.0255753
0.0254107
0.0252168
0.025033
0.0248909
0.0248999
0.0248432
0.0248506
0.0248307
0.024949
0.0250216
0.025279
0.0256495
0.0260551
0.0264737
0.0269977
0.0277031
0.0285202
0.0294212
0.0304489
0.0315782
0.0328011
0.0341113
0.0355113
0.0370026
0.0385596
0.0401995
0.0418997
0.0437667
0.0457601
0.0479122
0.0501285
0.0524125
0.0547589
0.0571572
0.0596015
0.062074
0.0645657
0.0670548
0.0695389
0.0720006
0.0744375
0.0768309
0.0791779
0.0814618
0.0836845
0.0858309
0.087855
0.0897869
0.0915957
0.093345
0.0950551
0.0967145
0.098377
0.0999356
0.101562
0.103022
0.104501
0.105952
0.107409
0.108851
0.110274
0.111683
0.113073
0.11445
0.115807
0.117154
0.118478
0.11979
0.121074
0.122346
0.123586
0.124817
0.12601
0.127203
0.128347
0.129505
0.130601
0.13177
0.132675
0.133665
0.134582
0.135735
0.136489
0.137704
0.138333
0.139784
0.140254
0.142089
0.0232524
0.022795
0.0222727
0.0218366
0.0213179
0.0207337
0.0201256
0.0195051
0.0189091
0.0183259
0.0177891
0.0172724
0.0168023
0.0163671
0.0158501
0.015349
0.0147524
0.0142344
0.0138063
0.0134216
0.0131058
0.0128206
0.0125914
0.012387
0.0122493
0.0121256
0.0120594
0.0120019
0.0120185
0.0120421
0.0121891
0.0123048
0.0124087
0.0126238
0.0128618
0.0131946
0.0135301
0.0139331
0.0143691
0.014883
0.0154586
0.0161195
0.0168719
0.0177155
0.0186578
0.0197063
0.0208579
0.0220986
0.0234464
0.024898
0.0264667
0.0281208
0.0298737
0.0316889
0.0335781
0.0355052
0.0374762
0.039467
0.0415328
0.0436371
0.0457917
0.0479468
0.0500888
0.0522219
0.0543505
0.0564562
0.0585576
0.0606372
0.0626872
0.0647172
0.0667165
0.0686999
0.0706519
0.072587
0.0744902
0.0763749
0.0782294
0.080062
0.0818203
0.0835621
0.0852275
0.0868941
0.0885061
0.0901298
0.0916888
0.0932749
0.0947796
0.0963327
0.0977844
0.099313
0.100708
0.102192
0.103486
0.105084
0.106349
0.107922
0.10894
0.110645
0.111473
0.113552
0.0153212
0.0147171
0.0140986
0.0133176
0.0126334
0.0120389
0.0115203
0.0110648
0.0106642
0.0103097
0.00999593
0.00971745
0.00946888
0.0092502
0.00905052
0.00886579
0.00869124
0.00852015
0.00836069
0.00820622
0.00806528
0.00792963
0.00780812
0.00769267
0.00759175
0.0074963
0.00741526
0.00733809
0.00727341
0.00721352
0.00716947
0.00712574
0.00710439
0.0070724
0.00707386
0.00706243
0.00705536
0.00707947
0.00705857
0.00711749
0.00715887
0.00725448
0.00723568
0.00736729
0.00735388
0.00750766
0.00764211
0.00783637
0.00799521
0.00827456
0.00859315
0.0089662
0.00936574
0.0098272
0.0103144
0.0108728
0.0114521
0.0121073
0.012776
0.0135282
0.0142916
0.0151491
0.0160187
0.0169914
0.0179799
0.0190831
0.0202038
0.0214488
0.0227077
0.0240945
0.0254892
0.0270114
0.0285327
0.0301792
0.0318122
0.0335671
0.0352915
0.0371363
0.0389811
0.0409433
0.0428784
0.0449178
0.0468632
0.0489159
0.0508396
0.0528839
0.0547594
0.0567828
0.0585912
0.0605907
0.0623122
0.0642918
0.0659088
0.0678835
0.0693914
0.0713732
0.0727248
0.0747619
0.0756339
0.0785436
0.00830278
0.00832568
0.00827805
0.00818816
0.00806571
0.0079211
0.00776438
0.00760344
0.0074448
0.00729266
0.00715008
0.00701821
0.00689776
0.00678792
0.0066885
0.00659741
0.00651451
0.00643727
0.00636617
0.00629898
0.00623669
0.00617754
0.0061225
0.00607059
0.00602202
0.00597692
0.00593432
0.00589544
0.0058582
0.00582448
0.00579246
0.00576258
0.00573546
0.00570949
0.00568631
0.00566488
0.00564364
0.00562688
0.00560816
0.00559463
0.00558157
0.00557416
0.00556299
0.00556257
0.00555
0.00555804
0.00554652
0.00556427
0.005549
0.00558503
0.00556752
0.00559862
0.00562647
0.00567096
0.00569913
0.00575219
0.00578657
0.0058543
0.00589807
0.00598747
0.00604188
0.00615457
0.00622694
0.00636803
0.00646574
0.00664487
0.00678418
0.00701435
0.00718907
0.00748251
0.00771981
0.00809091
0.00840053
0.00886374
0.00925962
0.00983647
0.0103316
0.0110297
0.0116205
0.0124443
0.0131401
0.0141101
0.0149224
0.0160478
0.0169734
0.0182516
0.0192774
0.0207035
0.0218123
0.0233804
0.0245506
0.0262525
0.0274622
0.0292768
0.0305066
0.032441
0.033661
0.0357652
0.0367532
0.0398263
0.00676355
0.00671769
0.00664487
0.00656543
0.00648252
0.00639788
0.00631383
0.00623162
0.00615305
0.00607868
0.0060095
0.00594529
0.00588631
0.00583172
0.00578154
0.00573473
0.00569135
0.00565048
0.0056123
0.0055761
0.00554209
0.00550974
0.00547917
0.00545004
0.00542224
0.00539575
0.00537008
0.00534563
0.00532165
0.00529892
0.00527631
0.00525503
0.00523371
0.00521389
0.00519386
0.0051756
0.00515689
0.00514044
0.00512319
0.00510899
0.00509373
0.00508235
0.00506933
0.00506061
0.00505
0.00504391
0.00503532
0.00502935
0.00502397
0.0050214
0.00501643
0.00501134
0.00501116
0.00500798
0.0050101
0.00500721
0.00500606
0.00500494
0.00499795
0.00500007
0.00498927
0.00499186
0.00498323
0.00498207
0.00497154
0.0049863
0.00498179
0.00497108
0.00498231
0.00499949
0.00501783
0.0050355
0.00506133
0.00507519
0.00512167
0.00517422
0.00522124
0.00531349
0.00535876
0.00543514
0.00549916
0.00562177
0.0056836
0.00587448
0.00597906
0.00621966
0.00635809
0.00665921
0.00683279
0.0072118
0.00742732
0.0079001
0.00816559
0.00872752
0.00905932
0.00975642
0.0101576
0.0109623
0.0113356
0.0127312
0.00588463
0.00586478
0.00584035
0.0058111
0.00577875
0.00574388
0.00570807
0.00567145
0.00563526
0.00559924
0.00556426
0.0055297
0.00549624
0.00546314
0.00543109
0.0053994
0.00536883
0.00533872
0.00530985
0.00528152
0.00525443
0.0052278
0.00520229
0.00517711
0.0051529
0.00512896
0.00510594
0.00508327
0.00506157
0.00504042
0.00502029
0.00500092
0.00498256
0.00496508
0.00494848
0.00493279
0.00491774
0.00490354
0.00488968
0.00487663
0.00486358
0.00485138
0.00483888
0.00482737
0.00481532
0.00480443
0.00479288
0.00478265
0.00477176
0.00476215
0.00475208
0.00474314
0.00473397
0.00472572
0.00471744
0.00470997
0.00470246
0.00469569
0.00468889
0.00468259
0.00467489
0.00466782
0.00465994
0.00465193
0.00464494
0.00463722
0.00463186
0.00462494
0.00462053
0.00461477
0.00461198
0.00460695
0.00460516
0.00460147
0.00459995
0.00459908
0.00459827
0.00460011
0.00459996
0.00460072
0.00460286
0.00460496
0.00461276
0.00461341
0.00463084
0.00464277
0.00464663
0.00466806
0.00467953
0.00470694
0.00472019
0.00475752
0.00477562
0.00482254
0.0048468
0.00491161
0.00495361
0.00503603
0.00507347
0.00525139
0.00534819
0.00533652
0.00532142
0.00530247
0.00528116
0.0052574
0.00523226
0.00520507
0.00517688
0.00514701
0.00511679
0.00508561
0.00505497
0.0050241
0.00499452
0.00496521
0.00493757
0.00491035
0.0048849
0.00485978
0.00483636
0.00481313
0.00479152
0.00476998
0.00475005
0.00473013
0.00471188
0.00469365
0.00467717
0.00466071
0.00464607
0.00463141
0.00461857
0.00460563
0.00459441
0.00458296
0.00457305
0.00456275
0.00455377
0.00454427
0.00453585
0.00452683
0.0045187
0.00450998
0.00450204
0.00449358
0.00448586
0.00447774
0.00447035
0.00446269
0.00445576
0.00444869
0.00444233
0.00443592
0.00443018
0.00442445
0.00441929
0.00441418
0.00440958
0.00440488
0.00440054
0.00439599
0.0043916
0.00438708
0.00438249
0.00437795
0.00437326
0.00436891
0.0043642
0.00436028
0.00435571
0.00435248
0.00434817
0.00434577
0.00434175
0.00434036
0.00433678
0.00433582
0.00433219
0.00433128
0.00432827
0.00432794
0.00432509
0.00432582
0.00432281
0.004324
0.0043212
0.00432431
0.00432224
0.00432743
0.00432662
0.00433292
0.00433252
0.00433946
0.00433459
0.00435357
0.00434148
0.00435503
0.00436686
0.00437561
0.00494327
0.00493954
0.00493156
0.0049198
0.0049055
0.00488857
0.00487018
0.00485004
0.00482933
0.00480763
0.0047861
0.00476413
0.00474281
0.00472129
0.00470066
0.00467991
0.00466018
0.00464033
0.00462163
0.00460283
0.0045853
0.00456766
0.00455139
0.00453499
0.00452002
0.00450484
0.00449112
0.00447708
0.00446452
0.00445152
0.00443999
0.00442791
0.00441731
0.00440605
0.0043963
0.0043858
0.00437684
0.00436708
0.00435889
0.00434986
0.00434244
0.00433411
0.00432744
0.00431979
0.0043138
0.00430675
0.00430136
0.00429481
0.00428992
0.00428377
0.00427926
0.0042734
0.0042692
0.00426356
0.00425961
0.00425415
0.00425043
0.00424514
0.00424166
0.00423655
0.00423332
0.00422842
0.00422545
0.00422077
0.00421805
0.00421357
0.00421112
0.00420682
0.00420461
0.00420046
0.00419847
0.00419444
0.00419265
0.00418872
0.00418709
0.00418324
0.00418177
0.00417797
0.00417665
0.00417286
0.00417172
0.00416793
0.00416697
0.0041632
0.00416239
0.00415868
0.00415799
0.00415439
0.00415389
0.00415037
0.00415012
0.00414667
0.00414669
0.00414306
0.00414336
0.00414092
0.00414183
0.0041394
0.00412717
0.00414448
0.00463977
0.00463992
0.0046362
0.00462933
0.00462046
0.00460937
0.00459714
0.00458329
0.00456885
0.00455328
0.00453767
0.00452134
0.00450543
0.00448911
0.00447351
0.00445766
0.00444273
0.00442761
0.00441351
0.00439925
0.00438611
0.0043728
0.00436069
0.0043484
0.00433735
0.00432605
0.00431602
0.00430562
0.00429646
0.00428678
0.00427831
0.00426917
0.00426121
0.00425245
0.00424488
0.00423642
0.0042292
0.00422104
0.00421419
0.00420638
0.00419995
0.00419255
0.00418662
0.00417966
0.00417426
0.00416776
0.00416289
0.00415684
0.00415248
0.00414682
0.00414292
0.00413759
0.00413409
0.00412904
0.00412588
0.00412105
0.00411817
0.00411354
0.00411091
0.00410643
0.00410407
0.0040997
0.00409761
0.00409332
0.0040915
0.00408725
0.00408568
0.00408147
0.00408008
0.00407592
0.00407466
0.00407056
0.00406936
0.00406533
0.00406415
0.0040602
0.00405903
0.00405512
0.00405401
0.00405011
0.0040491
0.00404519
0.0040443
0.00404039
0.00403963
0.00403572
0.00403509
0.00403122
0.00403075
0.00402689
0.00402664
0.00402277
0.00402281
0.00401867
0.00401925
0.00401595
0.00401569
0.004013
0.00401189
0.00400804
0.00442377
0.00442582
0.00442478
0.00442101
0.00441558
0.00440817
0.00439986
0.00439011
0.00437998
0.00436883
0.00435772
0.00434589
0.0043344
0.00432237
0.00431088
0.00429895
0.00428771
0.00427609
0.00426527
0.00425409
0.00424381
0.00423318
0.0042235
0.00421345
0.0042044
0.00419493
0.00418651
0.00417763
0.00416983
0.00416151
0.0041543
0.00414651
0.00413987
0.00413259
0.00412648
0.00411966
0.00411403
0.00410763
0.00410245
0.00409641
0.00409162
0.00408591
0.00408147
0.00407603
0.00407189
0.0040667
0.00406283
0.00405784
0.00405423
0.00404942
0.00404604
0.00404141
0.00403824
0.00403378
0.00403082
0.00402651
0.00402375
0.00401958
0.00401701
0.00401298
0.00401058
0.00400665
0.00400442
0.00400057
0.00399852
0.00399472
0.00399283
0.00398908
0.00398733
0.00398365
0.00398198
0.00397841
0.00397675
0.00397337
0.00397164
0.00396848
0.00396666
0.00396373
0.00396185
0.00395909
0.0039572
0.00395456
0.0039527
0.00395017
0.00394832
0.00394592
0.00394406
0.0039418
0.00393997
0.00393774
0.00393608
0.00393369
0.00393241
0.00393
0.00392816
0.00392675
0.00392272
0.00392012
0.00393041
0.00390788
0.00426802
0.00427064
0.00427123
0.00426942
0.0042663
0.00426143
0.00425588
0.00424898
0.00424179
0.00423355
0.00422535
0.00421632
0.00420759
0.0041982
0.00418931
0.00417986
0.00417106
0.00416176
0.00415323
0.00414422
0.00413606
0.00412743
0.00411972
0.0041115
0.00410425
0.00409646
0.00408967
0.00408229
0.00407594
0.00406895
0.00406301
0.00405638
0.00405084
0.00404456
0.00403939
0.00403343
0.00402863
0.00402298
0.00401853
0.00401316
0.00400904
0.00400393
0.00400011
0.00399524
0.0039917
0.00398705
0.00398376
0.00397931
0.00397626
0.00397198
0.00396914
0.00396503
0.00396238
0.0039584
0.00395594
0.00395206
0.00394977
0.00394598
0.00394384
0.00394011
0.0039381
0.00393444
0.00393251
0.00392895
0.00392705
0.00392363
0.00392173
0.00391842
0.00391655
0.00391331
0.00391153
0.00390828
0.00390666
0.00390334
0.00390192
0.00389852
0.00389727
0.00389388
0.00389267
0.00388945
0.0038881
0.00388519
0.00388362
0.00388107
0.00387928
0.00387703
0.00387511
0.00387307
0.00387107
0.00386921
0.00386716
0.00386539
0.00386352
0.00386145
0.00386041
0.00385624
0.00385752
0.00385328
0.00385183
0.00384862
0.00415427
0.00415713
0.0041586
0.00415789
0.00415612
0.00415274
0.00414882
0.00414363
0.00413824
0.00413183
0.0041255
0.00411835
0.0041115
0.00410395
0.0040969
0.00408921
0.00408216
0.00407453
0.00406763
0.00406017
0.00405354
0.00404633
0.00404001
0.0040331
0.00402714
0.00402054
0.00401494
0.00400866
0.00400343
0.00399745
0.00399256
0.00398687
0.00398231
0.00397688
0.00397263
0.00396745
0.00396347
0.00395851
0.00395479
0.00395003
0.00394655
0.00394197
0.0039387
0.00393429
0.00393123
0.00392696
0.0039241
0.00391996
0.00391728
0.00391327
0.00391076
0.00390685
0.00390451
0.0039007
0.00389851
0.00389478
0.00389275
0.00388908
0.00388718
0.00388356
0.00388181
0.00387824
0.0038766
0.00387308
0.00387154
0.00386807
0.00386661
0.0038632
0.00386183
0.00385845
0.00385718
0.00385379
0.00385266
0.00384924
0.00384826
0.00384479
0.00384395
0.00384047
0.00383969
0.00383631
0.00383548
0.00383229
0.00383132
0.00382836
0.00382728
0.00382449
0.00382336
0.00382068
0.00381954
0.00381693
0.00381585
0.00381318
0.00381235
0.00380923
0.00380959
0.00380456
0.00380635
0.00380217
0.00380101
0.00379707
0.00406911
0.00407212
0.004074
0.00407394
0.00407302
0.00407064
0.00406784
0.00406385
0.00405974
0.00405464
0.00404965
0.00404384
0.00403833
0.0040321
0.00402634
0.00401993
0.00401411
0.00400767
0.00400194
0.0039956
0.00399005
0.00398389
0.00397858
0.00397263
0.0039676
0.00396188
0.00395714
0.00395166
0.0039472
0.00394196
0.00393779
0.00393277
0.00392887
0.00392406
0.00392041
0.00391579
0.00391238
0.00390795
0.00390475
0.00390048
0.00389748
0.00389335
0.00389053
0.00388653
0.00388389
0.00388
0.00387752
0.00387373
0.0038714
0.00386769
0.0038655
0.00386188
0.00385982
0.00385627
0.00385432
0.00385084
0.00384899
0.00384558
0.00384382
0.00384047
0.00383879
0.00383549
0.00383392
0.00383062
0.00382918
0.00382585
0.00382457
0.0038212
0.00382006
0.00381667
0.00381562
0.00381228
0.00381125
0.00380802
0.00380694
0.00380386
0.00380272
0.00379978
0.00379862
0.00379575
0.00379464
0.00379177
0.00379076
0.00378786
0.00378693
0.00378406
0.00378317
0.00378032
0.00377952
0.00377659
0.00377603
0.00377284
0.00377266
0.00376932
0.00376886
0.00376666
0.00376469
0.0037621
0.0037612
0.0037581
0.00400448
0.00400748
0.00400956
0.0040099
0.00400954
0.00400783
0.0040058
0.00400264
0.00399941
0.00399523
0.0039912
0.00398634
0.00398182
0.00397656
0.0039718
0.00396635
0.00396151
0.00395601
0.00395122
0.00394578
0.00394112
0.00393579
0.0039313
0.00392613
0.00392185
0.00391684
0.00391278
0.00390795
0.00390411
0.00389945
0.00389584
0.00389135
0.00388794
0.00388361
0.0038804
0.00387621
0.0038732
0.00386914
0.00386631
0.00386237
0.00385971
0.00385588
0.00385337
0.00384964
0.00384728
0.00384364
0.00384142
0.00383785
0.00383576
0.00383226
0.0038303
0.00382686
0.00382501
0.00382163
0.00381989
0.00381655
0.00381491
0.00381162
0.00381006
0.00380682
0.00380535
0.00380214
0.00380075
0.00379756
0.00379627
0.00379309
0.00379189
0.00378871
0.0037876
0.00378442
0.00378339
0.00378022
0.00377925
0.00377611
0.00377518
0.00377209
0.00377118
0.00376814
0.00376724
0.00376426
0.00376338
0.00376045
0.00375958
0.00375671
0.00375585
0.00375304
0.00375217
0.00374944
0.00374856
0.00374589
0.00374503
0.00374242
0.00374159
0.00373869
0.00373839
0.00373629
0.00373491
0.00373416
0.00372297
0.00373797
0.00395619
0.00395899
0.0039611
0.00396165
0.00396164
0.00396037
0.00395887
0.00395629
0.0039537
0.00395017
0.00394684
0.00394268
0.00393888
0.00393433
0.00393028
0.00392552
0.00392137
0.00391653
0.0039124
0.00390757
0.00390353
0.00389878
0.00389487
0.00389022
0.00388648
0.00388196
0.0038784
0.00387402
0.00387064
0.0038664
0.0038632
0.00385909
0.00385607
0.00385209
0.00384923
0.00384537
0.00384267
0.00383891
0.00383637
0.0038327
0.0038303
0.00382671
0.00382444
0.00382093
0.00381879
0.00381534
0.00381332
0.00380993
0.00380802
0.00380468
0.00380288
0.00379959
0.00379789
0.00379464
0.00379303
0.00378981
0.0037883
0.00378511
0.00378369
0.00378053
0.00377919
0.00377605
0.00377478
0.00377166
0.00377047
0.00376737
0.00376625
0.00376316
0.00376211
0.00375903
0.00375803
0.00375497
0.00375403
0.00375099
0.00375009
0.00374708
0.0037462
0.00374323
0.00374238
0.00373946
0.00373861
0.00373574
0.0037349
0.00373209
0.00373124
0.00372851
0.00372764
0.00372498
0.0037241
0.00372151
0.00372063
0.00371812
0.00371723
0.00371447
0.00371405
0.00371217
0.00371072
0.00371012
0.00369926
0.00371374
0.00391932
0.00392195
0.00392403
0.00392466
0.00392486
0.00392387
0.00392272
0.00392053
0.00391838
0.00391531
0.00391247
0.0039088
0.00390551
0.00390146
0.00389791
0.00389365
0.00388999
0.00388563
0.00388197
0.0038776
0.003874
0.00386967
0.00386618
0.00386193
0.00385858
0.00385442
0.00385122
0.00384716
0.00384412
0.00384017
0.00383728
0.00383344
0.0038307
0.00382696
0.00382436
0.00382071
0.00381825
0.00381469
0.00381236
0.00380887
0.00380667
0.00380325
0.00380117
0.00379781
0.00379585
0.00379253
0.00379068
0.00378741
0.00378566
0.00378243
0.00378078
0.00377759
0.00377603
0.00377286
0.00377139
0.00376825
0.00376687
0.00376374
0.00376244
0.00375933
0.00375812
0.00375501
0.00375387
0.00375078
0.00374971
0.00374664
0.00374562
0.00374257
0.00374159
0.00373858
0.00373762
0.00373465
0.00373372
0.00373078
0.00372988
0.00372696
0.0037261
0.0037232
0.00372238
0.0037195
0.00371871
0.00371586
0.00371509
0.00371229
0.00371151
0.00370877
0.00370798
0.00370532
0.0037045
0.00370193
0.00370105
0.00369856
0.00369763
0.00369557
0.00369411
0.00369132
0.00369058
0.00368597
0.00369446
0.00367392
0.00389116
0.00389362
0.0038956
0.00389624
0.00389653
0.0038957
0.00389475
0.0038928
0.00389092
0.00388815
0.00388561
0.00388227
0.0038793
0.00387559
0.00387238
0.00386845
0.00386513
0.00386109
0.00385775
0.00385369
0.0038504
0.00384636
0.00384317
0.00383919
0.00383612
0.00383221
0.00382927
0.00382546
0.00382266
0.00381893
0.00381628
0.00381263
0.00381011
0.00380655
0.00380417
0.00380068
0.00379842
0.003795
0.00379286
0.00378951
0.00378748
0.00378418
0.00378226
0.003779
0.00377719
0.00377397
0.00377226
0.00376906
0.00376746
0.00376429
0.00376278
0.00375962
0.0037582
0.00375506
0.00375373
0.00375061
0.00374936
0.00374624
0.00374508
0.00374196
0.00374089
0.00373776
0.00373677
0.00373364
0.00373271
0.00372959
0.00372872
0.00372562
0.00372478
0.00372171
0.0037209
0.00371786
0.00371707
0.00371407
0.0037133
0.00371032
0.00370959
0.00370662
0.00370593
0.00370298
0.00370231
0.00369939
0.00369874
0.00369587
0.0036952
0.0036924
0.00369171
0.00368899
0.00368827
0.00368565
0.00368484
0.00368233
0.00368144
0.0036794
0.00367795
0.00367516
0.00367441
0.00366993
0.00367838
0.00365781
0.00386825
0.00387056
0.00387243
0.00387305
0.00387339
0.00387265
0.00387182
0.00387004
0.00386834
0.00386579
0.00386347
0.00386037
0.00385765
0.0038542
0.00385124
0.00384758
0.00384451
0.00384074
0.00383765
0.00383385
0.00383081
0.00382703
0.00382406
0.00382033
0.00381747
0.0038138
0.00381107
0.00380747
0.00380486
0.00380133
0.00379886
0.00379539
0.00379304
0.00378964
0.00378741
0.00378407
0.00378196
0.00377866
0.00377666
0.00377341
0.00377151
0.00376829
0.0037665
0.00376331
0.00376162
0.00375845
0.00375686
0.00375371
0.00375221
0.00374906
0.00374766
0.00374452
0.00374321
0.00374007
0.00373885
0.0037357
0.00373457
0.00373142
0.00373038
0.0037272
0.00372626
0.00372306
0.00372221
0.00371899
0.00371823
0.00371498
0.00371431
0.00371104
0.00371043
0.00370716
0.00370661
0.00370334
0.00370284
0.00369956
0.00369913
0.00369584
0.00369547
0.00369216
0.00369187
0.00368853
0.00368832
0.00368495
0.00368481
0.00368144
0.00368134
0.00367797
0.00367792
0.00367456
0.00367455
0.00367121
0.00367122
0.00366787
0.00366787
0.00366487
0.00366469
0.00366096
0.00366093
0.00365619
0.00366487
0.003644
0.0038495
0.00385166
0.00385342
0.00385404
0.0038544
0.00385375
0.00385304
0.00385142
0.00384989
0.00384754
0.00384542
0.00384256
0.00384006
0.00383685
0.00383412
0.00383071
0.00382786
0.00382434
0.00382145
0.00381789
0.00381503
0.00381147
0.00380867
0.00380513
0.00380242
0.00379893
0.00379631
0.00379287
0.00379036
0.00378697
0.00378456
0.00378122
0.00377892
0.00377562
0.00377344
0.00377017
0.00376809
0.00376486
0.00376289
0.00375969
0.00375782
0.00375464
0.00375287
0.00374971
0.00374803
0.00374489
0.0037433
0.00374018
0.00373867
0.00373556
0.00373415
0.00373104
0.00372971
0.00372661
0.00372537
0.00372226
0.00372111
0.003718
0.00371693
0.00371381
0.00371282
0.00370971
0.00370878
0.00370568
0.00370481
0.00370171
0.00370091
0.00369779
0.00369708
0.00369393
0.00369331
0.00369012
0.0036896
0.00368636
0.00368594
0.00368265
0.00368234
0.003679
0.00367879
0.0036754
0.00367527
0.00367187
0.0036718
0.00366839
0.00366838
0.00366497
0.003665
0.0036616
0.00366166
0.00365828
0.00365837
0.003655
0.00365506
0.00365201
0.00365181
0.00364819
0.00364936
0.00364463
0.00364308
0.00363978
0.00383593
0.00383789
0.00383951
0.00384005
0.00384039
0.00383977
0.00383911
0.00383757
0.00383613
0.00383389
0.00383189
0.00382914
0.00382675
0.00382365
0.00382101
0.00381769
0.00381491
0.00381144
0.0038086
0.00380506
0.00380222
0.00379866
0.00379584
0.00379229
0.00378953
0.003786
0.00378331
0.00377982
0.00377723
0.00377379
0.0037713
0.00376791
0.00376552
0.00376219
0.00375992
0.00375664
0.00375449
0.00375125
0.00374921
0.00374602
0.0037441
0.00374094
0.00373911
0.00373598
0.00373424
0.00373114
0.0037295
0.00372642
0.00372487
0.00372181
0.00372037
0.00371733
0.00371598
0.00371294
0.0037117
0.00370866
0.00370752
0.00370448
0.00370343
0.0037004
0.00369943
0.0036964