/*--------------------------------*- C++ -*----------------------------------*\
  =========                 |
  \\      /  F ield         | OpenFOAM: The Open Source CFD Toolbox
   \\    /   O peration     | Website:  https://openfoam.org
    \\  /    A nd           | Version:  8
     \\/     M anipulation  |
\*---------------------------------------------------------------------------*/
FoamFile
{
    version     2.0;
    format      ascii;
    class       volScalarField;
    location    "2.50002999";
    object      epsilon;
}
// * * * * * * * * * * * * * * * * * * * * * * * * * * * * * * * * * * * * * //

dimensions      [0 2 -3 0 0 0 0];

internalField   nonuniform List<scalar> 
6800
(
456.778
994.81
940.107
794.814
614.273
421.585
256.107
128.528
65.3526
35.6441
367.046
864.856
810.506
680.476
452.411
258.085
125.441
61.4671
30.9278
17.6092
457.105
779.687
725.178
539.853
309.09
150.08
71.0299
33.5708
17.1085
9.99719
498.513
675.316
613.978
414.764
199.446
86.7037
36.3852
17.9323
10.1783
6.83055
532.642
614.307
549.986
310.738
127.146
49.8788
23.0517
12.4175
7.68412
5.58335
548.876
567.396
478.904
209.206
77.1753
31.7717
14.9414
8.58976
5.81059
4.54692
561.721
547.006
412.34
151.519
55.2386
21.8168
11.3333
7.2816
5.189
4.21367
564.037
540.522
341.16
106.672
34.4107
15.3522
8.96962
5.90539
4.43252
3.77133
570.144
542.988
282.999
80.4108
28.1897
13.4836
7.94123
5.48542
4.21859
3.64498
601.809
557.838
225.497
57.0631
19.5875
10.6041
6.6935
4.79253
3.84102
3.3969
2587.18
1269.08
993.941
917.289
913.414
968.589
1045.09
1121.71
1171.64
1194.46
2483.3
1217.7
979.587
931.171
975.194
1090.08
1241.87
1403.99
1547.56
1629.03
2296.11
1147.31
959.21
962.654
1094.36
1311.95
1569.55
1807.41
2000.94
2095.47
2073.92
1073.91
948.712
1048.19
1311.33
1658.94
1963.97
2124.02
2214.67
2182.19
1840.48
1034.19
1015.87
1289.5
1755.27
2133.58
2241.81
2197.76
2142.75
1785.58
1638.13
1081.62
1302.23
1881.41
2332.96
2345.82
2216.77
1861.54
1583.71
1046.15
1466.35
1332.23
2011.13
2537.64
2413.85
2066.51
1531.69
1021.27
796.876
519.254
1382.46
1908.39
2606
2361.99
1678.91
1119.33
820.387
589.518
483.294
316.842
1196.23
2199.84
1936.1
1321.36
974.567
736.949
566.456
420.853
340.006
192.188
871.272
1452.57
1220.91
958.093
746.734
580.389
422.378
291.841
167.264
78.7716
1193.79
1114
1033.61
962.012
900.853
848.831
803.163
763.329
728.759
698.292
671.121
646.62
624.289
603.722
584.609
566.727
549.911
534.006
518.89
504.46
490.633
477.342
464.535
452.171
440.223
428.67
417.495
406.69
396.243
386.15
376.399
366.979
357.879
349.088
340.593
332.38
324.439
316.754
309.314
302.108
295.125
288.358
281.799
275.444
269.288
263.329
257.563
251.988
246.599
241.394
236.368
231.517
226.834
222.312
217.946
213.725
209.642
205.688
201.854
198.13
194.507
190.977
187.532
184.166
180.874
177.651
174.494
171.4
168.37
165.401
162.494
159.649
156.867
154.149
151.496
148.908
146.386
143.932
141.544
139.223
136.968
134.779
132.654
130.592
128.592
126.649
124.765
122.932
121.158
119.423
117.752
116.099
114.53
112.937
111.48
109.905
108.608
106.946
105.993
103.674
1646.51
1527.98
1404.67
1295.53
1202.24
1123.51
1056.21
998.698
948.581
904.435
865.103
829.764
797.691
768.229
740.94
715.482
691.59
669.041
647.663
627.31
607.87
589.249
571.376
554.197
537.671
521.768
506.463
491.738
477.571
463.954
450.847
438.232
426.095
414.416
403.177
392.357
381.936
371.895
362.215
352.88
343.874
335.185
326.801
318.713
310.912
303.39
296.14
289.154
282.425
275.945
269.705
263.696
257.909
252.332
246.956
241.769
236.762
231.919
227.232
222.688
218.275
213.985
209.809
205.738
201.768
197.893
194.11
190.416
186.808
183.285
179.846
176.491
173.22
170.033
166.929
163.91
160.974
158.121
155.351
152.663
150.055
147.525
145.073
142.695
140.39
138.152
135.985
133.876
131.837
129.843
127.924
126.027
124.228
122.401
120.734
118.93
117.448
115.549
114.464
111.829
2108.9
1998.11
1844.17
1705.93
1586.71
1484.71
1396.82
1320.64
1253.57
1193.87
1140.24
1091.53
1046.88
1005.72
967.577
931.992
898.598
867.091
837.233
808.825
781.713
755.777
730.921
707.077
684.189
662.222
641.141
620.92
601.522
582.945
565.047
547.86
531.376
515.566
500.401
485.846
471.869
458.439
445.526
433.107
421.157
409.659
398.595
387.952
377.715
367.873
358.414
349.324
340.591
332.201
324.14
316.392
308.945
301.776
294.884
288.247
281.848
275.665
269.684
263.889
258.268
252.806
247.496
242.327
237.295
232.392
227.616
222.962
218.428
214.011
209.71
205.525
201.453
197.496
193.652
189.921
186.301
182.791
179.388
176.092
172.899
169.805
166.81
163.907
161.097
158.37
155.73
153.163
150.682
148.257
145.925
143.619
141.437
139.217
137.199
135.011
133.223
130.923
129.617
126.439
2187.55
2119.56
1981.95
1850.92
1735.81
1634.58
1545.49
1466.92
1397.02
1334.18
1277.25
1225.25
1177.43
1133.14
1091.86
1053.2
1016.78
982.311
949.559
918.309
888.415
859.753
832.226
805.768
780.328
755.877
732.384
709.823
688.166
667.373
647.562
628.6
610.406
592.925
576.112
559.928
544.338
529.314
514.825
500.853
487.376
474.38
461.851
449.777
438.144
426.942
416.156
405.773
395.78
386.16
376.899
367.979
359.383
351.096
343.09
335.347
327.856
320.598
313.56
306.726
300.085
293.625
287.338
281.214
275.25
269.439
263.779
258.263
252.885
247.649
242.553
237.599
232.784
228.109
223.571
219.17
214.902
210.765
206.758
202.875
199.114
195.47
191.941
188.519
185.205
181.987
178.872
175.838
172.906
170.035
167.279
164.544
161.963
159.327
156.944
154.341
152.231
149.498
147.961
144.182
1721.47
1632.85
1542.89
1464.97
1399.57
1342.78
1292.17
1245.95
1203.47
1164.06
1127.41
1093.1
1060.87
1030.45
1001.6
974.095
947.745
922.346
897.832
874.022
850.909
828.384
806.397
784.953
764.058
743.742
724.024
704.912
686.425
668.522
651.176
634.395
618.168
602.477
587.301
572.614
558.388
544.606
531.243
518.294
505.741
493.585
481.818
470.434
459.426
448.787
438.506
428.574
418.981
409.711
400.754
392.093
383.714
375.599
367.732
360.093
352.667
345.436
338.387
331.506
324.784
318.213
311.787
305.503
299.359
293.355
287.485
281.761
276.183
270.747
265.45
260.291
255.268
250.383
245.632
241.015
236.531
232.177
227.95
223.846
219.864
215.997
212.244
208.596
205.055
201.607
198.263
194.995
191.835
188.726
185.744
182.765
179.965
177.075
174.481
171.61
169.311
166.286
164.607
160.407
945.683
856.163
788.856
741.949
708.925
684.486
666.144
652.261
642.404
635.165
630.158
626.277
623.276
620.666
618.241
615.703
612.872
609.537
605.761
601.178
596.132
590.198
583.552
576.394
568.841
561.053
553.13
545.148
537.15
529.169
521.239
513.338
505.486
497.692
489.951
482.26
474.608
467.011
459.454
451.976
444.559
437.25
430.032
422.903
415.878
408.955
402.145
395.454
388.889
382.447
376.133
369.939
363.865
357.897
352.035
346.262
340.577
334.964
329.421
323.941
318.521
313.161
307.862
302.633
297.469
292.381
287.366
282.428
277.571
272.801
268.121
263.537
259.051
254.665
250.382
246.201
242.124
238.149
234.275
230.499
226.82
223.232
219.737
216.324
213
209.746
206.583
203.472
200.461
197.475
194.614
191.727
189.026
186.198
183.685
180.852
178.615
175.618
173.979
169.774
482.529
441.845
407.127
378.817
355.58
336.204
320.087
306.423
295.344
285.983
278.561
272.082
266.945
262.804
259.688
257.165
255.342
253.874
253.101
252.272
252.359
252.838
253.914
255.455
257.374
259.723
262.375
265.228
268.205
271.251
274.329
277.347
280.264
283.017
285.582
287.907
289.975
291.765
293.256
294.481
295.356
296.005
296.209
296.062
295.705
295.025
294.164
293.146
291.99
290.706
289.309
287.795
286.178
284.447
282.614
280.661
278.604
276.423
274.142
271.748
269.253
266.676
264.011
261.288
258.485
255.651
252.744
249.833
246.9
243.964
241.021
238.083
235.158
232.255
229.38
226.539
223.734
220.969
218.244
215.56
212.919
210.316
207.755
205.228
202.745
200.285
197.876
195.476
193.141
190.789
188.535
186.216
184.055
181.738
179.697
177.332
175.49
172.958
171.599
167.956
295.013
269.576
246.612
226.373
208.264
191.964
177.247
164.102
152.257
141.821
132.271
124.059
117.071
110.902
105.465
100.629
96.5112
92.9072
89.8655
87.2271
85.0575
83.3269
81.9022
81.019
80.312
80.2915
80.5151
80.8753
81.6819
82.8534
84.35
86.1511
88.2351
90.5636
93.0959
95.8109
98.6879
101.687
104.802
107.997
111.316
114.695
118.307
122.101
126.039
130.073
134.161
138.258
142.318
146.3
150.169
153.888
157.431
160.768
163.881
166.745
169.358
171.699
173.784
175.584
177.139
178.406
179.391
180.171
180.679
181.096
181.185
181.342
181.267
181.075
180.724
180.281
179.756
179.168
178.519
177.822
177.078
176.294
175.473
174.616
173.727
172.807
171.855
170.869
169.856
168.805
167.736
166.625
165.511
164.34
163.194
161.956
160.8
159.482
158.32
156.907
155.819
154.253
153.423
151.055
177.114
160.025
144.052
129.685
116.697
105.01
94.4843
85.1344
76.7704
69.4155
62.8242
57.0733
51.8592
47.3137
43.4411
40.1058
37.2054
34.6557
32.4277
30.4646
28.743
27.2358
25.913
24.7744
23.7907
22.9622
22.2691
21.7143
21.2703
20.9628
20.7443
20.6804
20.7413
20.8233
21.0766
21.3493
21.7753
22.2916
22.9037
23.6052
24.4175
25.3496
26.4176
27.6371
29.0156
30.5511
32.2458
34.0977
36.1023
38.2353
40.4978
42.8907
45.3977
48.0139
50.7068
53.4768
56.2766
59.1221
61.9505
64.8073
67.6051
70.4326
73.2459
76.0591
78.8219
81.5608
84.2211
86.8269
89.3422
91.7805
94.1101
96.3469
98.4649
100.485
102.382
104.18
105.855
107.433
108.889
110.244
111.485
112.621
113.619
114.529
115.311
116.022
116.611
117.148
117.567
117.951
118.214
118.463
118.605
118.599
118.558
118.49
118.454
118.239
118.152
117.723
71.6649
64.0662
57.0285
50.7493
45.212
40.3617
36.1252
32.4459
29.2514
26.4857
24.0829
21.9957
20.1701
18.5664
17.1543
15.906
14.7986
13.8092
12.9239
12.1267
11.4084
10.758
10.1701
9.63711
9.15609
8.72148
8.331
7.98036
7.66684
7.38852
7.13969
6.91962
6.72928
6.56326
6.41826
6.30247
6.2099
6.13039
6.07849
6.0207
6.00036
5.98949
6.05338
6.07729
6.17119
6.23536
6.35293
6.49091
6.7113
6.94503
7.22684
7.59032
8.01015
8.5185
9.07051
9.70908
10.374
11.1212
11.879
12.7177
13.5574
14.4808
15.4032
16.4197
17.438
18.5631
19.6928
20.9401
22.1921
23.5691
24.9474
26.454
27.9539
29.5822
31.1912
32.9253
34.6228
36.4411
38.1986
40.0757
41.8613
43.7676
45.5793
47.503
49.2913
51.19
52.9113
54.7518
56.3703
58.1297
59.619
61.2849
62.616
64.1737
65.3212
66.7844
67.733
69.1124
69.8798
71.2886
20.6077
19.9017
19.0144
18.0071
16.9345
15.8438
14.7706
13.7414
12.772
11.8717
11.0437
10.2873
9.59943
8.97488
8.40842
7.89398
7.42635
7.00014
6.61108
6.25506
5.92887
5.62953
5.35468
5.1022
4.87015
4.65705
4.46103
4.28116
4.11534
3.96329
3.82242
3.69331
3.57299
3.46237
3.35892
3.26366
3.17458
3.09199
3.01487
2.94297
2.87564
2.81366
2.7568
2.70472
2.65853
2.61571
2.58021
2.54591
2.52282
2.49768
2.48765
2.47591
2.47264
2.47967
2.49361
2.52663
2.55239
2.60652
2.64305
2.71599
2.7644
2.85719
2.91947
3.03629
3.11624
3.26345
3.36641
3.5509
3.68697
3.91601
4.0895
4.37287
4.59412
4.94318
5.22242
5.64793
5.99399
6.51246
6.93697
7.55291
8.04915
8.76228
9.32988
10.1461
10.7861
11.7097
12.419
13.449
14.218
15.35
16.1647
17.3914
18.2337
19.5439
20.3966
21.7773
22.6068
24.0607
24.7315
26.8006
11.4623
10.8718
10.2764
9.68648
9.11179
8.55956
8.03479
7.54119
7.08121
6.65579
6.26489
5.90703
5.58053
5.28265
5.01096
4.76247
4.53483
4.32543
4.13233
3.95359
3.78776
3.63351
3.48984
3.35588
3.23088
3.11429
3.00543
2.90397
2.80915
2.72076
2.63804
2.56083
2.4883
2.42041
2.35633
2.29614
2.23898
2.18507
2.13349
2.08454
2.03738
1.99259
1.94919
1.90822
1.86831
1.83078
1.79401
1.75996
1.72585
1.69486
1.66451
1.63757
1.60951
1.58652
1.56251
1.54494
1.52663
1.5143
1.50179
1.49363
1.48533
1.48038
1.47461
1.47248
1.46938
1.46382
1.46231
1.46264
1.46005
1.4592
1.4605
1.46502
1.47027
1.4811
1.48982
1.50663
1.52185
1.55268
1.58314
1.62621
1.65352
1.70553
1.74572
1.82228
1.87518
1.99002
2.06294
2.22033
2.316
2.5191
2.63943
2.89291
3.03934
3.34741
3.52766
3.88518
4.08642
4.51586
4.70739
5.41258
6.99576
6.72039
6.43531
6.14605
5.8595
5.58051
5.31256
5.0574
4.81624
4.58909
4.37595
4.17605
3.98897
3.81382
3.65017
3.49719
3.35454
3.22139
3.09745
2.98188
2.87436
2.77404
2.68059
2.59318
2.51151
2.43481
2.36282
2.29488
2.23081
2.1701
2.11261
2.05796
2.00608
1.95669
1.90973
1.86501
1.82245
1.78194
1.74333
1.70659
1.67148
1.63806
1.60597
1.57539
1.54584
1.51764
1.49021
1.464
1.43831
1.4138
1.3896
1.36657
1.34369
1.32201
1.30038
1.27998
1.25958
1.24047
1.22129
1.20348
1.18589
1.16959
1.15332
1.1384
1.1232
1.10947
1.09516
1.08239
1.06887
1.05694
1.04413
1.03314
1.02111
1.01111
0.999855
0.991039
0.980625
0.973068
0.964002
0.957655
0.949536
0.944025
0.937495
0.93367
0.929162
0.92762
0.927541
0.928493
0.930406
0.936381
0.941471
0.953656
0.96203
0.981303
0.994164
1.0205
1.0372
1.07244
1.0883
1.15952
4.72806
4.59041
4.44426
4.29162
4.13606
3.9804
3.82719
3.67801
3.5345
3.39736
3.26741
3.14456
3.02902
2.92019
2.81797
2.72159
2.63095
2.54531
2.46467
2.38837
2.31653
2.24852
2.18449
2.12379
2.06659
2.01221
1.96084
1.91179
1.86531
1.82073
1.77837
1.7376
1.69882
1.66143
1.62587
1.59156
1.55898
1.52754
1.49772
1.46892
1.44162
1.41519
1.39011
1.36573
1.34253
1.31987
1.29822
1.27698
1.25661
1.23655
1.21725
1.19819
1.17984
1.16169
1.14423
1.12694
1.11035
1.0939
1.07818
1.06262
1.0478
1.03313
1.01925
1.00545
0.992457
0.979468
0.967273
0.954974
0.943449
0.931721
0.920723
0.909457
0.898878
0.887999
0.877814
0.867278
0.857502
0.847377
0.837989
0.828087
0.818852
0.80904
0.800092
0.790493
0.781996
0.772818
0.764769
0.755885
0.748173
0.739579
0.732343
0.724202
0.717781
0.710281
0.705131
0.698325
0.693376
0.688075
0.684676
0.679716
3.5353
3.45595
3.37064
3.28039
3.18747
3.09353
3.00015
2.90812
2.81837
2.73119
2.64715
2.56621
2.48874
2.41449
2.34373
2.27612
2.21187
2.15056
2.09238
2.03684
1.98415
1.93378
1.88598
1.84021
1.79674
1.75505
1.71544
1.67737
1.6412
1.60635
1.57324
1.54124
1.51082
1.48133
1.45326
1.42594
1.39993
1.3745
1.35027
1.32649
1.30384
1.28153
1.26029
1.23929
1.21934
1.19955
1.18078
1.16212
1.14446
1.12683
1.1102
1.09354
1.07786
1.06208
1.04727
1.03229
1.01827
1.004
0.990702
0.977068
0.964431
0.951368
0.939335
0.926786
0.915316
0.903238
0.892295
0.880655
0.870207
0.858975
0.848995
0.838146
0.828609
0.818121
0.809009
0.798858
0.790156
0.780317
0.772015
0.76246
0.754542
0.745243
0.737698
0.728635
0.721457
0.712616
0.7058
0.697157
0.690694
0.682229
0.676116
0.667813
0.662056
0.653893
0.648513
0.640501
0.635367
0.627537
0.624011
0.612316
2.87504
2.82275
2.76634
2.70615
2.6436
2.57963
2.51531
2.45114
2.38787
2.32573
2.26529
2.20654
2.14987
2.09512
2.04256
1.99192
1.94346
1.8968
1.8522
1.80926
1.76823
1.72868
1.69089
1.6544
1.61953
1.5858
1.55358
1.52236
1.49256
1.46364
1.43604
1.40921
1.38363
1.35869
1.3349
1.31163
1.28943
1.26762
1.24681
1.22628
1.20669
1.18729
1.1688
1.15042
1.13295
1.11552
1.09901
1.08248
1.06687
1.05119
1.03644
1.02156
1.00761
0.993459
0.980246
0.966747
0.9542
0.941288
0.929342
0.916953
0.905554
0.893633
0.882737
0.87124
0.86081
0.849703
0.839718
0.828973
0.819414
0.809009
0.799861
0.789777
0.781027
0.771248
0.762884
0.753394
0.745406
0.736189
0.728563
0.719603
0.712327
0.703604
0.696669
0.688164
0.68156
0.673256
0.666977
0.658856
0.652893
0.644936
0.639281
0.631471
0.62612
0.618421
0.613368
0.605827
0.601161
0.593734
0.588738
0.580409
2.48994
2.45057
2.40831
2.36324
2.31641
2.26838
2.21995
2.17136
2.1232
2.07555
2.02887
1.9831
1.93862
1.89525
1.85332
1.81258
1.77333
1.73527
1.69868
1.66322
1.62917
1.59616
1.56449
1.53376
1.50428
1.47563
1.44816
1.42141
1.39577
1.37074
1.34676
1.32328
1.3008
1.27874
1.25762
1.23684
1.21697
1.19737
1.17864
1.1601
1.14242
1.12487
1.10815
1.09148
1.07565
1.0598
1.04478
1.02968
1.01541
1.001
0.987423
0.973641
0.960713
0.947514
0.93519
0.922532
0.910774
0.898616
0.88739
0.875698
0.864976
0.853715
0.843469
0.832609
0.822817
0.812328
0.802967
0.792822
0.783872
0.774047
0.76549
0.755963
0.74778
0.738533
0.730708
0.721723
0.714243
0.705499
0.698355
0.689834
0.683018
0.674699
0.668205
0.660071
0.653891
0.645926
0.640055
0.632242
0.626676
0.618998
0.613735
0.606176
0.601206
0.59373
0.589098
0.581771
0.57743
0.570346
0.565573
0.557557
2.25473
2.22196
2.18712
2.15014
2.11183
2.07253
2.03285
1.99289
1.95316
1.91366
1.87481
1.83653
1.79916
1.76254
1.72699
1.69228
1.65869
1.62595
1.59435
1.56357
1.53389
1.50498
1.47714
1.44999
1.42387
1.39837
1.37386
1.34988
1.32685
1.30429
1.28262
1.26134
1.24092
1.22082
1.20155
1.18253
1.16431
1.14628
1.12903
1.11191
1.09556
1.07928
1.06377
1.04827
1.03354
1.01875
1.00474
0.990615
0.977265
0.963747
0.951013
0.938054
0.925894
0.913452
0.90183
0.889867
0.878753
0.867237
0.856605
0.845507
0.835334
0.824628
0.814891
0.804555
0.795233
0.785242
0.776314
0.766645
0.758096
0.748724
0.740541
0.731443
0.723614
0.714769
0.707282
0.698672
0.691514
0.683123
0.676284
0.668098
0.661567
0.653571
0.64734
0.63952
0.633584
0.625922
0.62028
0.612756
0.607406
0.600007
0.594947
0.587657
0.582878
0.575662
0.571213
0.564134
0.559962
0.553102
0.548536
0.54078
2.10294
2.07363
2.04284
2.01039
1.97693
1.94269
1.90816
1.87337
1.83876
1.80428
1.77031
1.73671
1.70385
1.67151
1.64003
1.60916
1.57921
1.54989
1.52152
1.49377
1.46696
1.44073
1.41543
1.39066
1.3668
1.34341
1.32089
1.29879
1.27752
1.25662
1.23652
1.21672
1.19771
1.17894
1.16093
1.1431
1.12602
1.10906
1.09284
1.0767
1.06128
1.04588
1.0312
1.01649
1.00251
0.988449
0.975114
0.961648
0.948921
0.936011
0.923852
0.911462
0.899838
0.887931
0.876811
0.865355
0.854712
0.843675
0.833484
0.822842
0.81308
0.802806
0.79345
0.783521
0.774552
0.764948
0.756346
0.747046
0.738797
0.729781
0.721871
0.713118
0.705537
0.697028
0.689765
0.681483
0.674528
0.666459
0.659801
0.651933
0.645561
0.63788
0.631787
0.624279
0.618459
0.61111
0.60556
0.598354
0.593069
0.585993
0.580972
0.574015
0.569253
0.562383
0.557878
0.551141
0.546982
0.540355
0.535877
0.528397
1.99965
1.97244
1.94406
1.91436
1.88388
1.85275
1.82141
1.78984
1.75844
1.7271
1.6962
1.66558
1.63559
1.60601
1.57717
1.54882
1.52127
1.49423
1.46802
1.44232
1.41746
1.39307
1.36952
1.3464
1.3241
1.30219
1.28108
1.26031
1.24031
1.2206
1.20164
1.18292
1.16494
1.14714
1.13006
1.11311
1.09687
1.08072
1.06527
1.04985
1.03512
1.02039
1.00635
0.992248
0.978849
0.96534
0.952541
0.939583
0.92735
0.914905
0.903205
0.891241
0.880044
0.868531
0.857808
0.846718
0.836445
0.825751
0.815907
0.805583
0.796148
0.786168
0.777126
0.767467
0.758799
0.749441
0.741131
0.732057
0.724086
0.715281
0.707631
0.699083
0.691739
0.683434
0.676385
0.668307
0.661543
0.653677
0.647194
0.63952
0.633315
0.625817
0.619884
0.61255
0.606883
0.599699
0.594293
0.587248
0.582099
0.575179
0.570283
0.563479
0.558833
0.552119
0.54773
0.541123
0.536891
0.530416
0.527513
0.517667
1.92577
1.89987
1.873
1.84504
1.81648
1.78738
1.75814
1.72872
1.69945
1.67025
1.64144
1.61287
1.58486
1.55721
1.53021
1.50363
1.47777
1.45235
1.42769
1.40346
1.37999
1.35694
1.33465
1.31274
1.29157
1.27075
1.25066
1.23087
1.2118
1.19297
1.17485
1.15693
1.1397
1.12263
1.10623
1.08994
1.07433
1.05877
1.04389
1.02902
1.01482
1.00058
0.987028
0.973385
0.960434
0.947346
0.934962
0.922394
0.910545
0.898463
0.887119
0.875492
0.864627
0.853426
0.843014
0.832212
0.82223
0.811803
0.802232
0.792157
0.782977
0.773231
0.764427
0.754989
0.746543
0.737395
0.729293
0.720416
0.712643
0.70402
0.696565
0.688181
0.681032
0.672871
0.666019
0.658066
0.651503
0.643743
0.637462
0.629881
0.623875
0.616459
0.610724
0.603458
0.597989
0.590862
0.585655
0.578652
0.573705
0.566813
0.562123
0.555328
0.550901
0.54419
0.539988
0.533368
0.529537
0.522881
0.519965
0.510292
1.87087
1.84577
1.81989
1.79311
1.76587
1.73818
1.71041
1.68249
1.65474
1.62704
1.59973
1.57263
1.54604
1.51977
1.49412
1.46883
1.44421
1.41999
1.39646
1.37332
1.3509
1.32884
1.3075
1.28649
1.26619
1.24619
1.22689
1.20785
1.18949
1.17134
1.15387
1.13657
1.11993
1.10342
1.08756
1.07179
1.05667
1.04158
1.02715
1.01271
0.998923
0.985082
0.971904
0.958626
0.94602
0.933269
0.921204
0.908947
0.897393
0.885599
0.874528
0.86317
0.852558
0.841607
0.831431
0.820862
0.811101
0.800892
0.791527
0.781656
0.772669
0.763116
0.754491
0.745235
0.736957
0.72798
0.720036
0.71132
0.703697
0.695225
0.687913
0.67967
0.672657
0.664628
0.657907
0.650077
0.643639
0.635996
0.629834
0.622362
0.616471
0.609158
0.603533
0.596366
0.591002
0.583967
0.578861
0.571946
0.567096
0.560289
0.555691
0.548976
0.544638
0.538005
0.533888
0.527337
0.523589
0.517001
0.514119
0.504621
1.82947
1.80487
1.77964
1.75365
1.72732
1.70062
1.67388
1.64702
1.62036
1.59375
1.56752
1.54149
1.51595
1.49071
1.46604
1.44172
1.41803
1.3947
1.37203
1.34972
1.32809
1.30679
1.28617
1.26586
1.24622
1.22685
1.20815
1.18968
1.17187
1.15425
1.13728
1.12046
1.10428
1.08821
1.07277
1.0574
1.04266
1.02795
1.01386
0.999762
0.986297
0.972772
0.959888
0.946902
0.934568
0.922087
0.910272
0.898266
0.886943
0.875383
0.864525
0.853384
0.842969
0.832222
0.822228
0.811852
0.802259
0.792231
0.783023
0.773322
0.764481
0.755087
0.746599
0.737494
0.729344
0.720509
0.712685
0.704104
0.696594
0.688251
0.681044
0.672924
0.666011
0.6581
0.651471
0.643756
0.637404
0.62987
0.62379
0.616424
0.610609
0.603398
0.597843
0.590775
0.585477
0.578539
0.573494
0.566674
0.561879
0.555164
0.550619
0.543999
0.539694
0.533141
0.529117
0.522687
0.518905
0.512686
0.508524
0.501482
1.79736
1.77306
1.74826
1.72283
1.69714
1.67115
1.64517
1.6191
1.59324
1.56745
1.54203
1.5168
1.49206
1.4676
1.4437
1.42011
1.39714
1.37451
1.35251
1.33085
1.30983
1.28913
1.26909
1.24932
1.23021
1.21135
1.19313
1.17513
1.15776
1.14057
1.124
1.10758
1.09176
1.07605
1.06095
1.04591
1.03148
1.01707
1.00327
0.989444
0.976238
0.962968
0.950322
0.937572
0.925455
0.913193
0.901577
0.889774
0.878633
0.867262
0.856571
0.845607
0.835345
0.824763
0.81491
0.804689
0.795226
0.785344
0.776254
0.766692
0.75796
0.748698
0.740309
0.73133
0.723271
0.714558
0.706816
0.698352
0.690916
0.682686
0.675548
0.667536
0.660685
0.652878
0.646308
0.638692
0.632394
0.624957
0.618925
0.611653
0.605883
0.598763
0.593249
0.586269
0.581008
0.574156
0.569145
0.562407
0.557645
0.551009
0.546495
0.539951
0.535675
0.529193
0.5252
0.51884
0.515087
0.508921
0.504797
0.497828
1.77237
1.74824
1.7237
1.69864
1.67341
1.64793
1.62251
1.59703
1.57178
1.54662
1.52183
1.49724
1.47313
1.44928
1.42599
1.40299
1.3806
1.35852
1.33706
1.31591
1.2954
1.27517
1.25558
1.23626
1.21757
1.19911
1.18127
1.16364
1.14661
1.12975
1.1135
1.09737
1.08185
1.06641
1.05157
1.03678
1.02258
1.00839
0.994806
0.981193
0.968179
0.955101
0.94263
0.930055
0.918098
0.905997
0.894527
0.882873
0.871865
0.860633
0.850063
0.839229
0.829078
0.818619
0.808867
0.798762
0.789392
0.77962
0.770615
0.761158
0.752503
0.743344
0.735024
0.726145
0.718147
0.709534
0.701844
0.693481
0.686089
0.677961
0.670858
0.66295
0.656128
0.648427
0.641876
0.634369
0.628083
0.620757
0.614729
0.607573
0.601796
0.594798
0.589268
0.582416
0.577128
0.570412
0.565361
0.558769
0.553951
0.547473
0.542887
0.536513
0.532155
0.525858
0.521724
0.515548
0.511723
0.505649
0.501521
0.494661
1.75374
1.72963
1.70521
1.68037
1.65543
1.6303
1.60527
1.58021
1.5554
1.53069
1.50636
1.48223
1.45858
1.43519
1.41233
1.38977
1.36779
1.34612
1.32504
1.30427
1.2841
1.26422
1.24495
1.22593
1.20752
1.18934
1.17176
1.15437
1.13757
1.12093
1.10488
1.08896
1.07361
1.05836
1.04368
1.02905
1.01501
1.00097
0.987522
0.974044
0.961159
0.948206
0.935854
0.923396
0.91155
0.899557
0.888191
0.876639
0.865729
0.854592
0.844117
0.833373
0.823312
0.812938
0.803273
0.793249
0.783963
0.774269
0.765346
0.755963
0.747389
0.738297
0.730059
0.721242
0.713327
0.70477
0.697162
0.688853
0.68154
0.673465
0.666436
0.658583
0.651827
0.644184
0.637692
0.630246
0.624012
0.616749
0.610769
0.603674
0.597943
0.591005
0.585518
0.578725
0.573478
0.566818
0.561807
0.555269
0.550491
0.544064
0.539516
0.533191
0.52887
0.522625
0.518541
0.512386
0.508446
0.50241
0.499707
0.490552
1.73992
1.71575
1.69135
1.66661
1.64183
1.61691
1.59212
1.56732
1.54279
1.51838
1.49434
1.47051
1.44714
1.42402
1.40143
1.37912
1.35737
1.33591
1.31504
1.29446
1.27447
1.25475
1.23563
1.21676
1.19848
1.18042
1.16295
1.14567
1.12898
1.11245
1.0965
1.08067
1.06542
1.05027
1.03569
1.02117
1.00722
0.993291
0.979943
0.966574
0.953792
0.940944
0.928689
0.916332
0.90458
0.892688
0.881417
0.869966
0.859153
0.848118
0.83774
0.827098
0.817136
0.806865
0.797298
0.787376
0.778188
0.768594
0.759768
0.750484
0.742004
0.733011
0.724862
0.716144
0.708313
0.699855
0.692327
0.684116
0.676878
0.668899
0.661941
0.654181
0.647495
0.639939
0.633517
0.626153
0.619988
0.612802
0.606888
0.599868
0.5942
0.587333
0.581906
0.575182
0.569991
0.563399
0.55844
0.551968
0.547238
0.540876
0.536372
0.530111
0.525832
0.519645
0.515586
0.509516
0.505758
0.499788
0.495745
0.489
1.72894
1.70469
1.68026
1.65556
1.63084
1.60602
1.58132
1.55662
1.53217
1.50782
1.48382
1.46001
1.43663
1.4135
1.39088
1.36854
1.34675
1.32527
1.30437
1.28379
1.26377
1.24401
1.22484
1.20593
1.18764
1.16959
1.15216
1.13495
1.11835
1.10194
1.08614
1.07048
1.05541
1.04045
1.02608
1.01178
0.998051
0.984354
0.971234
0.958102
0.945548
0.932946
0.920931
0.908825
0.897313
0.885667
0.874626
0.863408
0.85281
0.841995
0.831816
0.821378
0.811597
0.801513
0.792112
0.782361
0.773323
0.763885
0.755196
0.746052
0.737698
0.728831
0.720799
0.712193
0.704471
0.696112
0.688686
0.680563
0.67342
0.665521
0.658651
0.650964
0.644357
0.636872
0.63052
0.623222
0.617121
0.609998
0.604142
0.597182
0.591567
0.584757
0.579378
0.572709
0.567562
0.561021
0.556104
0.54968
0.54499
0.538673
0.534207
0.527987
0.523743
0.517599
0.513586
0.507525
0.503654
0.497717
0.49504
0.485994
1.72046
1.69582
1.67092
1.64589
1.62073
1.59531
1.56995
1.54452
1.51935
1.49429
1.46967
1.4453
1.42149
1.39801
1.37519
1.35273
1.33097
1.30959
1.28891
1.26859
1.249
1.22979
1.21126
1.19304
1.17547
1.15815
1.14144
1.12493
1.109
1.09323
1.07802
1.06293
1.04839
1.03392
1.01999
1.0061
0.992758
0.979411
0.966608
0.953769
0.94148
0.929118
0.917315
0.905404
0.894063
0.882577
0.871676
0.860594
0.850111
0.839411
0.829329
0.81899
0.80929
0.799294
0.789961
0.78029
0.771309
0.761944
0.753302
0.744227
0.735911
0.727109
0.719109
0.710564
0.702868
0.694567
0.687164
0.679093
0.671972
0.66412
0.65727
0.649626
0.643039
0.635592
0.629259
0.621997
0.615913
0.608823
0.602983
0.596053
0.590453
0.583672
0.578306
0.571664
0.566529
0.560015
0.555108
0.548709
0.544028
0.537734
0.533277
0.52708
0.522844
0.51672
0.512716
0.506674
0.502808
0.496877
0.494222
0.485228
1.69564
1.66972
1.64411
1.61842
1.59314
1.56811
1.54354
1.51923
1.49542
1.4719
1.44892
1.42626
1.40415
1.38236
1.36114
1.34023
1.3199
1.29985
1.28038
1.26118
1.24254
1.22415
1.20631
1.18869
1.17161
1.15472
1.13837
1.12217
1.10651
1.09097
1.07596
1.06103
1.04664
1.0323
1.01849
1.0047
0.991439
0.978171
0.965439
0.952664
0.940433
0.928125
0.91637
0.904504
0.893203
0.881757
0.870889
0.859841
0.849387
0.838717
0.828659
0.818347
0.808668
0.798696
0.789381
0.779732
0.770765
0.761422
0.752791
0.743738
0.735429
0.72665
0.718652
0.710131
0.702435
0.694157
0.686752
0.678703
0.67158
0.663748
0.656897
0.64927
0.642682
0.63525
0.628917
0.621668
0.615584
0.608507
0.602666
0.595748
0.590147
0.583376
0.578012
0.571376
0.566245
0.559735
0.554832
0.548437
0.54376
0.53747
0.533017
0.526822
0.522593
0.516467
0.512455
0.506445
0.502737
0.496818
0.492837
0.486148
2.93899
3.13596
3.22899
3.56102
3.74415
4.26314
4.9645
6.11278
8.69351
20.8825
2.63317
2.75323
2.81621
3.02353
3.19727
3.49906
3.90125
4.56618
5.48025
11.9067
2.45053
2.51222
2.54862
2.67578
2.7616
3.00605
3.18858
3.68118
4.08077
7.19383
2.33484
2.3681
2.38755
2.46012
2.50639
2.65769
2.7604
3.07426
3.29339
4.8241
2.23922
2.25827
2.26907
2.31317
2.33949
2.42942
2.48849
2.67588
2.80364
3.58827
2.16593
2.17453
2.17954
2.2052
2.22043
2.27455
2.30884
2.4187
2.49279
2.90456
2.10893
2.10991
2.11003
2.12302
2.13061
2.16263
2.18226
2.24722
2.28981
2.51177
2.06499
2.05978
2.05686
2.06037
2.06264
2.07944
2.08967
2.12715
2.15108
2.27464
2.03012
2.02119
2.01413
2.01085
2.01015
2.01612
2.02039
2.03983
2.05255
2.1226
2.00209
1.99094
1.98013
1.97388
1.96743
1.96681
1.9668
1.97447
1.97987
2.02005
1.97941
1.96711
1.95302
1.94449
1.93416
1.92943
1.92376
1.92396
1.92452
1.94586
1.96213
1.94726
1.93244
1.92036
1.90874
1.8995
1.89117
1.88555
1.88087
1.89055
1.94797
1.93182
1.9153
1.90202
1.88744
1.87722
1.86417
1.85751
1.84522
1.84898
1.93624
1.92007
1.9012
1.88784
1.87028
1.85959
1.84313
1.83498
1.81738
1.81682
1.92686
1.91115
1.89003
1.87684
1.85682
1.84575
1.82668
1.81735
1.79842
1.79191
1.91978
1.90431
1.88171
1.86827
1.84689
1.83483
1.81458
1.80339
1.78437
1.77347
1.91483
1.89833
1.87595
1.86091
1.84002
1.82578
1.80613
1.79221
1.77367
1.75988
1.91136
1.89309
1.87162
1.85463
1.83457
1.8183
1.79924
1.78329
1.76491
1.74914
1.90948
1.89011
1.86883
1.85067
1.83068
1.81322
1.79403
1.77692
1.75819
1.74124
1.90032
1.87855
1.85645
1.83602
1.81503
1.79554
1.77524
1.75634
1.73644
1.7179
3.01039
3.31032
3.85902
4.68664
6.17085
9.38573
18.7556
70.9345
461.042
793.707
3.02052
3.30845
3.88603
4.75227
6.41716
9.99665
20.7092
75.0145
479.748
779.078
3.0224
3.30314
3.88841
4.80856
6.42428
9.91247
20.4424
77.2939
500.112
763.677
3.03159
3.31313
3.89734
4.92858
6.80576
10.8225
23.3754
81.2753
511.311
746.912
3.0272
3.30555
3.88347
4.92495
6.79784
10.7471
23.0553
86.4492
536.059
724.643
3.07137
3.37308
3.98528
5.1492
7.35336
12.0826
27.1583
92.4841
545.921
703.793
3.07432
3.38109
3.99322
5.18241
7.40356
12.0789
27.5332
101.792
573.296
678.982
3.16044
3.50597
4.19849
5.55502
8.2791
13.597
33.3178
115.652
586.334
667.866
3.18521
3.54117
4.26044
5.68983
8.58694
14.1183
35.5945
143.905
582.549
641.58
3.33935
3.75569
4.63108
6.37061
10.0181
17.5367
46.5136
180.63
572.159
626.335
3.2621
3.52997
3.93189
4.74172
4.45549
11.3054
10.9867
88.2945
390.859
927.119
3.17116
3.45582
3.93277
4.50631
4.94501
8.99085
14.7131
66.6997
347.976
904.444
3.12984
3.43403
3.99456
4.36063
6.04867
8.10446
17.6908
63.6912
349.545
886.392
3.1047
3.41049
3.96222
4.46927
5.91698
8.03902
17.6726
64.2942
358.693
881.908
3.09163
3.38739
3.91891
4.53488
5.86941
8.38071
17.1908
65.3777
371.283
878.323
3.07347
3.36948
3.87954
4.56931
5.89545
8.62865
17.2209
66.7152
380.426
861.668
3.05807
3.3489
3.8603
4.58234
5.93345
8.80455
17.197
65.6195
387.589
840.58
3.03632
3.32894
3.84272
4.60173
5.9764
8.98355
17.5987
67.5985
397.406
817.802
3.00942
3.30597