/*--------------------------------*- C++ -*----------------------------------*\
  =========                 |
  \\      /  F ield         | OpenFOAM: The Open Source CFD Toolbox
   \\    /   O peration     | Website:  https://openfoam.org
    \\  /    A nd           | Version:  8
     \\/     M anipulation  |
\*---------------------------------------------------------------------------*/
FoamFile
{
    version     2.0;
    format      ascii;
    class       volScalarField;
    location    "2.50002999";
    object      k;
}
// * * * * * * * * * * * * * * * * * * * * * * * * * * * * * * * * * * * * * //

dimensions      [0 2 -2 0 0 0 0];

internalField   nonuniform List<scalar> 
6800
(
7.15447
17.0252
18.9393
18.5855
17.5753
15.4223
11.4407
7.37098
4.08449
2.61683
5.69084
15.891
18.0844
17.5491
15.876
11.741
6.91519
3.79847
2.30026
1.66497
7.06827
16.0307
17.4393
16.5092
13.334
7.55609
4.00563
2.39199
1.61357
1.15484
7.68283
15.7258
16.6638
14.997
9.42638
4.8378
2.75442
1.7452
1.17192
0.911187
8.16497
15.5097
16.0809
13.024
6.49556
3.34407
1.89646
1.27193
0.95461
0.785022
8.43142
15.6728
15.5012
9.88771
4.5997
2.37302
1.53101
1.10556
0.840272
0.697614
8.58029
15.9484
14.7153
7.53416
3.34685
1.91101
1.24674
0.912248
0.727772
0.635244
8.80626
16.6462
13.2903
5.37178
2.63843
1.56327
1.11075
0.849644
0.691941
0.613925
9.07241
17.4303
11.3625
4.59959
2.20115
1.39517
0.978615
0.753891
0.634651
0.574031
9.56489
18.5328
9.78846
3.51164
1.86893
1.231
0.918649
0.726753
0.618577
0.562676
41.0025
59.3477
61.7523
61.5639
62.0508
63.9842
66.7927
69.7153
71.8328
72.7878
39.3536
57.0742
60.2861
61.1218
62.9472
66.3505
70.8296
75.5458
79.628
81.9651
36.3825
53.1447
57.5304
60.2912
64.4328
70.0874
76.3308
81.5808
85.3763
87.3471
32.8567
48.7996
54.6068
60.1338
67.1265
74.8084
80.1092
82.3776
82.2808
79.438
29.1552
45.1968
53.5484
62.2844
71.8011
77.4059
76.9605
73.6209
68.2835
55.9505
25.9488
43.6819
55.8256
67.3114
72.3728
69.8064
62.8757
49.7779
41.427
28.5844
23.2246
44.6236
61.1588
65.1214
59.4328
46.3788
34.1263
25.6083
22.4505
16.8905
21.8827
47.436
53.2041
45.7949
31.9774
25.0121
21.3636
17.8071
16.176
12.5177
18.9187
37.0588
30.9001
25.1402
21.5702
19.3294
17.3451
14.8841
13.1813
9.24292
13.7872
21.8964
21.4365
20.2167
18.7652
17.3848
15.1409
12.0267
8.91698
4.83209
72.9422
70.5483
67.7344
65.0744
62.7198
60.6657
58.8288
57.2032
55.7772
54.5088
53.3679
52.3285
51.37
50.4775
49.6367
48.8402
48.0816
47.3565
46.6598
45.9865
45.3331
44.6965
44.0743
43.4651
42.8678
42.282
41.7074
41.1442
40.5926
40.0528
39.5248
39.0089
38.505
38.0127
37.5317
37.0614
36.6015
36.1512
35.7101
35.2777
34.8538
34.4384
34.0312
33.6324
33.242
32.8602
32.487
32.1228
31.7675
31.4214
31.0844
30.7564
30.4373
30.1269
29.8247
29.5303
29.2433
28.9629
28.6885
28.4195
28.1551
27.8946
27.6377
27.3837
27.1322
26.8831
26.6362
26.3913
26.1486
25.9082
25.6701
25.4347
25.2021
24.9726
24.7465
24.5242
24.3057
24.0914
23.8815
23.676
23.4752
23.2792
23.0878
22.9013
22.7193
22.542
22.3692
22.2007
22.0364
21.876
21.7198
21.5664
21.418
21.2699
21.1302
20.9837
20.8563
20.7031
20.5966
20.3962
82.6617
79.7328
76.2928
73.0336
70.1324
67.6121
65.4108
63.4993
61.8106
60.3049
58.948
57.7102
56.5685
55.5061
54.5026
53.5542
52.6524
51.7898
50.9603
50.1585
49.3802
48.6219
47.8814
47.1571
46.4479
45.7537
45.0743
44.4099
43.7607
43.1268
42.5083
41.9054
41.3175
40.7443
40.1851
39.6392
39.1062
38.5852
38.0758
37.5775
37.0904
36.6144
36.1491
35.6943
35.2501
34.8167
34.3939
33.9821
33.5811
33.191
32.8117
32.4429
32.0845
31.736
31.397
31.0668
30.7449
30.4305
30.123
29.8214
29.5252
29.2336
28.9462
28.6625
28.3822
28.105
27.8309
27.5597
27.2917
27.0267
26.765
26.5069
26.2524
26.0019
25.7555
25.5137
25.2764
25.044
24.8166
24.5943
24.3772
24.1654
23.9587
23.7573
23.5609
23.3696
23.183
23.0012
22.824
22.6508
22.4823
22.3167
22.1566
21.9967
21.846
21.6878
21.5506
21.3852
21.2711
21.0548
88.3765
85.8694
82.2414
78.8082
75.765
73.1244
70.8284
68.8257
67.0474
65.4501
64.0016
62.6757
61.4508
60.3116
59.2552
58.2584
57.3073
56.3927
55.5074
54.6459
53.8039
52.9784
52.1674
51.3703
50.5867
49.8173
49.0626
48.3234
47.6002
46.8932
46.2031
45.5294
44.8716
44.2292
43.6017
42.9885
42.3889
41.8023
41.2283
40.6666
40.1164
39.5776
39.0507
38.5358
38.0333
37.5433
37.0661
36.6016
36.1498
35.7107
35.284
34.8694
34.4665
34.0748
33.6937
33.3223
32.96
32.6058
32.259
31.9183
31.5832
31.2532
30.9278
30.6067
30.2898
29.9767
29.6676
29.3624
29.0612
28.764
28.4711
28.1827
27.899
27.6202
27.3465
27.0783
26.8155
26.5585
26.3073
26.062
25.8226
25.5892
25.3615
25.1397
24.9234
24.7126
24.5071
24.3068
24.1114
23.9205
23.7345
23.5517
23.375
23.1983
23.032
22.857
22.7057
22.5228
22.397
22.1581
80.0078
79.0324
76.7827
74.3935
72.2578
70.3589
68.6711
67.1607
65.7958
64.5477
63.3973
62.3277
61.3279
60.3831
59.4818
58.6199
57.7897
56.9854
56.2005
55.4298
54.6695
53.9174
53.1721
52.4342
51.7043
50.984
50.2746
49.5773
48.8931
48.2227
47.5658
46.9218
46.2908
45.6726
45.067
44.4734
43.8912
43.32
42.7595
42.2095
41.6699
41.141
40.6228
40.1158
39.6203
39.1365
38.6646
38.2048
37.7571
37.3212
36.8969
36.4839
36.0818
35.6897
35.3073
34.9335
34.5675
34.2085
33.8553
33.5083
33.1664
32.8288
32.4951
32.165
31.8385
31.5153
31.1957
30.8796
30.5673
30.259
29.9549
29.6552
29.3602
29.0703
28.7856
28.5066
28.2332
27.9657
27.7041
27.4486
27.1991
26.9556
26.7179
26.4859
26.2595
26.0385
25.8226
25.6117
25.4057
25.2039
25.0073
24.8136
24.6263
24.4383
24.2619
24.0751
23.9144
23.7189
23.5843
23.3291
54.7357
53.8594
52.9428
52.3319
51.9763
51.7617
51.5896
51.3845
51.1664
50.9366
50.7034
50.4642
50.225
49.9851
49.7423
49.4949
49.2359
48.9659
48.6775
48.3682
48.0366
47.6834
47.3102
46.921
46.519
46.1087
45.6931
45.2754
44.8571
44.44
44.0259
43.613
43.2026
42.7949
42.3897
41.9864
41.585
41.1851
40.7868
40.3906
39.9968
39.6063
39.2197
38.8378
38.4614
38.0912
37.7276
37.371
37.0215
36.6793
36.3441
36.0157
35.6938
35.3777
35.0669
34.7603
34.4573
34.1569
33.8586
33.5612
33.2646
32.9686
32.6735
32.3796
32.0871
31.7959
31.5064
31.2187
30.9332
30.6502
30.37
30.0931
29.82
29.551
29.2864
29.0267
28.772
28.5225
28.2783
28.0394
27.8057
27.5773
27.354
27.1356
26.922
26.7129
26.5083
26.3077
26.1114
25.9186
25.7302
25.5439
25.3635
25.1815
25.011
24.8288
24.673
24.4815
24.3488
24.0987
27.5213
26.9052
26.458
26.3871
26.4226
26.5142
26.7121
27.0181
27.443
27.925
28.4589
29.0054
29.5723
30.1418
30.7075
31.2541
31.7612
32.2352
32.6418
32.9862
33.2694
33.4999
33.6829
33.8295
33.9445
34.0352
34.1051
34.1587
34.1972
34.2224
34.2387
34.237
34.2271
34.2089
34.1776
34.1346
34.0806
34.0144
33.9375
33.8497
33.7517
33.6447
33.5297
33.4079
33.2807
33.1495
33.0152
32.8786
32.7404
32.6005
32.4594
32.3168
32.1729
32.0268
31.8785
31.7266
31.5715
31.4114
31.2469
31.0773
30.9017
30.7219
30.5378
30.3508
30.1604
29.9668
29.7705
29.5721
29.3721
29.1712
28.97
28.7693
28.5694
28.3712
28.175
27.9813
27.7902
27.6022
27.4171
27.2352
27.0564
26.8808
26.708
26.5382
26.3709
26.2063
26.0441
25.8842
25.7266
25.571
25.418
25.2657
25.117
24.9659
24.8238
24.6703
24.5394
24.3765
24.2616
24.0474
16.4459
15.9177
15.4361
15.0511
14.7455
14.4965
14.3055
14.1476
14.0664
14.0104
14.0115
14.0405
14.1192
14.2457
14.4128
14.5823
14.7745
14.9723
15.1989
15.4508
15.7285
16.0261
16.3403
16.6763
17.0326
17.4039
17.7878
18.1813
18.5837
18.9905
19.4014
19.8096
20.2138
20.6092
20.9957
21.3677
21.7266
22.0674
22.3921
22.6889
22.9616
23.2108
23.4399
23.6527
23.8515
24.0386
24.2154
24.3825
24.5402
24.6885
24.8278
24.9572
25.0774
25.1864
25.2851
25.3707
25.4448
25.5045
25.5516
25.5854
25.6029
25.6115
25.609
25.5988
25.5757
25.5414
25.4984
25.4483
25.3914
25.3291
25.262
25.1912
25.1174
25.0416
24.964
24.8855
24.8061
24.7263
24.6459
24.5655
24.4845
24.4035
24.3218
24.2399
24.1572
24.0742
23.9901
23.906
23.8206
23.7355
23.6482
23.56
23.4716
23.3809
23.2927
23.1962
23.1126
23.0102
22.932
22.7913
12.1165
11.5912
11.0759
10.5961
10.142
9.71347
9.30845
8.93503
8.58947
8.27505
7.98333
7.71891
7.47395
7.24636
7.0405
6.8575
6.7168
6.58256
6.47478
6.37638
6.31149
6.25597
6.23401
6.24554
6.26716
6.31647
6.38753
6.48487
6.61253
6.76415
6.94314
7.14582
7.37044
7.61474
7.87734
8.15748
8.45146
8.75946
9.07877
9.41924
9.77827
10.1564
10.5509
10.9603
11.3822
11.8135
12.2516
12.6927
13.1336
13.5704
14.0011
14.4222
14.8321
15.2276
15.6074
15.9687
16.3114
16.6331
16.93
17.2036
17.4529
17.6816
17.8921
18.0869
18.2674
18.4328
18.5867
18.728
18.8582
18.9785
19.0901
19.1943
19.2912
19.3823
19.4671
19.5471
19.6215
19.6916
19.7563
19.8169
19.8721
19.9233
19.9687
20.0103
20.046
20.0783
20.1044
20.1279
20.1452
20.1635
20.1619
20.1601
20.1568
20.1598
20.142
20.1409
20.1167
20.1201
20.0995
20.0739
8.79857
8.28024
7.76493
7.29448
6.83639
6.39519
5.97626
5.58444
5.22115
4.88738
4.58079
4.30207
4.04454
3.81276
3.59513
3.39925
3.2097
3.04285
2.89876
2.77019
2.6589
2.5599
2.47452
2.39981
2.33855
2.28583
2.2449
2.21146
2.19024
2.17647
2.17827
2.18521
2.19765
2.22099
2.25543
2.29915
2.35132
2.4142
2.48512
2.56762
2.66145
2.76915
2.89211
3.03118
3.1874
3.36131
3.55277
3.76047
3.98571
4.22686
4.48509
4.75777
5.04513
5.3438
5.65298
5.96962
6.29162
6.61783
6.94935
7.28565
7.62278
7.96158
8.29845
8.63453
8.96734
9.29687
9.62153
9.94123
10.2533
10.5592
10.8563
11.1467
11.4276
11.7012
11.965
12.2214
12.468
12.7069
12.9324
13.1504
13.3554
13.5539
13.7396
13.9205
14.0882
14.2533
14.4043
14.5552
14.6907
14.8293
14.9497
15.0753
15.1795
15.296
15.385
15.494
15.5645
15.6716
15.7244
15.8415
4.54261
4.20931
3.88677
3.5633
3.27555
3.02099
2.79566
2.59645
2.42017
2.26423
2.12589
2.00312
1.89344
1.79546
1.70706
1.62688
1.55367
1.48597
1.424
1.36657
1.31402
1.26523
1.2207
1.17945
1.14207
1.1076
1.07664
1.04824
1.0229
1.00002
0.980023
0.961852
0.947108
0.933243
0.92297
0.913867
0.906677
0.902392
0.897236
0.896681
0.897764
0.902922
0.906549
0.916564
0.922778
0.937214
0.954444
0.976941
1.00341
1.03841
1.07948
1.13005
1.18647
1.25332
1.32497
1.40744
1.4931
1.58955
1.68758
1.79681
1.90681
2.02896
2.1518
2.28815
2.42566
2.57834
2.73251
2.90325
3.07527
3.2646
3.45455
3.66203
3.86899
4.09332
4.31541
4.55442
4.78883
5.03976
5.2865
5.54946
5.80425
6.07447
6.33175
6.60407
6.85826
7.12826
7.37453
7.63906
7.87363
8.13086
8.35054
8.59986
8.80141
9.04274
9.22402
9.45903
9.61576
9.8483
9.96043
10.252
1.79307
1.76442
1.7196
1.66422
1.60169
1.53521
1.4675
1.40064
1.33611
1.27488
1.2175
1.16414
1.11483
1.06931
1.02738
0.988634
0.952842
0.91958
0.888698
0.859853
0.832972
0.807806
0.784315
0.762342
0.741813
0.722677
0.704775
0.688151
0.672556
0.65811
0.644528
0.631911
0.620068
0.60901
0.598623
0.58896
0.579777
0.571335
0.563226
0.555798
0.548762
0.542456
0.536409
0.5313
0.526148
0.522272
0.518179
0.515547
0.5125
0.511594
0.509765
0.509981
0.510911
0.513656
0.516377
0.5222
0.526422
0.535081
0.540828
0.552381
0.55981
0.574411
0.584044
0.602325
0.614869
0.637882
0.654625
0.683635
0.705234
0.741496
0.769667
0.814793
0.850984
0.906734
0.952581
1.02102
1.07799
1.16099
1.22991
1.32806
1.40881
1.52319
1.61636
1.74799
1.85354
2.00267
2.1196
2.2859
2.41247
2.59521
2.72903
2.92718
3.06552
3.27693
3.41726
3.64127
3.7791
4.01876
4.1303
4.47577
1.20689
1.17134
1.13256
1.09291
1.05322
1.01407
0.975974
0.939306
0.904417
0.871483
0.840653
0.811894
0.785193
0.760381
0.73736
0.715916
0.695937
0.677224
0.659686
0.643169
0.627606
0.612892
0.598978
0.585803
0.573317
0.561498
0.550281
0.539677
0.5296
0.520086
0.511024
0.502472
0.494299
0.486584
0.479177
0.472185
0.465428
0.459056
0.452843
0.446998
0.441253
0.435887
0.430563
0.425648
0.420732
0.416234
0.411682
0.407516
0.403332
0.399592
0.395803
0.392389
0.389005
0.386095
0.383245
0.380974
0.378668
0.377093
0.37527
0.374329
0.372886
0.372361
0.371313
0.371002
0.37022
0.370068
0.36971
0.369355
0.369445
0.369974
0.370817
0.372045
0.373666
0.375554
0.378379
0.382455
0.386125
0.393446
0.398977
0.40724
0.413057
0.424154
0.431477
0.448179
0.458667
0.481917
0.496099
0.526723
0.544918
0.583859
0.606507
0.654861
0.682417
0.740403
0.774391
0.843375
0.882549
0.963815
1.00066
1.13714
0.879431
0.86045
0.840199
0.818996
0.797408
0.775806
0.754556
0.733818
0.713795
0.694506
0.676044
0.658349
0.641469
0.625321
0.609949
0.595275
0.581345
0.568084
0.555532
0.543607
0.53234
0.521636
0.511518
0.501887
0.492761
0.484046
0.475763
0.46783
0.460266
0.453008
0.446074
0.439416
0.433044
0.426929
0.421068
0.415449
0.410054
0.404885
0.399908
0.395144
0.390535
0.386126
0.381833
0.377729
0.373704
0.369861
0.366062
0.362442
0.35884
0.355411
0.351983
0.348726
0.345461
0.342364
0.339255
0.336317
0.333361
0.330584
0.327781
0.325165
0.322514
0.320048
0.317546
0.315215
0.312869
0.310692
0.308504
0.306472
0.304407
0.302515
0.300586
0.298836
0.297033
0.295458
0.293761
0.292435
0.290869
0.289804
0.288447
0.28752
0.286365
0.285598
0.28485
0.284289
0.284137
0.284267
0.284373
0.285174
0.285819
0.287574
0.28876
0.29177
0.293606
0.297985
0.300686
0.306673
0.310491
0.318338
0.321874
0.338014
0.689208
0.678328
0.666462
0.653717
0.64044
0.626831
0.613154
0.599499
0.586073
0.572913
0.560181
0.547859
0.536064
0.524725
0.51393
0.503572
0.493728
0.484278
0.475302
0.466677
0.458492
0.450621
0.443157
0.43597
0.429158
0.422582
0.416347
0.410308
0.404577
0.399007
0.393718
0.388564
0.38367
0.378891
0.374357
0.369924
0.365722
0.361608
0.357709
0.353883
0.350254
0.346684
0.34329
0.339938
0.336742
0.333575
0.330543
0.327532
0.324641
0.321763
0.318995
0.316237
0.313583
0.310937
0.308392
0.305855
0.303419
0.30099
0.298663
0.296342
0.294125
0.291908
0.289795
0.28768
0.285665
0.283643
0.281721
0.279786
0.277943
0.276086
0.274308
0.272524
0.2708
0.269082
0.267411
0.265759
0.264148
0.262555
0.260987
0.259414
0.257874
0.256315
0.25481
0.253298
0.251845
0.250398
0.24901
0.247649
0.246323
0.245051
0.243827
0.242645
0.241556
0.240483
0.239475
0.238838
0.237659
0.237119
0.236853
0.23623
0.572937
0.566232
0.558721
0.550507
0.541842
0.532856
0.523745
0.514564
0.505463
0.49645
0.487644
0.479017
0.470663
0.462527
0.454694
0.44709
0.439798
0.43273
0.42597
0.419418
0.413164
0.407098
0.401315
0.395698
0.390349
0.385142
0.38019
0.375358
0.370767
0.366274
0.362009
0.35782
0.353847
0.349928
0.346213
0.342533
0.339048
0.335579
0.332297
0.329017
0.325917
0.322807
0.319874
0.316918
0.314138
0.311325
0.308687
0.306005
0.303497
0.300936
0.29855
0.296099
0.293824
0.291473
0.2893
0.287039
0.284959
0.28278
0.280786
0.27868
0.276766
0.274727
0.272888
0.270909
0.269142
0.267218
0.265518
0.263646
0.262009
0.260184
0.258607
0.256826
0.255306
0.253567
0.252102
0.2504
0.248989
0.247322
0.245964
0.244326
0.243021
0.24141
0.240157
0.238569
0.237369
0.235804
0.234655
0.233113
0.232016
0.230492
0.229451
0.227943
0.226959
0.225456
0.224535
0.223078
0.222207
0.220769
0.219823
0.218209
0.500539
0.495955
0.490755
0.485007
0.478891
0.472477
0.465915
0.459225
0.452532
0.445831
0.439234
0.432711
0.426357
0.420121
0.41409
0.408193
0.402515
0.396972
0.391648
0.386451
0.381469
0.376604
0.371945
0.367389
0.363032
0.358763
0.354685
0.35068
0.346859
0.343094
0.339508
0.335961
0.332587
0.329236
0.326051
0.322874
0.319857
0.316834
0.313968
0.311083
0.308353
0.305594
0.302991
0.30035
0.297868
0.295338
0.292973
0.29055
0.288297
0.285976
0.28383
0.281604
0.279557
0.277417
0.27546
0.273397
0.271523
0.269528
0.267727
0.265792
0.264059
0.262176
0.260507
0.258669
0.257059
0.255263
0.25371
0.251952
0.250453
0.248731
0.247283
0.245595
0.244195
0.242542
0.241188
0.239567
0.238259
0.236668
0.235407
0.233842
0.232628
0.231088
0.229921
0.228403
0.227283
0.225785
0.224713
0.223234
0.222208
0.220744
0.219768
0.218316
0.21739
0.215939
0.21507
0.213657
0.212825
0.211436
0.210515
0.208921
0.45482
0.451299
0.44732
0.44291
0.438214
0.433269
0.428202
0.423008
0.417797
0.412545
0.407352
0.402175
0.397105
0.392086
0.387203
0.382388
0.377725
0.373138
0.368712
0.364361
0.360173
0.356056
0.3521
0.348207
0.344473
0.340791
0.337264
0.333779
0.330444
0.327141
0.323984
0.320847
0.317854
0.314869
0.312027
0.309183
0.30648
0.303764
0.301189
0.298592
0.296135
0.293645
0.291297
0.288905
0.286657
0.284356
0.2822
0.279981
0.277911
0.275768
0.273778
0.271705
0.26979
0.267782
0.265938
0.263991
0.262213
0.260323
0.258609
0.256771
0.255118
0.253328
0.251733
0.249988
0.24845
0.246744
0.245261
0.243592
0.24216
0.240527
0.239144
0.237545
0.236206
0.234642
0.233345
0.231813
0.230556
0.229056
0.22784
0.226366
0.225192
0.223742
0.22261
0.22118
0.220091
0.21868
0.217633
0.216239
0.215235
0.213852
0.212896
0.211517
0.210614
0.209236
0.208369
0.207033
0.206153
0.204817
0.204226
0.202191
0.425101
0.422117
0.418808
0.41515
0.411272
0.407182
0.402991
0.398678
0.39434
0.389943
0.385583
0.38121
0.376914
0.372636
0.368463
0.364324
0.360307
0.356331
0.352486
0.348684
0.345017
0.34139
0.3379
0.334444
0.331124
0.327833
0.324676
0.321539
0.318535
0.315543
0.312682
0.309824
0.307096
0.304362
0.301757
0.299138
0.296648
0.294135
0.291752
0.289338
0.287056
0.284734
0.282546
0.280309
0.278209
0.276051
0.274033
0.271948
0.270006
0.267989
0.266117
0.264161
0.262356
0.260457
0.258714
0.256867
0.255184
0.253385
0.251759
0.250004
0.248433
0.246721
0.2452
0.24353
0.242057
0.240427
0.238999
0.237406
0.236022
0.234462
0.233124
0.231591
0.230301
0.228792
0.227549
0.226062
0.224865
0.223399
0.222244
0.220803
0.219684
0.21827
0.217184
0.215797
0.214744
0.213379
0.212363
0.211016
0.210038
0.208705
0.207768
0.206444
0.205553
0.204222
0.203404
0.202031
0.201316
0.199969
0.199105
0.19761
0.405018
0.402314
0.399373
0.396142
0.392738
0.389152
0.385486
0.381709
0.377912
0.374054
0.370224
0.36637
0.362579
0.358787
0.355082
0.35139
0.3478
0.34423
0.340773
0.337338
0.334021
0.330725
0.327551
0.324393
0.321358
0.318334
0.315434
0.312538
0.309765
0.30699
0.304339
0.301677
0.299139
0.296583
0.294151
0.291693
0.28936
0.286994
0.284753
0.282472
0.280318
0.278116
0.276043
0.273914
0.271918
0.269858
0.267934
0.265937
0.264082
0.262145
0.260354
0.258473
0.256743
0.254914
0.253242
0.251462
0.249846
0.24811
0.246548
0.244855
0.243343
0.24169
0.240227
0.238611
0.237194
0.235614
0.234241
0.232694
0.231365
0.229848
0.228562
0.227072
0.225829
0.224363
0.223163
0.221719
0.220561
0.219139
0.218019
0.21662
0.215536
0.214161
0.213109
0.211757
0.210738
0.209406
0.208422
0.207105
0.206158
0.204855
0.203946
0.202651
0.201786
0.200483
0.199688
0.198348
0.197645
0.196336
0.195491
0.194021
0.390862
0.388329
0.385602
0.382632
0.379521
0.376253
0.372921
0.369486
0.366037
0.362527
0.359042
0.355525
0.352064
0.348592
0.345197
0.341803
0.338501
0.335207
0.332014
0.328831
0.325756
0.32269
0.319736
0.316787
0.313952
0.311118
0.3084
0.305677
0.30307
0.300452
0.297951
0.295433
0.293032
0.290607
0.288301
0.285962
0.283745
0.281488
0.279354
0.277173
0.275117
0.273007
0.271025
0.268981
0.267068
0.265086
0.263239
0.261314
0.25953
0.257659
0.255934
0.254115
0.252446
0.250674
0.249059
0.247332
0.245768
0.244084
0.24257
0.240925
0.239458
0.23785
0.23643
0.234855
0.233482
0.231937
0.230609
0.229092
0.227808
0.226318
0.225074
0.223612
0.222405
0.220972
0.219798
0.218394
0.217253
0.215874
0.214768
0.213411
0.212342
0.211002
0.209971
0.208646
0.207653
0.206342
0.205386
0.204088
0.20317
0.20188
0.201004
0.199717
0.198888
0.197602
0.196803
0.195555
0.194738
0.193494
0.192941
0.191053
0.380501
0.378067
0.375472
0.372665
0.369745
0.366686
0.363575
0.360371
0.357157
0.353883
0.350636
0.347355
0.344125
0.34088
0.337706
0.334527
0.331432
0.328339
0.325339
0.322342
0.319445
0.316549
0.313758
0.310965
0.308279
0.305588
0.303005
0.300411
0.297927
0.295427
0.293038
0.290627
0.288328
0.286
0.283787
0.281537
0.279405
0.277229
0.275173
0.273067
0.271083
0.269041
0.267126
0.265145
0.263294
0.261371
0.259582
0.257712
0.255981
0.254162
0.252488
0.250715
0.249094
0.247366
0.245797
0.244111
0.24259
0.240943
0.23947
0.23786
0.236433
0.234858
0.233474
0.231931
0.230591
0.229078
0.22778
0.226295
0.225038
0.223579
0.222362
0.220927
0.219748
0.218337
0.217196
0.215807
0.214702
0.213334
0.212265
0.210916
0.209883
0.208551
0.207555
0.206238
0.205278
0.203975
0.20305
0.201759
0.200872
0.19959
0.19874
0.197467
0.196656
0.195379
0.194615
0.193364
0.192633
0.1914
0.190579
0.189178
0.372755
0.370371
0.367856
0.365157
0.362365
0.359449
0.356492
0.353449
0.350402
0.347297
0.344219
0.341106
0.338044
0.334963
0.331949
0.328925
0.325982
0.323034
0.320176
0.317314
0.314548
0.311778
0.309108
0.306431
0.303856
0.301271
0.29879
0.296294
0.293904
0.291494
0.289192
0.286862
0.284643
0.282391
0.280251
0.278071
0.276006
0.273894
0.2719
0.269852
0.267925
0.265938
0.264075
0.262145
0.260342
0.258465
0.256721
0.254894
0.253206
0.251426
0.249791
0.248056
0.246472
0.244779
0.243243
0.24159
0.240102
0.238486
0.237043
0.235462
0.234063
0.232515
0.231158
0.229641
0.228327
0.226838
0.225564
0.224103
0.222867
0.221431
0.220235
0.218822
0.217663
0.216273
0.21515
0.213781
0.212695
0.211344
0.210294
0.208961
0.207947
0.20663
0.205651
0.204349
0.203405
0.202117
0.201208
0.199932
0.199058
0.197791
0.196955
0.195696
0.194897
0.193635
0.192882
0.191646
0.190927
0.189706
0.1889
0.187513
0.366873
0.364515
0.362048
0.359418
0.356712
0.353894
0.351044
0.348114
0.345185
0.342201
0.339246
0.336255
0.333314
0.330352
0.327457
0.324548
0.321717
0.318879
0.316126
0.313366
0.310699
0.308024
0.305445
0.302856
0.300366
0.297861
0.295459
0.293037
0.290719
0.288377
0.286141
0.283875
0.281716
0.279522
0.277438
0.275312
0.273298
0.271236
0.269289
0.267288
0.265405
0.263461
0.261639
0.259748
0.257984
0.256144
0.254435
0.252643
0.250988
0.249241
0.247636
0.245931
0.244376
0.242711
0.241203
0.239576
0.238113
0.236522
0.235103
0.233546
0.23217
0.230644
0.229309
0.227813
0.226518
0.22505
0.223794
0.222353
0.221134
0.219718
0.218537
0.217144
0.215999
0.214627
0.213518
0.212167
0.211094
0.20976
0.208723
0.207406
0.206404
0.205103
0.204136
0.202849
0.201916
0.200642
0.199744
0.198482
0.197619
0.196366
0.195537
0.194293
0.193498
0.192267
0.191502
0.190263
0.189554
0.188297
0.187747
0.185924
0.362317
0.35997
0.357529
0.354943
0.352295
0.349545
0.346771
0.343922
0.341077
0.338181
0.335315
0.332414
0.329564
0.326691
0.323883
0.321061
0.318316
0.31556
0.312887
0.310206
0.307615
0.305013
0.302505
0.299985
0.297561
0.295121
0.29278
0.290417
0.288157
0.28587
0.283687
0.281472
0.279362
0.277215
0.275177
0.273094
0.271123
0.269101
0.267193
0.265229
0.263382
0.261472
0.259684
0.257825
0.256092
0.254282
0.252602
0.250837
0.249209
0.247487
0.245907
0.244226
0.242694
0.241051
0.239565
0.237959
0.236516
0.234944
0.233545
0.232005
0.230647
0.229138
0.22782
0.22634
0.225062
0.223608
0.222368
0.22094
0.219737
0.218334
0.217166
0.215786
0.214653
0.213295
0.212197
0.210859
0.209796
0.208475
0.207447
0.206143
0.20515
0.203861
0.202902
0.201626
0.200702
0.199439
0.198549
0.197297
0.196441
0.195199
0.194377
0.193144
0.192354
0.191134
0.190374
0.189146
0.188441
0.187196
0.18665
0.184839
0.358718
0.35637
0.353941
0.351383
0.348774
0.346073
0.343353
0.340564
0.337784
0.334955
0.332158
0.329328
0.326548
0.323747
0.321009
0.318257
0.315579
0.31289
0.310283
0.307666
0.305135
0.302594
0.300143
0.297679
0.295308
0.29292
0.290628
0.288314
0.286098
0.283855
0.281714
0.279539
0.277468
0.275357
0.273354
0.271305
0.269366
0.267374
0.265496
0.26356
0.261741
0.259856
0.258092
0.256257
0.254547
0.252757
0.251099
0.249353
0.247745
0.24604
0.244479
0.242815
0.2413
0.239672
0.238202
0.236609
0.235182
0.233623
0.232238
0.23071
0.229366
0.227868
0.226563
0.225094
0.223828
0.222384
0.221156
0.219738
0.218546
0.217151
0.215995
0.214623
0.213502
0.212151
0.211065
0.209733
0.208681
0.207368
0.206351
0.205053
0.20407
0.202788
0.201839
0.20057
0.199655
0.198399
0.197517
0.196273
0.195425
0.19419
0.193375
0.192149
0.191367
0.190154
0.189401
0.18818
0.18748
0.186243
0.185702
0.183902
0.35595
0.353591
0.351163
0.34862
0.346036
0.343368
0.340687
0.337944
0.335211
0.332434
0.329688
0.326913
0.324186
0.32144
0.318755
0.316057
0.31343
0.310792
0.308232
0.305662
0.303176
0.300678
0.298267
0.295842
0.293507
0.291155
0.288895
0.286613
0.284425
0.282211
0.280094
0.277945
0.275896
0.273809
0.271825
0.269796
0.267875
0.265902
0.264041
0.262121
0.260317
0.258447
0.256698
0.254876
0.253179
0.251403
0.249757
0.248024
0.246426
0.244734
0.243184
0.241531
0.240026
0.238409
0.236949
0.235367
0.23395
0.232401
0.231025
0.229509
0.228173
0.226686
0.22539
0.223931
0.222673
0.22124
0.220019
0.218612
0.217428
0.216044
0.214895
0.213533
0.21242
0.211078
0.21
0.208678
0.207634
0.206329
0.20532
0.20403
0.203056
0.201781
0.20084
0.199579
0.198672
0.197423
0.196549
0.195312
0.194471
0.193244
0.192436
0.191217
0.190442
0.189236
0.18849
0.187275
0.186583
0.185352
0.184814
0.18303
0.353907
0.351529
0.349091
0.346551
0.343977
0.341327
0.338668
0.335952
0.333248
0.330502
0.327788
0.325045
0.32235
0.319634
0.316977
0.314306
0.311703
0.309088
0.306549
0.303998
0.301529
0.299046
0.296648
0.294235
0.29191
0.289567
0.287314
0.28504
0.282858
0.280652
0.27854
0.276398
0.274355
0.272276
0.270298
0.268279
0.266364
0.264402
0.262548
0.26064
0.258844
0.256987
0.255245
0.253435
0.251746
0.249982
0.248344
0.246624
0.245035
0.243357
0.241816
0.240177
0.238683
0.237082
0.235633
0.234066
0.232661
0.231127
0.229764
0.228262
0.226939
0.225468
0.224184
0.22274
0.221495
0.220078
0.218869
0.217477
0.216305
0.214936
0.213799
0.212452
0.211351
0.210023
0.208957
0.207647
0.206616
0.205323
0.204326
0.203049
0.202086
0.200823
0.199893
0.198644
0.197747
0.19651
0.195646
0.19442
0.193589
0.192372
0.191574
0.190365
0.189598
0.188403
0.187663
0.186461
0.185773
0.184555
0.184021
0.18225
0.352297
0.349899
0.347448
0.344903
0.34233
0.339683
0.337027
0.334314
0.33161
0.328862
0.326141
0.323389
0.320679
0.317948
0.315272
0.312582
0.309958
0.307326
0.304766
0.302201
0.299712
0.297206
0.294786
0.292352
0.29001
0.287654
0.285394
0.283117
0.280938
0.278738
0.276638
0.274513
0.272488
0.270433
0.268479
0.266489
0.264602
0.262673
0.260849
0.258977
0.257212
0.255393
0.253685
0.251916
0.250263
0.24854
0.246937
0.245257
0.243702
0.242062
0.240552
0.23895
0.237484
0.235917
0.234493
0.232959
0.231576
0.230074
0.22873
0.227257
0.225952
0.224507
0.223239
0.221821
0.220589
0.219196
0.217999
0.21663
0.215467
0.21412
0.212992
0.211665
0.210572
0.209262
0.208205
0.206911
0.205889
0.204609
0.203622
0.202357
0.201401
0.200153
0.199227
0.197994
0.197098
0.195878
0.195015
0.193805
0.192974
0.191773
0.190975
0.189781
0.189017
0.187831
0.1871
0.1859
0.185226
0.18401
0.183482
0.181736
0.351058
0.348598
0.346071
0.343468
0.340818
0.338071
0.335305
0.332467
0.329639
0.326766
0.323932
0.321074
0.318278
0.315471
0.312745
0.310015
0.307377
0.304739
0.302197
0.299655
0.297218
0.294787
0.292456
0.290123
0.287889
0.285643
0.283494
0.281326
0.279254
0.277156
0.275153
0.273119
0.271181
0.269206
0.267327
0.265406
0.263583
0.261714
0.259943
0.258121
0.256401
0.254625
0.252953
0.251219
0.249594
0.2479
0.246321
0.244665
0.243129
0.24151
0.240017
0.238433
0.23698
0.23543
0.234017
0.232498
0.231124
0.229635
0.228299
0.226839
0.22554
0.224106
0.222845
0.221436
0.220211
0.218825
0.217635
0.216272
0.215116
0.213776
0.212652
0.211333
0.210242
0.208943
0.207883
0.206602
0.205575
0.204311
0.203316
0.202068
0.201103
0.199872
0.198936
0.197721
0.196814
0.195613
0.194736
0.193547
0.192701
0.191522
0.190709
0.189534
0.188759
0.187578
0.18686
0.185647
0.185009
0.183822
0.183057
0.181722
0.347446
0.344779
0.342128
0.339404
0.336711
0.333995
0.331318
0.328622
0.325974
0.323312
0.320708
0.318092
0.315542
0.312983
0.310494
0.307996
0.305573
0.30314
0.300785
0.298418
0.29613
0.293828
0.291608
0.289369
0.287215
0.285038
0.282948
0.280831
0.278802
0.276741
0.274771
0.272765
0.270852
0.268898
0.267038
0.265134
0.263326
0.26147
0.259711
0.257901
0.25619
0.254423
0.25276
0.251034
0.249416
0.247729
0.246155
0.244505
0.242975
0.241361
0.239872
0.238292
0.236844
0.235297
0.233887
0.232373
0.231001
0.229516
0.228182
0.226726
0.225429
0.223998
0.222739
0.221331
0.22011
0.218723
0.21754
0.216174
0.215024
0.213681
0.212563
0.211243
0.210153
0.208857
0.207794
0.206522
0.205485
0.204235
0.203227
0.201994
0.201018
0.199797
0.198855
0.197646
0.196736
0.195538
0.19466
0.193473
0.192628
0.191446
0.190639
0.189458
0.188692
0.187511
0.186771
0.185625
0.184869
0.183724
0.183214
0.181469
0.508263
0.517648
0.543624
0.575198
0.598757
0.66241
0.726998
0.850969
1.04105
1.80274
0.464105
0.478824
0.48774
0.517289
0.533255
0.580558
0.613178
0.698374
0.778776
1.23172
0.440181
0.449848
0.45494
0.473324
0.484035
0.51786
0.538616
0.59836
0.640942
0.892377
0.424985
0.431087
0.434031
0.445192
0.451673
0.473113
0.486549
0.52694
0.55323
0.694382
0.41323
0.417338
0.419189
0.426439
0.430391
0.443595
0.451858
0.477317
0.493929
0.57567
0.403555
0.406271
0.407411
0.412396
0.414913
0.423504
0.428576
0.444308
0.454505
0.502425
0.396082
0.397494
0.398142
0.401338
0.402953
0.408637
0.411848
0.421802
0.428025
0.456286
0.390296
0.390775
0.391045
0.392854
0.393814
0.397398
0.39941
0.405733
0.409556
0.426344
0.38539
0.385324
0.38529
0.386151
0.386618
0.388736
0.389922
0.393853
0.39617
0.406313
0.381584
0.381027
0.380653
0.38078
0.380869
0.3819
0.382495
0.384771
0.386101
0.392343
0.378553
0.377657
0.376947
0.376518
0.376313
0.376507
0.376659
0.377717
0.378356
0.382163
0.376073
0.374997
0.373976
0.373255
0.372613
0.372256
0.372077
0.372232
0.372379
0.374511
0.374121
0.372748
0.371639
0.370552
0.369734
0.368932
0.368381
0.367934
0.367685
0.368635
0.372489
0.371012
0.369658
0.368477
0.367288
0.366402
0.365322
0.364759
0.363711
0.364096
0.371167
0.369703
0.368063
0.366876
0.365344
0.364397
0.362938
0.362202
0.360583
0.360523
0.370118
0.368718
0.366819
0.365657
0.363848
0.362859
0.36111
0.360239
0.358471
0.357789
0.369298
0.367908
0.365866
0.364654
0.362727
0.361609
0.359763
0.358675
0.356898
0.355786
0.368728
0.367179
0.365177
0.363759
0.361887
0.360523
0.358731
0.357362
0.355614
0.354213
0.368404
0.366718
0.364732
0.363158
0.361291
0.359761
0.357954
0.356418
0.354625
0.353057
0.367033
0.365019
0.362916
0.361021
0.359014
0.357189
0.355225
0.353428
0.351466
0.349666
0.497865
0.534816
0.59453
0.691291
0.835457
1.10596
1.75674
4.43271
20.4097
12.7988
0.498982
0.535938
0.598256
0.69021
0.853819
1.15448
1.8811
4.78041
21.0905
12.5977
0.501137
0.536789
0.600736
0.709908
0.861097
1.15046
1.86323
4.80026
21.1728
12.3198
0.500411
0.535356
0.597707