/*--------------------------------*- C++ -*----------------------------------*\
  =========                 |
  \\      /  F ield         | OpenFOAM: The Open Source CFD Toolbox
   \\    /   O peration     | Website:  https://openfoam.org
    \\  /    A nd           | Version:  8
     \\/     M anipulation  |
\*---------------------------------------------------------------------------*/
FoamFile
{
    version     2.0;
    format      ascii;
    class       volScalarField;
    location    "2.50002999";
    object      nut;
}
// * * * * * * * * * * * * * * * * * * * * * * * * * * * * * * * * * * * * * //

dimensions      [0 2 -1 0 0 0 0];

internalField   nonuniform List<scalar> 
6800
(
0.0100854
0.0262233
0.0343394
0.0391135
0.0452571
0.0507754
0.0459963
0.0380448
0.0229749
0.0172905
0.00794101
0.0262786
0.0363159
0.0407324
0.0501409
0.0480717
0.0343093
0.0211261
0.0153974
0.0141683
0.00983678
0.0296638
0.0377447
0.0454378
0.0517699
0.0342384
0.0203303
0.0153391
0.0136964
0.0120064
0.0106563
0.0329581
0.0407043
0.0488034
0.0400966
0.0242941
0.0187663
0.0152861
0.0121442
0.0109396
0.0112646
0.0352424
0.0423166
0.0491292
0.0298657
0.0201779
0.0140419
0.0117256
0.0106733
0.00993371
0.0116565
0.0389629
0.045157
0.042059
0.024673
0.0159516
0.0141191
0.0128063
0.0109361
0.00963288
0.0117958
0.0418489
0.0472631
0.0337166
0.0182504
0.0150653
0.0123435
0.0102859
0.00918649
0.00861913
0.0123742
0.046138
0.0465966
0.0243461
0.018207
0.0143264
0.0123795
0.0110019
0.00972141
0.00899454
0.0129928
0.0503575
0.0410588
0.0236792
0.0154686
0.0129925
0.0108537
0.00932501
0.00859299
0.00813614
0.0136818
0.0554134
0.038241
0.0194495
0.0160491
0.0128613
0.0113472
0.00991862
0.00896567
0.00838835
0.0584839
0.249782
0.345293
0.371868
0.379376
0.380407
0.384189
0.389957
0.396365
0.399199
0.0561285
0.24076
0.333914
0.361081
0.365683
0.363474
0.363577
0.365847
0.368746
0.371168
0.0518842
0.221555
0.310544
0.339845
0.341427
0.336981
0.334093
0.331406
0.327856
0.327686
0.0468488
0.199576
0.282879
0.310485
0.309255
0.303608
0.294084
0.287543
0.275125
0.260259
0.0415665
0.177769
0.254037
0.270756
0.264338
0.252745
0.237782
0.221955
0.195841
0.157787
0.0369937
0.158771
0.215388
0.216738
0.202063
0.186956
0.160505
0.119796
0.0975287
0.0702922
0.0331055
0.134522
0.167386
0.150404
0.1317
0.0936795
0.0684306
0.0577915
0.0569253
0.0494481
0.0311739
0.106118
0.0977596
0.0799095
0.0548152
0.0503018
0.0500696
0.0484097
0.0487272
0.0445093
0.0269283
0.056187
0.0443848
0.0430486
0.0429674
0.0456293
0.0478001
0.047376
0.045991
0.0400069
0.0196355
0.0297065
0.0338742
0.0383931
0.0424405
0.0468667
0.048848
0.0446055
0.0427834
0.0266774
0.401118
0.402098
0.399491
0.396171
0.393005
0.390219
0.38781
0.385809
0.384213
0.382946
0.381946
0.381127
0.380432
0.379841
0.379299
0.378811
0.378362
0.377969
0.377617
0.377291
0.376979
0.376669
0.376354
0.376029
0.375693
0.375345
0.374989
0.374626
0.374262
0.373896
0.373537
0.373189
0.372854
0.372533
0.372223
0.371921
0.371626
0.371334
0.371043
0.37075
0.370457
0.370166
0.369878
0.369594
0.369317
0.369048
0.368789
0.368544
0.368314
0.368102
0.367907
0.367733
0.367577
0.367441
0.367322
0.367219
0.367127
0.367043
0.366962
0.36688
0.366793
0.366694
0.366581
0.366451
0.366301
0.36613
0.365937
0.365724
0.365491
0.36524
0.364973
0.364693
0.364404
0.364107
0.363807
0.363507
0.36321
0.362919
0.362638
0.362368
0.362112
0.361872
0.361649
0.361447
0.361261
0.3611
0.360952
0.360835
0.360723
0.360654
0.360569
0.360553
0.360481
0.360527
0.360457
0.360569
0.36046
0.360701
0.360212
0.361134
0.373497
0.374454
0.372938
0.370543
0.368204
0.366197
0.364578
0.363367
0.362488
0.361885
0.361504
0.361238
0.361042
0.360939
0.360823
0.36077
0.360769
0.36081
0.360876
0.360952
0.361025
0.361084
0.361123
0.361137
0.361126
0.361091
0.361038
0.360967
0.360889
0.360796
0.360713
0.360643
0.360583
0.360528
0.360476
0.360423
0.360365
0.3603
0.360226
0.36014
0.360054
0.359967
0.359877
0.359783
0.359689
0.359596
0.359508
0.359428
0.359359
0.359303
0.359261
0.359235
0.359225
0.359232
0.359253
0.359282
0.359318
0.359355
0.359392
0.359421
0.359437
0.359438
0.35942
0.359381
0.359319
0.359235
0.359127
0.358997
0.358846
0.358676
0.35849
0.358291
0.358082
0.357865
0.357645
0.357424
0.357206
0.356994
0.35679
0.356598
0.356419
0.356257
0.356109
0.355983
0.355871
0.355783
0.355708
0.355664
0.355622
0.355625
0.355608
0.355663
0.355655
0.355773
0.355762
0.355945
0.35589
0.35621
0.355756
0.35677
0.333319
0.332125
0.330083
0.327661
0.325599
0.324134
0.323234
0.322819
0.322744
0.322929
0.323316
0.323896
0.324639
0.325512
0.326596
0.327754
0.328925
0.330083
0.331206
0.332279
0.33329
0.33423
0.335097
0.335892
0.336619
0.337286
0.337901
0.33847
0.339006
0.339496
0.340016
0.340531
0.341023
0.341489
0.341925
0.342332
0.342708
0.343053
0.343368
0.343655
0.343907
0.344127
0.344324
0.344504
0.344672
0.344834
0.344993
0.345154
0.345319
0.345491
0.345672
0.345864
0.346064
0.346277
0.346488
0.346695
0.346898
0.347096
0.347287
0.347457
0.347605
0.347731
0.347835
0.347916
0.347973
0.348008
0.348021
0.348012
0.347985
0.347941
0.347883
0.347812
0.347733
0.347646
0.347556
0.347465
0.347376
0.347293
0.347217
0.347152
0.347098
0.347059
0.347034
0.347027
0.347032
0.347062
0.3471
0.347171
0.347237
0.34735
0.347434
0.347597
0.347683
0.347905
0.34798
0.348268
0.348282
0.348715
0.348307
0.349486
0.26336
0.265221
0.267718
0.269107
0.270713
0.272568
0.274615
0.276736
0.278893
0.281053
0.283209
0.28535
0.287491
0.289595
0.291636
0.293646
0.295608
0.297523
0.299365
0.301121
0.302773
0.304317
0.305752
0.307088
0.308332
0.309499
0.310599
0.311644
0.31264
0.313601
0.314449
0.315223
0.315946
0.316632
0.317288
0.317914
0.318514
0.319085
0.31963
0.320149
0.320645
0.321119
0.321574
0.322016
0.322448
0.322877
0.323306
0.32374
0.324179
0.324627
0.325085
0.325553
0.326032
0.326515
0.327012
0.327515
0.328016
0.328511
0.328985
0.329455
0.329909
0.330339
0.33074
0.331111
0.331452
0.331762
0.332041
0.332296
0.332533
0.332748
0.332943
0.333118
0.333278
0.333426
0.333564
0.333697
0.333828
0.33396
0.334096
0.334238
0.334388
0.334549
0.334717
0.334901
0.335091
0.3353
0.335507
0.335743
0.335964
0.336233
0.336462
0.336776
0.336995
0.337362
0.337558
0.337984
0.338111
0.338684
0.33833
0.339724
0.156634
0.159889
0.163501
0.168247
0.173724
0.179579
0.185374
0.190724
0.195784
0.200598
0.205226
0.209677
0.214003
0.218222
0.222331
0.226341
0.230205
0.233957
0.237522
0.240902
0.244064
0.247027
0.249806
0.252426
0.254904
0.257269
0.259532
0.261717
0.263823
0.265873
0.267892
0.269845
0.271741
0.273581
0.275362
0.277076
0.278728
0.280311
0.281831
0.283287
0.284685
0.286028
0.287321
0.288572
0.289786
0.290972
0.292136
0.293282
0.294413
0.295533
0.296642
0.29774
0.298828
0.299901
0.300958
0.301991
0.302999
0.30397
0.304906
0.305792
0.306627
0.307416
0.308161
0.308866
0.309535
0.310163
0.310759
0.311309
0.311814
0.31228
0.312715
0.313125
0.313516
0.313893
0.314261
0.314626
0.314989
0.315355
0.315725
0.316103
0.316487
0.316883
0.317284
0.317699
0.318116
0.318552
0.318979
0.319438
0.319871
0.320357
0.320786
0.32131
0.321717
0.322291
0.32267
0.323305
0.323595
0.324387
0.324152
0.325842
0.0720831
0.0760955
0.0798654
0.08446
0.0886326
0.092435
0.0964027
0.100723
0.105511
0.110495
0.115672
0.120902
0.12628
0.131741
0.137269
0.142786
0.148138
0.153427
0.158303
0.162893
0.167105
0.171133
0.174978
0.178696
0.182301
0.185821
0.189258
0.192633
0.195942
0.199191
0.202414
0.205508
0.208581
0.211621
0.214573
0.217446
0.220253
0.222967
0.225611
0.228159
0.230623
0.232995
0.235288
0.23752
0.239697
0.241835
0.243942
0.246022
0.248076
0.250103
0.252105
0.254079
0.256026
0.257935
0.259808
0.261628
0.2634
0.265105
0.266749
0.268326
0.269817
0.27125
0.272623
0.273947
0.275217
0.276424
0.277575
0.278675
0.27973
0.280741
0.281714
0.282656
0.28357
0.284465
0.285343
0.286211
0.28707
0.287925
0.288775
0.289625
0.290471
0.29132
0.292161
0.293008
0.293841
0.294686
0.295506
0.296352
0.297152
0.298006
0.298779
0.299657
0.300371
0.301273
0.30193
0.302878
0.303427
0.304521
0.304496
0.306556
0.0504468
0.0516101
0.0526733
0.053821
0.0550334
0.0562552
0.0575413
0.0587879
0.0602953
0.0617734
0.0634294
0.065209
0.0672107
0.0694993
0.0719931
0.0744189
0.0769387
0.0794697
0.0821435
0.0851677
0.088227
0.0914231
0.0946399
0.0979779
0.101447
0.10496
0.108533
0.112169
0.115888
0.119659
0.123492
0.127341
0.131211
0.135068
0.138923
0.142726
0.146509
0.150214
0.153882
0.157331
0.160658
0.163804
0.166938
0.170067
0.173147
0.17628
0.179406
0.182521
0.185623
0.188702
0.191759
0.194783
0.197774
0.200712
0.2036
0.206408
0.209148
0.211788
0.21434
0.2168
0.219109
0.221375
0.223566
0.225716
0.227752
0.229659
0.23152
0.233297
0.235015
0.236678
0.238299
0.239889
0.241453
0.242997
0.244521
0.246033
0.24753
0.249018
0.25049
0.251956
0.253403
0.254844
0.256261
0.257673
0.259052
0.260433
0.261766
0.263125
0.264408
0.265757
0.266962
0.268272
0.269388
0.270719
0.271731
0.273078
0.273959
0.275512
0.27581
0.278348
0.0447871
0.0448556
0.0447703
0.0446385
0.0444503
0.0442355
0.0439965
0.0437845
0.0436111
0.0434553
0.0433657
0.0432241
0.0429432
0.042613
0.0423002
0.0420581
0.0420716
0.0419743
0.0419855
0.0419507
0.0421496
0.0422714
0.0427054
0.0433307
0.0440152
0.044722
0.0456069
0.0467982
0.0481784
0.0497003
0.0514363
0.053344
0.05541
0.0576235
0.0599889
0.0625085
0.0651392
0.06791
0.0707826
0.0739373
0.0773054
0.0809419
0.0846868
0.088546
0.0925108
0.0965632
0.100694
0.104872
0.109082
0.113288
0.117486
0.121646
0.125764
0.129809
0.133775
0.137635
0.141391
0.145019
0.148439
0.151704
0.154761
0.157717
0.160607
0.163412
0.166222
0.168856
0.171604
0.174072
0.176572
0.179023
0.181486
0.183923
0.186328
0.188709
0.191057
0.193384
0.195678
0.197955
0.200192
0.20241
0.20458
0.206729
0.208825
0.210905
0.212921
0.214937
0.216871
0.218827
0.220679
0.222653
0.224183
0.225855
0.227405
0.229353
0.230628
0.23268
0.233742
0.236194
0.236987
0.240087
0.0393382
0.0385602
0.0376701
0.0369267
0.0360445
0.0350524
0.0340206
0.0329683
0.0319581
0.0309698
0.0300605
0.0291853
0.0283893
0.0276525
0.0267776
0.0259299
0.0249209
0.0240452
0.0233212
0.0226707
0.0221368
0.0216546
0.021267
0.0209214
0.0206884
0.0204794
0.0203672
0.02027
0.0202978
0.0203376
0.0205858
0.0207812
0.0209567
0.0213199
0.021722
0.0222841
0.0228508
0.0235314
0.024268
0.025136
0.0261082
0.0272247
0.0284957
0.0299208
0.0315126
0.0332838
0.0352293
0.0373252
0.0396022
0.0420545
0.0447046
0.0474992
0.0504607
0.0535275
0.0567193
0.0599751
0.0633052
0.066669
0.0701594
0.0737148
0.0773554
0.0809967
0.084616
0.0882203
0.091817
0.0953751
0.0989258
0.10244
0.105904
0.109334
0.112712
0.116064
0.119362
0.122632
0.125848
0.129033
0.132167
0.135264
0.138235
0.141178
0.143993
0.146809
0.149533
0.152277
0.154911
0.157592
0.160134
0.162759
0.165212
0.167795
0.170153
0.172661
0.174846
0.177547
0.179684
0.182342
0.184063
0.186943
0.188342
0.191855
0.0259147
0.0248906
0.0238412
0.0225174
0.0213579
0.0203504
0.0194716
0.0187
0.0180213
0.017421
0.0168895
0.0164179
0.015997
0.0156267
0.0152886
0.0149759
0.0146805
0.014391
0.0141212
0.0138599
0.0136215
0.0133921
0.0131867
0.0129915
0.0128208
0.0126594
0.0125225
0.012392
0.0122827
0.0121815
0.012107
0.0120331
0.011997
0.011943
0.0119454
0.0119261
0.0119141
0.0119549
0.0119196
0.0120191
0.012089
0.0122505
0.0122188
0.0124411
0.0124185
0.0126782
0.0129054
0.0132335
0.0135018
0.0139736
0.0145117
0.0151418
0.0158167
0.0165961
0.017419
0.0183621
0.0193407
0.0204474
0.021577
0.0228474
0.024137
0.0255855
0.0270543
0.0286975
0.0303672
0.0322308
0.0341239
0.0362271
0.0383538
0.0406966
0.0430526
0.0456241
0.0481942
0.0509757
0.0537346
0.0566993
0.0596127
0.0627294
0.0658462
0.0691614
0.0724307
0.0758764
0.0791631
0.0826314
0.0858816
0.0893357
0.0925044
0.0959232
0.0989787
0.102357
0.105266
0.108611
0.111343
0.114679
0.117227
0.120576
0.12286
0.126302
0.127775
0.132692
0.0140413
0.0140786
0.0139964
0.0138427
0.0136341
0.0133882
0.013122
0.0128488
0.0125797
0.0123217
0.01208
0.0118564
0.0116523
0.0114662
0.0112977
0.0111434
0.011003
0.0108721
0.0107517
0.010638
0.0105325
0.0104324
0.0103393
0.0102514
0.0101693
0.010093
0.0100209
0.00995518
0.00989222
0.00983521
0.0097811
0.0097306
0.00968477
0.0096409
0.00960175
0.00956554
0.00952967
0.00950137
0.00946977
0.00944693
0.00942489
0.0094124
0.00939355
0.00939287
0.00937167
0.00938527
0.00936585
0.00939586
0.0093701
0.00943097
0.00940144
0.00945399
0.00950106
0.00957621
0.00962382
0.00971347
0.00977156
0.00988598
0.00995993
0.0101109
0.0102029
0.0103932
0.0105155
0.0107538
0.0109188
0.0112214
0.0114567
0.0118455
0.0121406
0.0126362
0.013037
0.0136638
0.0141868
0.0149691
0.0156377
0.016612
0.0174484
0.0186274
0.0196253
0.0210168
0.022192
0.0238304
0.0252025
0.0271034
0.0286668
0.0308259
0.0325586
0.0349675
0.0368406
0.0394894
0.0414662
0.0443412
0.0463846
0.04945
0.0515277
0.0547954
0.0568566
0.0604113
0.0620805
0.067272
0.0114369
0.0113581
0.0112336
0.011098
0.0109567
0.0108125
0.0106695
0.0105297
0.0103961
0.0102698
0.0101523
0.0100432
0.00994305
0.00985038
0.0097652
0.00968577
0.00961217
0.00954285
0.00947811
0.00941675
0.0093591
0.0093043
0.00925251
0.00920319
0.00915612
0.00911128
0.00906786
0.0090265
0.00898593
0.0089475
0.00890928
0.00887332
0.00883729
0.0088038
0.00876998
0.00873914
0.00870755
0.00867978
0.00865064
0.00862668
0.00860092
0.00858172
0.00855975
0.00854505
0.00852715
0.00851689
0.00850241
0.00849235
0.00848329
0.00847897
0.00847061
0.00846204
0.00846176
0.00845642
0.00846002
0.00845516
0.00845325
0.00845139
0.0084396
0.00844322
0.00842499
0.0084294
0.00841484
0.0084129
0.00839514
0.00842008
0.0084125
0.00839444
0.00841344
0.00844248
0.00847348
0.00850333
0.00854698
0.0085704
0.00864892
0.00873767
0.0088171
0.0089729
0.00904937
0.00917839
0.00928652
0.00949361
0.00959805
0.00992042
0.0100971
0.0105034
0.0107372
0.0112458
0.011539
0.0121791
0.0125431
0.0133416
0.01379
0.014739
0.0152995
0.0164768
0.0171545
0.0185135
0.019144
0.0215013
0.00994974
0.00991515
0.00987273
0.00982224
0.0097666
0.00970678
0.00964544
0.0095828
0.00952098
0.00945949
0.00939983
0.00934092
0.00928394
0.00922761
0.00917311
0.00911924
0.00906731
0.00901619
0.0089672
0.00891914
0.00887319
0.00882807
0.00878484
0.00874219
0.0087012
0.00866068
0.00862172
0.00858338
0.00854668
0.00851091
0.00847689
0.00844415
0.00841312
0.0083836
0.00835555
0.00832905
0.00830363
0.00827965
0.00825625
0.00823422
0.0082122
0.00819162
0.00817053
0.0081511
0.00813077
0.00811241
0.00809293
0.00807568
0.00805731
0.0080411
0.00802411
0.00800904
0.00799359
0.00797968
0.00796571
0.00795312
0.00794046
0.00792904
0.00791758
0.00790697
0.00789398
0.00788207
0.00786878
0.00785527
0.00784349
0.00783047
0.00782144
0.00780978
0.00780237
0.00779265
0.00778795
0.00777947
0.00777646
0.00777024
0.00776769
0.00776623
0.00776487
0.00776799
0.00776776
0.00776906
0.00777269
0.00777624
0.00778943
0.00779055
0.00781999
0.00784015
0.00784669
0.00788288
0.00790226
0.00794856
0.00797096
0.008034
0.00806459
0.00814383
0.00818483
0.00829429
0.00836524
0.00850443
0.00856769
0.00886817
0.00904192
0.00902132
0.00899484
0.00896191
0.00892508
0.00888418
0.00884099
0.00879441
0.00874618
0.00869517
0.00864364
0.00859051
0.00853835
0.00848586
0.00843556
0.00838576
0.00833882
0.00829261
0.00824942
0.00820681
0.0081671
0.00812772
0.00809111
0.00805462
0.00802087
0.00798715
0.00795627
0.00792542
0.00789755
0.00786971
0.00784495
0.00782017
0.00779847
0.0077766
0.00775765
0.0077383
0.00772157
0.00770418
0.00768902
0.00767298
0.00765877
0.00764355
0.00762984
0.00761513
0.00760174
0.00758747
0.00757445
0.00756075
0.0075483
0.00753537
0.0075237
0.00751178
0.00750106
0.00749026
0.00748058
0.00747091
0.00746222
0.00745361
0.00744586
0.00743794
0.00743064
0.00742298
0.00741561
0.00740798
0.00740025
0.0073926
0.0073847
0.00737737
0.00736944
0.00736283
0.00735512
0.00734968
0.00734241
0.00733837
0.00733159
0.00732926
0.00732322
0.00732161
0.00731549
0.00731397
0.0073089
0.00730835
0.00730355
0.0073048
0.00729972
0.00730173
0.00729702
0.00730229
0.0072988
0.00730756
0.00730621
0.00731685
0.00731619
0.00732792
0.00731971
0.00735177
0.00733136
0.00735425
0.00737423
0.00738902
0.00835661
0.00834957
0.00833526
0.00831463
0.00828976
0.00826051
0.00822884
0.00819426
0.00815874
0.00812161
0.00808482
0.00804731
0.00801094
0.00797427
0.00793914
0.00790382
0.00787026
0.00783653
0.00780476
0.00777284
0.00774308
0.00771316
0.00768558
0.00765777
0.00763241
0.00760669
0.00758347
0.00755971
0.00753845
0.00751646
0.00749696
0.00747654
0.00745862
0.00743959
0.00742311
0.00740538
0.00739024
0.00737376
0.00735994
0.00734468
0.00733216
0.00731812
0.00730685
0.00729395
0.00728384
0.00727196
0.00726287
0.00725184
0.00724359
0.00723322
0.00722563
0.00721575
0.00720868
0.00719917
0.00719252
0.00718331
0.00717705
0.00716813
0.00716226
0.00715366
0.00714821
0.00713997
0.00713496
0.00712707
0.00712251
0.00711497
0.00711084
0.0071036
0.00709988
0.00709288
0.00708954
0.00708275
0.00707972
0.0070731
0.00707036
0.00706387
0.00706139
0.00705499
0.00705277
0.00704637
0.00704446
0.00703807
0.00703646
0.0070301
0.00702875
0.00702249
0.00702134
0.00701527
0.00701443
0.0070085
0.00700809
0.00700226
0.00700231
0.00699619
0.0069967
0.00699258
0.00699414
0.00699005
0.0069694
0.00699863
0.00784285
0.00784251
0.0078355
0.00782324
0.00780765
0.00778837
0.00776718
0.00774329
0.00771845
0.00769172
0.00766497
0.00763705
0.00760985
0.00758199
0.00755538
0.00752838
0.00750294
0.00747722
0.00745324
0.00742901
0.00740668
0.00738409
0.00736353
0.00734267
0.00732394
0.00730479
0.00728779
0.00727017
0.00725467
0.00723829
0.00722396
0.0072085
0.00719504
0.00718023
0.00716743
0.00715314
0.00714094
0.00712717
0.0071156
0.00710242
0.00709157
0.00707908
0.00706907
0.00705733
0.00704822
0.00703726
0.00702906
0.00701885
0.00701151
0.00700196
0.0069954
0.00698642
0.00698053
0.00697201
0.00696668
0.00695855
0.0069537
0.00694588
0.00694148
0.00693392
0.00692996
0.00692259
0.00691909
0.00691185
0.00690879
0.00690164
0.00689899
0.0068919
0.00688957
0.00688254
0.00688043
0.00687351
0.00687149
0.0068647
0.00686272
0.00685605
0.0068541
0.00684751
0.00684564
0.00683906
0.00683735
0.00683077
0.00682927
0.00682268
0.0068214
0.00681482
0.00681376
0.00680723
0.00680645
0.00679994
0.00679952
0.00679299
0.00679306
0.00678609
0.00678707
0.00678151
0.00678108
0.00677655
0.00677468
0.00676818
0.0074771
0.00748007
0.00747769
0.00747075
0.00746106
0.00744805
0.00743356
0.00741665
0.00739915
0.00737994
0.00736084
0.00734053
0.00732085
0.00730026
0.00728063
0.00726026
0.00724109
0.00722129
0.00720286
0.00718385
0.00716636
0.00714829
0.00713185
0.00711478
0.00709943
0.00708338
0.00706911
0.00705407
0.00704084
0.00702676
0.00701456
0.00700139
0.00699016
0.00697785
0.00696751
0.00695599
0.00694649
0.00693568
0.00692693
0.00691674
0.00690866
0.00689902
0.00689152
0.00688235
0.00687538
0.00686661
0.0068601
0.00685169
0.0068456
0.0068375
0.0068318
0.006824
0.00681867
0.00681114
0.00680616
0.0067989
0.00679425
0.00678723
0.00678289
0.00677609
0.00677205
0.00676544
0.00676169
0.00675521
0.00675175
0.00674536
0.00674218
0.00673586
0.00673292
0.0067267
0.00672389
0.00671788
0.00671508
0.00670938
0.00670647
0.00670115
0.00669809
0.00669314
0.00668997
0.00668532
0.00668214
0.00667769
0.00667456
0.00667028
0.00666718
0.00666313
0.00666
0.00665619
0.0066531
0.00664934
0.00664654
0.00664252
0.00664036
0.0066363
0.0066332
0.00663082
0.00662403
0.00661965
0.00663703
0.00659899
0.00721324
0.00721726
0.00721773
0.00721416
0.00720845
0.00719979
0.00719001
0.00717798
0.00716548
0.00715123
0.00713707
0.00712153
0.00710654
0.00709044
0.00707522
0.00705906
0.00704403
0.00702816
0.00701361
0.00699827
0.00698438
0.0069697
0.00695659
0.00694263
0.00693032
0.00691711
0.00690559
0.00689309
0.00688232
0.00687049
0.00686043
0.00684922
0.00683984
0.00682922
0.00682049
0.00681042
0.00680231
0.00679276
0.00678525
0.00677618
0.00676922
0.0067606
0.00675416
0.00674594
0.00673998
0.00673213
0.0067266
0.00671909
0.00671394
0.00670675
0.00670196
0.00669503
0.00669057
0.00668387
0.00667971
0.00667319
0.00666933
0.00666293
0.00665934
0.00665305
0.00664967
0.00664351
0.00664026
0.00663427
0.00663107
0.0066253
0.0066221
0.00661653
0.00661337
0.00660792
0.00660491
0.00659943
0.00659671
0.00659111
0.00658873
0.00658299
0.00658089
0.00657517
0.00657313
0.00656769
0.00656544
0.00656053
0.00655788
0.00655358
0.00655057
0.00654677
0.00654354
0.00654009
0.00653673
0.0065336
0.00653013
0.00652715
0.006524
0.00652051
0.00651876
0.00651173
0.0065139
0.00650675
0.0065043
0.00649888
0.00702044
0.00702492
0.00702693
0.0070253
0.00702191
0.00701583
0.00700885
0.00699976
0.00699033
0.00697921
0.00696826
0.00695592
0.00694413
0.00693117
0.00691906
0.00690591
0.00689384
0.0068808
0.00686903
0.00685631
0.00684501
0.00683274
0.006822
0.00681025
0.00680012
0.00678892
0.00677942
0.00676877
0.00675989
0.00674976
0.00674149
0.00673186
0.00672414
0.00671497
0.00670777
0.00669902
0.00669229
0.00668393
0.00667764
0.00666961
0.00666372
0.006656
0.00665049
0.00664304
0.00663789
0.00663069
0.00662586
0.00661889
0.00661438
0.00660761
0.00660339
0.0065968
0.00659286
0.00658644
0.00658276
0.00657646
0.00657304
0.00656685
0.00656367
0.00655757
0.00655462
0.0065486
0.00654585
0.00653991
0.00653732
0.00653148
0.00652903
0.00652328
0.00652096
0.00651527
0.00651312
0.00650742
0.00650551
0.00649974
0.00649809
0.00649224
0.00649082
0.00648497
0.00648365
0.00647795
0.00647655
0.00647117
0.00646955
0.00646455
0.00646273
0.00645803
0.00645612
0.0064516
0.00644969
0.00644528
0.00644346
0.00643896
0.00643756
0.0064323
0.00643291
0.00642443
0.00642746
0.00642042
0.00641846
0.00641182
0.00687598
0.00688076
0.00688354
0.00688306
0.00688116
0.00687681
0.00687177
0.00686474
0.00685751
0.00684864
0.00683998
0.00682993
0.00682043
0.00680972
0.00679982
0.00678882
0.00677886
0.00676786
0.00675807
0.00674725
0.00673779
0.00672729
0.00671826
0.00670814
0.00669959
0.00668988
0.00668182
0.00667253
0.00666498
0.0066561
0.00664903
0.00664053
0.00663393
0.0066258
0.00661963
0.00661183
0.00660607
0.00659857
0.00659318
0.00658596
0.0065809
0.00657393
0.00656918
0.00656243
0.00655797
0.00655142
0.00654723
0.00654084
0.00653692
0.00653068
0.00652699
0.00652088
0.00651741
0.00651142
0.00650814
0.00650228
0.00649916
0.00649341
0.00649044
0.0064848
0.00648198
0.00647641
0.00647377
0.00646821
0.00646579
0.00646018
0.00645803
0.00645234
0.00645043
0.00644472
0.00644296
0.00643732
0.00643558
0.00643014
0.00642832
0.00642313
0.00642122
0.00641625
0.0064143
0.00640946
0.00640759
0.00640274
0.00640104
0.00639616
0.0063946
0.00638975
0.00638826
0.00638345
0.00638211
0.00637716
0.00637622
0.00637084
0.00637054
0.0063649
0.00636413
0.00636043
0.00635711
0.00635272
0.00635121
0.00634598
0.00676625
0.00677107
0.00677423
0.00677448
0.00677357
0.0067704
0.0067667
0.0067611
0.00675541
0.00674811
0.00674109
0.00673268
0.00672487
0.00671582
0.00670762
0.00669828
0.00668997
0.00668058
0.00667238
0.0066631
0.00665514
0.00664606
0.00663842
0.00662962
0.00662234
0.00661384
0.00660694
0.00659875
0.00659224
0.00658435
0.00657822
0.00657062
0.00656485
0.00655752
0.00655211
0.00654502
0.00653993
0.00653308
0.0065283
0.00652165
0.00651715
0.00651069
0.00650646
0.00650016
0.00649618
0.00649004
0.0064863
0.00648028
0.00647677
0.00647087
0.00646756
0.00646176
0.00645865
0.00645294
0.00645001
0.00644439
0.00644162
0.00643608
0.00643346
0.00642799
0.00642552
0.00642011
0.00641778
0.0064124
0.00641023
0.00640487
0.00640285
0.00639749
0.00639562
0.00639026
0.00638853
0.00638318
0.00638155
0.00637625
0.00637469
0.00636947
0.00636794
0.00636281
0.00636131
0.00635628
0.00635479
0.00634986
0.00634839
0.00634355
0.00634209
0.00633736
0.00633589
0.00633129
0.00632981
0.0063253
0.00632386
0.00631946
0.00631806
0.00631317
0.00631266
0.00630912
0.0063068
0.00630553
0.00628664
0.00631198
0.00668415
0.00668867
0.00669195
0.00669259
0.00669233
0.00668994
0.00668717
0.00668258
0.00667799
0.00667183
0.00666602
0.00665882
0.00665224
0.00664441
0.00663743
0.00662926
0.00662214
0.00661387
0.00660679
0.00659856
0.00659165
0.00658356
0.0065769
0.006569
0.00656263
0.00655497
0.00654891
0.00654148
0.00653575
0.00652856
0.00652314
0.00651619
0.00651107
0.00650434
0.00649951
0.00649298
0.00648842
0.00648207
0.00647777
0.00647157
0.00646752
0.00646147
0.00645764
0.00645171
0.00644811
0.00644229
0.00643889
0.00643317
0.00642996
0.00642432
0.00642129
0.00641574
0.00641288
0.00640739
0.00640469
0.00639927
0.00639672
0.00639135
0.00638895
0.00638362
0.00638136
0.00637607
0.00637394
0.00636868
0.00636668
0.00636145
0.00635957
0.00635435
0.00635258
0.00634739
0.00634572
0.00634055
0.00633897
0.00633383
0.00633232
0.00632724
0.00632577
0.00632076
0.00631932
0.00631439
0.00631297
0.00630813
0.00630671
0.00630198
0.00630054
0.00629593
0.00629447
0.00628999
0.0062885
0.00628413
0.00628264
0.00627842
0.00627692
0.00627225
0.00627156
0.00626838
0.00626593
0.00626492
0.0062466
0.00627105
0.00662139
0.00662566
0.00662892
0.00662975
0.00662987
0.00662799
0.00662584
0.00662195
0.00661813
0.00661278
0.00660781
0.00660146
0.00659576
0.00658879
0.00658269
0.00657537
0.0065691
0.00656164
0.00655538
0.00654792
0.00654178
0.0065344
0.00652846
0.00652123
0.00651553
0.00650847
0.00650303
0.00649616
0.00649099
0.0064843
0.0064794
0.0064729
0.00646826
0.00646194
0.00645754
0.00645138
0.00644722
0.0064412
0.00643727
0.00643138
0.00642767
0.00642189
0.00641838
0.00641271
0.0064094
0.00640381
0.00640069
0.00639517
0.00639223
0.00638678
0.006384
0.00637861
0.00637598
0.00637064
0.00636817
0.00636287
0.00636054
0.00635527
0.00635309
0.00634784
0.0063458
0.00634057
0.00633865
0.00633344
0.00633164
0.00632646
0.00632473
0.0063196
0.00631794
0.00631287
0.00631125
0.00630624
0.00630468
0.00629971
0.0062982
0.00629327
0.00629183
0.00628693
0.00628556
0.00628069
0.00627937
0.00627456
0.00627326
0.00626853
0.00626722
0.00626261
0.00626127
0.00625678
0.0062554
0.00625106
0.00624958
0.00624538
0.00624381
0.00624034
0.00623788
0.00623317
0.00623193
0.00622415
0.00623848
0.00620381
0.00657335
0.00657737
0.00658051
0.00658139
0.0065817
0.00658012
0.00657834
0.00657489
0.00657155
0.00656672
0.0065623
0.00655652
0.00655139
0.00654501
0.00653949
0.00653275
0.00652706
0.00652016
0.00651445
0.00650752
0.00650192
0.00649504
0.0064896
0.00648284
0.00647762
0.00647099
0.006466
0.00645953
0.00645479
0.00644847
0.00644397
0.00643781
0.00643355
0.00642752
0.00642349
0.00641759
0.00641377
0.006408
0.00640439
0.00639872
0.0063953
0.00638972
0.00638649
0.00638099
0.00637793
0.00637249
0.00636962
0.00636423
0.00636152
0.00635617
0.00635363
0.00634831
0.00634592
0.00634063
0.00633839
0.00633311
0.00633102
0.00632576
0.0063238
0.00631854
0.00631673
0.00631146
0.00630978
0.00630451
0.00630295
0.00629769
0.00629622
0.00629099
0.00628958
0.0062844
0.00628303
0.0062779
0.00627657
0.0062715
0.00627021
0.00626518
0.00626395
0.00625894
0.00625778
0.0062528
0.00625168
0.00624675
0.00624565
0.00624081
0.00623969
0.00623496
0.0062338
0.00622921
0.00622799
0.00622357
0.00622221
0.00621797
0.00621647
0.00621302
0.00621059
0.00620588
0.00620461
0.00619705
0.00621132
0.00617659
0.00653421
0.00653799
0.00654099
0.00654188
0.00654229
0.0065409
0.00653936
0.00653622
0.00653322
0.00652878
0.00652475
0.00651941
0.00651471
0.00650879
0.0065037
0.00649744
0.00649218
0.00648576
0.00648048
0.00647401
0.00646882
0.00646239
0.00645734
0.006451
0.00644615
0.00643993
0.00643528
0.00642918
0.00642476
0.00641879
0.00641459
0.00640873
0.00640476
0.006399
0.00639524
0.00638958
0.00638602
0.00638044
0.00637707
0.00637157
0.00636838
0.00636294
0.00635992
0.00635454
0.00635169
0.00634634
0.00634365
0.00633833
0.00633581
0.0063305
0.00632814
0.00632283
0.00632063
0.00631532
0.00631328
0.00630796
0.00630607
0.00630074
0.00629899
0.00629364
0.00629205
0.00628666
0.00628523
0.00627979
0.00627851
0.00627303
0.00627189
0.00626638
0.00626536
0.00625983
0.00625891
0.00625338
0.00625255
0.00624702
0.00624628
0.00624074
0.00624012
0.00623453
0.00623404
0.0062284
0.00622805
0.00622237
0.00622213
0.00621644
0.00621628
0.0062106
0.00621052
0.00620484
0.00620482
0.00619918
0.0061992
0.00619356
0.00619355
0.00618849
0.00618819
0.0061819
0.00618185
0.00617384
0.0061885
0.00615327
0.00650211
0.00650567
0.00650852
0.00650943
0.00650992
0.00650871
0.00650739
0.00650455
0.00650186
0.00649779
0.00649412
0.00648919
0.00648489
0.0064794
0.00647471
0.00646889
0.00646402
0.00645801
0.0064531
0.00644703
0.00644216
0.00643611
0.00643135
0.00642536
0.00642075
0.00641483
0.00641039
0.00640456
0.0064003
0.00639457
0.00639049
0.00638484
0.00638095
0.00637538
0.00637167
0.00636616
0.00636265
0.00635719
0.00635386
0.00634845
0.00634529
0.00633993
0.00633693
0.00633161
0.00632877
0.00632347
0.00632079
0.00631552
0.00631298
0.00630773
0.00630534
0.0063001
0.00629786
0.00629262
0.00629054
0.00628529
0.00628335
0.0062781
0.0062763
0.00627105
0.00626937
0.00626413
0.00626256
0.00625732
0.00625587
0.00625062
0.00624928
0.00624402
0.00624282
0.00623751
0.00623645
0.00623108
0.00623019
0.00622473
0.00622403
0.00621847
0.00621795
0.00621231
0.00621195
0.00620625
0.00620603
0.00620028
0.00620018
0.00619442
0.00619439
0.00618864
0.00618869
0.00618295
0.00618306
0.00617736
0.0061775
0.00617182
0.00617192
0.00616678
0.00616644
0.00616033
0.00616231
0.00615432
0.0061517
0.00614614
0.00647877
0.00648202
0.00648466
0.00648548
0.00648595
0.00648482
0.00648361
0.00648093
0.00647842
0.00647456
0.00647111
0.0064664
0.0064623
0.00645701
0.0064525
0.00644683
0.00644209
0.0064362
0.00643136
0.00642535
0.00642052
0.00641448
0.0064097
0.00640367
0.00639899
0.00639301
0.00638846
0.00638255
0.00637816
0.00637233
0.00636812
0.00636239
0.00635836
0.00635273
0.00634889
0.00634335
0.0063397
0.00633424
0.0063308
0.0063254
0.00632215
0.00631683
0.00631374
0.00630845
0.00630552
0.00630027
0.0062975
0.00629231
0.0062897
0.00628454
0.0062821
0.00627697
0.00627469
0.00626957
0.00626748
0.00626235
0.00626043
0.0062553
0.00625353
0.00624841
0.00624678
0.00624166
0.00624016
0.00623505
0.00623366
0.00622855
0.0062273
0.00622214
0.00622105
0.00621583
0.00621493
0.00620961
0.0062089
0.00620348
0.00620296
0.00619746
0.0061971
0.00619153
0.00619131
0.0061857
0.0061856
0.00617996
0.00617996