/*--------------------------------*- C++ -*----------------------------------*\
  =========                 |
  \\      /  F ield         | OpenFOAM: The Open Source CFD Toolbox
   \\    /   O peration     | Website:  https://openfoam.org
    \\  /    A nd           | Version:  8
     \\/     M anipulation  |
\*---------------------------------------------------------------------------*/
FoamFile
{
    version     2.0;
    format      ascii;
    class       surfaceScalarField;
    location    "2.50002999";
    object      phi;
}
// * * * * * * * * * * * * * * * * * * * * * * * * * * * * * * * * * * * * * //

dimensions      [1 0 -1 0 0 0 0];

internalField   nonuniform List<scalar> 
13330
(
0.186623
-0.0821156
-0.104536
0.415869
-0.638856
0.409594
0.62122
-0.876988
0.671633
0.80355
-1.01466
0.832331
0.966066
-1.0997
0.93719
1.11177
-1.15163
1.00594
1.24397
-1.18312
1.05092
1.36592
-1.20203
1.08008
1.48096
-1.21325
1.09822
-1.22052
1.10796
1.59352
0.241259
-0.323383
0.456043
-0.853647
0.643476
-1.06442
0.808599
-1.17978
0.953175
-1.24427
1.08103
-1.27949
1.19593
-1.29802
1.30083
-1.30692
1.39799
-1.31041
-1.31122
1.48868
0.24507
-0.568469
0.45817
-1.06676
0.632013
-1.23827
0.780579
-1.32834
0.907991
-1.37168
1.01926
-1.39075
1.11834
-1.3971
1.20828
-1.39686
1.29134
-1.39347
-1.38874
1.36885
0.237768
-0.806235
0.439206
-1.26819
0.597263
-1.39633
0.729174
-1.46025
0.840218
-1.48273
0.936063
-1.4866
1.02102
-1.48206
1.09833
-1.47417
1.17021
-1.46536
-1.4565
1.23797
0.223932
-1.03017
0.406881
-1.45114
0.54709
-1.53653
0.662237
-1.5754
0.757372
-1.57786
0.839023
-1.56825
0.911593
-1.55463
0.978102
-1.54068
1.04043
-1.52768
-1.51564
1.09958
0.205259
-1.23542
0.365919
-1.61179
0.487297
-1.65791
0.585628
-1.67373
0.665547
-1.65778
0.734239
-1.63694
0.795652
-1.61604
0.852321
-1.59735
0.905719
-1.58108
-1.56641
0.956481
0.183303
-1.41871
0.32
-1.74848
0.422282
-1.76018
0.50373
-1.75517
0.569213
-1.72326
0.625823
-1.69355
0.676708
-1.66693
0.723868
-1.64451
0.768383
-1.6256
-1.60859
0.810563
0.159324
-1.57802
0.271515
-1.86066
0.35504
-1.8437
0.419718
-1.81985
0.471433
-1.77498
0.516399
-1.73852
0.556913
-1.70744
0.594434
-1.68203
0.629763
-1.66093
-1.64179
0.662967
0.134419
-1.71242
0.222291
-1.94851
0.287426
-1.90882
0.335557
-1.86798
0.374105
-1.81352
0.407536
-1.77195
0.437477
-1.73738
0.464987
-1.70954
0.490692
-1.68663
-1.66559
0.514489
0.109365
-1.82177
0.173483
-2.01261
0.220536
-1.95586
0.252632
-1.90007
0.278339
-1.83924
0.300046
-1.79366
0.319062
-1.7564
0.336134
-1.72662
0.351759
-1.70226
0.36576
-1.6796
-0.0957357
0.0957347
-0.172923
0.0771862
-0.238017
0.0650939
-0.293376
0.0553593
-0.33826
0.044884
-0.370947
0.0326885
-0.38952
0.0185741
-0.392785
0.00326553
-0.381323
-0.0114621
-0.0227502
-0.358574
-0.0816272
0.17736
-0.149873
0.14543
-0.205662
0.120882
-0.250398
0.100096
-0.283527
0.0780154
-0.30288
0.052045
-0.305384
0.0210813
-0.289528
-0.0125896
-0.25737
-0.0436218
-0.0669786
-0.213146
-0.0625093
0.239868
-0.112969
0.195888
-0.150729
0.158642
-0.174841
0.124209
-0.183603
0.0867799
-0.173687
0.0421332
-0.140296
-0.0123066
-0.0871049
-0.06578
-0.0192099
-0.111519
-0.144856
0.0586625
-0.0402329
0.280103
-0.0688212
0.224476
-0.0819847
0.171806
-0.0752124
0.117438
-0.0427573
0.0543277
0.0201255
-0.0207446
0.105115
-0.0972932
0.200355
-0.16102
0.302339
-0.213505
-0.251529
0.409007
-0.0190216
0.299126
-0.023185
0.22864
-0.00343712
0.152059
0.0509694
0.0630341
0.144451
-0.0391508
0.262534
-0.138824
0.389028
-0.223784
0.52072
-0.292712
0.654886
-0.347673
-0.388053
0.791406
-0.00145868
0.300582
0.0222154
0.204966
0.0886301
0.0856444
0.205916
-0.054249
0.35355
-0.186782
0.510771
-0.296041
0.671138
-0.384149
0.832253
-0.453826
0.991476
-0.506898
-0.545116
1.14854
0.0105115
0.290077
0.0704632
0.145013
0.202877
-0.0467686
0.375545
-0.226914
0.557516
-0.368751
0.740283
-0.478804
0.918766
-0.562631
1.09028
-0.625338
1.25469
-0.671309
-0.70396
1.41353
0.016135
0.273937
0.143743
0.0174054
0.337375
-0.2404
0.539087
-0.428622
0.736254
-0.565914
0.923253
-0.6658
1.09877
-0.738145
1.26374
-0.790307
1.42001
-0.827582
-0.85336
1.56941
0.0531748
0.220759
0.250349
-0.179773
0.465373
-0.455424
0.672008
-0.635252
0.86419
-0.758093
1.04147
-0.843073
1.20531
-0.901985
1.35767
-0.94267
1.50063
-0.97054
-0.989042
1.63631
0.11622
0.346041
0.562251
0.759332
0.938431
1.1013
1.25023
1.38765
1.51532
1.63424
-0.285971
-0.0726057
-0.216934
-0.0690407
-0.15357
-0.0633668
-0.0952013
-0.0583724
-0.0405654
-0.05464
0.0112727
-0.0518423
0.0602308
-0.0489621
0.1064
-0.0461728
0.150376
-0.0439792
0.192519
-0.0421458
0.233056
-0.040538
0.272139
-0.0390837
0.309877
-0.0377377
0.34635
-0.0364718
0.38162
-0.0352689
0.415739
-0.0341171
0.448749
-0.0330073
0.480685
-0.0319326
0.511576
-0.0308885
0.54145
-0.0298716
0.570332
-0.0288795
0.598245
-0.0279106
0.625211
-0.0269644
0.651254
-0.0260414
0.676397
-0.0251421
0.700666
-0.0242676
0.724085
-0.0234185
0.746681
-0.0225955
0.76848
-0.021799
0.78951
-0.0210291
0.809796
-0.0202858
0.829365
-0.0195688
0.848242
-0.0188771
0.866452
-0.0182099
0.884018
-0.0175666
0.900965
-0.0169465
0.917314
-0.0163489
0.933087
-0.015773
0.948305
-0.0152182
0.962988
-0.0146839
0.977157
-0.0141693
0.990831
-0.0136738
1.00403
-0.0131968
1.01676
-0.0127377
1.02906
-0.0122961
1.04093
-0.0118714
1.05239
-0.0114633
1.06346
-0.0110711
1.07416
-0.0106944
1.08449
-0.0103327
1.09448
-0.00998554
1.10413
-0.00965239
1.11346
-0.00933271
1.12249
-0.00902594
1.13122
-0.0087315
1.13967
-0.00844874
1.14784
-0.00817705
1.15576
-0.00791582
1.16342
-0.00766443
1.17085
-0.00742231
1.17804
-0.0071889
1.185
-0.0069637
1.19175
-0.00674632
1.19828
-0.00653644
1.20462
-0.00633375
1.21076
-0.00613797
1.2167
-0.00594888
1.22247
-0.00576626
1.22806
-0.0055899
1.23348
-0.0054196
1.23874
-0.00525516
1.24383
-0.00509643
1.24877
-0.00494324
1.25357
-0.00479545
1.25822
-0.00465293
1.26274
-0.00451555
1.26712
-0.00438321
1.27137
-0.00425577
1.27551
-0.0041331
1.27952
-0.0040151
1.28342
-0.0039016
1.28721
-0.00379249
1.2909
-0.00368761
1.29449
-0.00358682
1.29798
-0.00348991
1.30137
-0.00339673
1.30468
-0.00330705
1.3079
-0.00322067
1.31103
-0.00313726
1.31409
-0.0030566
1.31707
-0.00297814
1.31997
-0.00290149
1.32279
-0.0028257
1.32554
-0.00275006
1.32822
-0.00267288
1.33081
-0.00259258
1.33332
-0.00250647
1.33573
-0.00241209
1.33804
-0.00230807
-0.00209331
-0.145616
-0.140144
-0.0852986
-0.129366
-0.0296756
-0.118998
0.0225021
-0.11056
0.0713274
-0.103476
0.117197
-0.0977218
0.161024
-0.0927993
0.203226
-0.088383
0.243815
-0.0845752
0.282917
-0.0812534
0.32065
-0.0782741
0.357107
-0.0755414
0.392361
-0.0729911
0.426471
-0.0705788
0.459483
-0.0682766
0.491435
-0.0660639
0.522358
-0.0639246
0.55228
-0.0618485
0.581227
-0.0598285
0.60922
-0.0578588
0.636282
-0.0559355
0.662432
-0.0540557
0.687691
-0.0522192
0.71208
-0.050427
0.735622
-0.0486811
0.758339
-0.0469832
0.780257
-0.0453346
0.8014
-0.0437366
0.821792
-0.0421902
0.841459
-0.0406959
0.860427
-0.0392535
0.878721
-0.0378618
0.896363
-0.036519
0.913377
-0.0352242
0.929787
-0.0339763
0.945615
-0.0327741
0.960882
-0.0316162
0.97561
-0.0305013
0.989819
-0.0294277
1.00353
-0.0283942
1.01676
-0.0273993
1.02952
-0.0264415
1.04185
-0.0255193
1.05374
-0.0246319
1.06522
-0.0237781
1.0763
-0.022957
1.08701
-0.0221676
1.09734
-0.021409
1.10733
-0.0206802
1.11697
-0.0199804
1.1263
-0.0193087
1.13531
-0.0186639
1.14402
-0.0180451
1.15245
-0.0174512
1.1606
-0.0168812
1.16848
-0.0163338
1.17611
-0.015808
1.1835
-0.0153028
1.19065
-0.0148168
1.19758
-0.014349
1.20429
-0.0138983
1.21079
-0.0134636
1.21709
-0.0130442
1.22319
-0.0126394
1.22911
-0.0122487
1.23484
-0.0118715
1.2404
-0.0115074
1.24579
-0.0111558
1.25102
-0.0108164
1.25609
-0.0104886
1.261
-0.0101721
1.26577
-0.00986661
1.2704
-0.0095717
1.27489
-0.00928716
1.27925
-0.00901272
1.28348
-0.00874816
1.28759
-0.00849325
1.29158
-0.00824777
1.29545
-0.00801148
1.29922
-0.00778413
1.30288
-0.00756549
1.30645
-0.00735529
1.30991
-0.00715324
1.31328
-0.00695906
1.31656
-0.00677242
1.31976
-0.00659297
1.32287
-0.00642029
1.3259
-0.00625399
1.32885
-0.00609346
1.33173
-0.00593826
1.33454
-0.00578731
1.33728
-0.00563988
1.33995
-0.0054941
1.34255
-0.00534861
1.34507
-0.00520012
1.34752
-0.00504556
1.3499
-0.00487961
1.35218
-0.00469192
1.35434
-0.00447318
-0.00420667
0.10634
-0.18783
0.148242
-0.171274
0.189177
-0.15994
0.22934
-0.15073
0.26837
-0.142514
0.306144
-0.135504
0.342846
-0.129509
0.378634
-0.124178
0.413447
-0.119394
0.447252
-0.115063
0.480056
-0.11108
0.511876
-0.107362
0.542732
-0.103846
0.572646
-0.10049
0.601635
-0.0972619
0.629716
-0.0941408
0.656907
-0.0911104
0.683224
-0.0881604
0.708684
-0.0852827
0.733301
-0.0824708
0.75709
-0.0797206
0.780069
-0.07703
0.802254
-0.0744004
0.823665
-0.0718347
0.844323
-0.0693364
0.86425
-0.0669082
0.883468
-0.0645517
0.902001
-0.0622682
0.919871
-0.0600587
0.9371
-0.0579235
0.953709
-0.0558622
0.969721
-0.0538729
0.985156
-0.0519543
1.00004
-0.0501053
1.01439
-0.0483245
1.02822
-0.04661
1.04156
-0.0449594
1.05443
-0.0433707
1.06685
-0.0418415
1.07882
-0.0403698
1.09038
-0.0389534
1.10152
-0.0375901
1.11228
-0.0362778
1.12266
-0.0350151
1.13268
-0.0338005
1.14236
-0.0326325
1.1517
-0.0315098
1.16072
-0.030431
1.16943
-0.0293948
1.17785
-0.0284
1.18599
-0.0274451
1.19385
-0.0265286
1.20146
-0.025649
1.20881
-0.0248049
1.21592
-0.0239946
1.22281
-0.0232167
1.22947
-0.0224695
1.23592
-0.0217515
1.24216
-0.0210611
1.24821
-0.0203967
1.25407
-0.0197566
1.25975
-0.0191393
1.26525
-0.0185437
1.27058
-0.0179692
1.27574
-0.0174149
1.28075
-0.01688
1.28561
-0.0163639
1.29032
-0.0158659
1.29489
-0.0153852
1.29932
-0.0149212
1.30362
-0.0144731
1.30779
-0.0140407
1.31184
-0.0136235
1.31578
-0.0132211
1.3196
-0.0128331
1.32331
-0.0124593
1.32691
-0.0120993
1.33041
-0.0117528
1.33382
-0.0114195
1.33713
-0.0110989
1.34036
-0.0107908
1.3435
-0.0104947
1.34655
-0.0102102
1.34953
-0.00993695
1.35243
-0.00967437
1.35526
-0.00942204
1.35801
-0.00917929
1.3607
-0.00894564
1.36333
-0.00872021
1.36589
-0.00850242
1.3684
-0.00829073
1.37084
-0.00808404
1.37322
-0.00787971
1.37555
-0.00767585
1.37782
-0.00746776
1.38002
-0.00725106
1.38216
-0.00701809
1.38422
-0.00675382
1.3862
-0.00644847
-0.00610301
0.428586
-0.207415
0.449365
-0.192059
0.473471
-0.184053
0.499829
-0.177095
0.527208
-0.1699
0.5549
-0.163202
0.582594
-0.15721
0.610131
-0.15172
0.637339
-0.146606
0.664086
-0.141812
0.690285
-0.137281
0.715881
-0.132958
0.740837
-0.128801
0.765131
-0.124782
0.788751
-0.120879
0.811689
-0.117076
0.833941
-0.113359
0.855505
-0.10972
0.876381
-0.106154
0.896572
-0.102658
0.916086
-0.0992299
0.934931
-0.0958719
0.953123
-0.0925891
0.970679
-0.0893871
0.987616
-0.0862712
1.00395
-0.0832444
1.01971
-0.0803081
1.03491
-0.0774632
1.04956
-0.0747101
1.06369
-0.072049
1.07731
-0.0694803
1.09044
-0.0670017
1.10309
-0.0646111
1.1153
-0.0623074
1.12706
-0.0600886
1.1384
-0.057952
1.14934
-0.0558949
1.15988
-0.0539147
1.17005
-0.0520087
1.17985
-0.0501747
1.18931
-0.0484097
1.19843
-0.0467109
1.20722
-0.0450757
1.21571
-0.0435025
1.2239
-0.04199
1.2318
-0.0405361
1.23943
-0.0391389
1.24679
-0.037797
1.25391
-0.0365086
1.26078
-0.035272
1.26742
-0.0340853
1.27384
-0.0329465
1.28004
-0.0318537
1.28604
-0.030805
1.29185
-0.0297984
1.29746
-0.0288319
1.3029
-0.0279034
1.30816
-0.0270111
1.31325
-0.0261531
1.31818
-0.0253276
1.32296
-0.0245322
1.32758
-0.0237651
1.33207
-0.0230254
1.33641
-0.0223122
1.34062
-0.0216246
1.3447
-0.0209615
1.34866
-0.0203219
1.3525
-0.0197051
1.35622
-0.01911
1.35984
-0.0185358
1.36334
-0.0179819
1.36675
-0.0174477
1.37006
-0.0169328
1.37327
-0.0164369
1.3764
-0.0159593
1.37944
-0.0154996
1.38239
-0.0150575
1.38527
-0.0146324
1.38807
-0.0142239
1.39081
-0.0138314
1.39347
-0.0134545
1.39606
-0.0130926
1.3986
-0.0127452
1.40107
-0.0124117
1.40349
-0.0120915
1.40585
-0.011784
1.40816
-0.0114884
1.41041
-0.0112041
1.41262
-0.01093
1.41478
-0.0106656
1.4169
-0.0104088
1.41897
-0.0101583
1.42101
-0.00991073
1.42299
-0.00966396
1.42494
-0.00941216
1.42684
-0.00914997
1.42868
-0.00886783
1.43048
-0.00854785
1.43221
-0.00817886
-0.00776899
0.789922
-0.205937
0.793768
-0.195911
0.802395
-0.192685
0.814381
-0.189086
0.828661
-0.184186
0.844448
-0.178994
0.861226
-0.173992
0.878671
-0.169169
0.896527
-0.164465
0.914578
-0.159864
0.932654
-0.155358
0.95063
-0.150935
0.968414
-0.146584
0.985931
-0.142298
1.00313
-0.138071
1.01995
-0.133896
1.03636
-0.129768
1.05233
-0.125688
1.06784
-0.121659
1.08287
-0.117688
1.09743
-0.113785
1.11152
-0.109958
1.12514
-0.106214
1.13832
-0.102561
1.15106
-0.0990061
1.16337
-0.0955518
1.17526
-0.0921976
1.18674
-0.0889453
1.19783
-0.085796
1.20853
-0.0827502
1.21886
-0.0798081
1.22883
-0.0769673
1.23844
-0.0742256
1.24772
-0.0715817
1.25666
-0.0690328
1.26529
-0.0665763
1.2736
-0.0642098
1.28162
-0.0619303
1.28934
-0.0597355
1.29679
-0.0576227
1.30397
-0.0555889
1.31089
-0.0536312
1.31756
-0.0517469
1.32399
-0.0499354
1.33019
-0.0481951
1.33618
-0.0465235
1.34196
-0.0449182
1.34754
-0.0433771
1.35293
-0.0418984
1.35814
-0.0404795
1.36317
-0.039118
1.36803
-0.0378115
1.37274
-0.0365577
1.37729
-0.0353541
1.38169
-0.0341984
1.38595
-0.0330884
1.39007
-0.0320217
1.39405
-0.0309964
1.39791
-0.0300103
1.40164
-0.0290616
1.40526
-0.0281476
1.40876
-0.0272664
1.41215
-0.0264172
1.41544
-0.025599
1.41862
-0.0248109
1.42171
-0.0240511
1.42471
-0.023319
1.42762
-0.0226138
1.43044
-0.021934
1.43318
-0.0212788
1.43585
-0.0206476
1.43844
-0.02004
1.44096
-0.0194553
1.44342
-0.018893
1.44581
-0.0183525
1.44814
-0.0178332
1.45042
-0.0173344
1.45264
-0.0168555
1.45481
-0.016396
1.45693
-0.0159551
1.45901
-0.0155321
1.46104
-0.0151265
1.46303
-0.0147376
1.46498
-0.0143646
1.4669
-0.0140068
1.46878
-0.0136636
1.47062
-0.013334
1.47243
-0.0130174
1.47422
-0.0127125
1.47597
-0.012419
1.47769
-0.0121345
1.47939
-0.011857
1.48106
-0.0115831
1.48271
-0.0113107
1.48433
-0.0110332
1.48592
-0.0107447
1.48749
-0.0104339
1.48902
-0.010082
1.49052
-0.00967506
-0.00922425
1.13857
-0.195983
1.13466
-0.192003
1.1343
-0.192329
1.13623
-0.191023
1.1402
-0.188158
1.14591
-0.184705
1.15297
-0.181052
1.16104
-0.177246
1.16988
-0.173301
1.17926
-0.16925
1.18903
-0.165128
1.19906
-0.16096
1.20923
-0.156758
1.21946
-0.15253
1.22968
-0.148284
1.23981
-0.144028
1.24982
-0.139773
1.25966
-0.135534
1.26933
-0.131325
1.27881
-0.127162
1.28808
-0.123057
1.29714
-0.119018
1.30599
-0.115054
1.3146
-0.111174
1.32298
-0.107388
1.33113
-0.103698
1.33904
-0.100105
1.34671
-0.0966121
1.35414
-0.0932238
1.36133
-0.0899406
1.36829
-0.0867635
1.37502
-0.0836923
1.38151
-0.0807242
1.38779
-0.0778574
1.39385
-0.0750907
1.3997
-0.0724223
1.40534
-0.0698498
1.41077
-0.0673701
1.41602
-0.0649802
1.42107
-0.0626773
1.42594
-0.0604598
1.43064
-0.0583269
1.43517
-0.0562771
1.43954
-0.0543089
1.44377
-0.0524199
1.44785
-0.0506071
1.4518
-0.0488669
1.45562
-0.0471968
1.45931
-0.0455942
1.46289
-0.0440562
1.46635
-0.0425799
1.4697
-0.0411625
1.47295
-0.0398015
1.47609
-0.0384943
1.47913
-0.0372382
1.48207
-0.0360309
1.48492
-0.0348701
1.48768
-0.0337538
1.49035
-0.0326799
1.49293
-0.0316469
1.49544
-0.030652
1.49786
-0.0296935
1.50022
-0.0287704
1.5025
-0.0278813
1.50471
-0.0270255
1.50686
-0.0262011
1.50895
-0.0254083
1.51098
-0.0246463
1.51296
-0.0239128
1.51489
-0.0232074
1.51677
-0.0225292
1.51861
-0.0218778
1.5204
-0.0212525
1.52216
-0.0206523
1.52388
-0.0200765
1.52557
-0.0195242
1.52723
-0.0189946
1.52886
-0.0184869
1.53047
-0.0180005
1.53204
-0.0175344
1.5336
-0.0170879
1.53513
-0.0166602
1.53664
-0.0162505
1.53814
-0.0158582
1.53961
-0.0154824
1.54107
-0.0151225
1.54251
-0.0147773
1.54394
-0.0144463
1.54535
-0.0141281
1.54676
-0.0138229
1.54815
-0.0135278
1.54953
-0.0132399
1.55091
-0.0129567
1.55227
-0.0126763
1.55363
-0.012392
1.55498
-0.0120976
1.55633
-0.0117809
1.55767
-0.0114238
1.559
-0.0110076
-0.0105433
1.39894
-0.1814
1.39065
-0.183717
1.38573
-0.187414
1.38297
-0.188267
1.38217
-0.187355
1.3831
-0.185641
1.38543
-0.183385
1.38884
-0.180656
1.39308
-0.177543
1.39796
-0.174133
1.40332
-0.17049
1.40902
-0.166662
1.41495
-0.162682
1.421
-0.158584
1.42712
-0.1544
1.43325
-0.150157
1.43935
-0.145881
1.44541
-0.141592
1.4514
-0.137308
1.45728
-0.133048
1.46306
-0.128831
1.46871
-0.124666
1.47422
-0.120565
1.47959
-0.116539
1.48479
-0.112596
1.48984
-0.108742
1.49472
-0.104983
1.49943
-0.101325
1.50398
-0.0977725
1.50837
-0.0943256
1.51259
-0.0909864
1.51666
-0.0877559
1.52057
-0.0846319
1.52432
-0.0816133
1.52793
-0.0787
1.5314
-0.0758913
1.53474
-0.0731847
1.53795
-0.0705778
1.54103
-0.0680685
1.54401
-0.0656557
1.54689
-0.063338
1.54968
-0.061113
1.55238
-0.0589769
1.55499
-0.056926
1.55753
-0.0549561
1.55999
-0.0530643
1.56237
-0.0512489
1.56468
-0.0495066
1.56692
-0.0478333
1.56909
-0.046226
1.57119
-0.0446823
1.57323
-0.0431993
1.5752
-0.0417744
1.57711
-0.0404049
1.57896
-0.0390885
1.58075
-0.0378228
1.58249
-0.0366055
1.58417
-0.0354344
1.5858
-0.0343073
1.58737
-0.0332237
1.5889
-0.0321817
1.59039
-0.0311798
1.59184
-0.030217
1.59324
-0.0292915
1.59462
-0.0284029
1.59597
-0.0275488
1.59729
-0.0267288
1.59858
-0.0259422
1.59986
-0.0251868
1.60111
-0.0244626
1.60235
-0.0237682
1.60357
-0.0231027
1.60479
-0.0224651
1.60599
-0.0218543
1.60718
-0.0212692
1.60836
-0.0207088
1.60954
-0.0201723
1.61071
-0.0196588
1.61188
-0.0191675
1.61304
-0.0186974
1.6142
-0.0182476
1.61535
-0.0178175
1.61651
-0.0174062
1.61766
-0.0170132
1.61882
-0.0166376
1.61997
-0.0162788
1.62113
-0.0159357
1.62229
-0.0156074
1.62345
-0.0152925
1.62462
-0.0149911
1.62579
-0.0147008
1.62697
-0.0144195
1.62816
-0.0141445
1.62936
-0.0138742
1.63057
-0.0136029
1.6318
-0.0133249
1.63304
-0.0130273
1.63431
-0.0126941
1.63561
-0.0123007
-0.0118531
1.55036
-0.162353
1.53722
-0.170586
1.52794
-0.178133
1.52139
-0.181724
1.51717
-0.183134
1.51497
-0.183443
1.51447
-0.182892
1.51539
-0.181573
1.51746
-0.179614
1.52047
-0.177139
1.52422
-0.174245
1.52857
-0.171007
1.53337
-0.167488
1.53853
-0.163744
1.54395
-0.159823
1.54956
-0.155762
1.55528
-0.151599
1.56105
-0.147367
1.56684
-0.143095
1.5726
-0.138806
1.57829
-0.134524
1.58389
-0.130267
1.58938
-0.126048
1.59472
-0.121878
1.59989
-0.117773
1.6049
-0.113747
1.60972
-0.109803
1.61435
-0.105949
1.61877
-0.102191
1.62298
-0.0985336
1.62697
-0.0949811
1.63075
-0.091536
1.63432
-0.0881992
1.63768
-0.0849723
1.64084
-0.0818562
1.6438
-0.078851
1.64657
-0.0759555
1.64916
-0.0731698
1.65159
-0.0704931
1.65385
-0.0679236
1.65598
-0.0654594
1.65796
-0.0630966
1.65982
-0.0608324
1.66155
-0.0586625
1.66318
-0.0565828
1.66471
-0.0545906
1.66614
-0.0526831
1.66749
-0.0508574
1.66877
-0.0491092
1.66998
-0.0474353
1.67113
-0.0458327
1.67223
-0.0442975
1.67328
-0.0428263
1.67429
-0.041416
1.67526
-0.0400636
1.67621
-0.0387664
1.67712
-0.0375218
1.67802
-0.0363278
1.67889
-0.0351825
1.67975
-0.0340848
1.6806
-0.033032
1.68144
-0.0320217
1.68228
-0.0310524
1.68311
-0.0301226
1.68394
-0.029232
1.68476
-0.0283778
1.68559
-0.0275589
1.68643
-0.0267751
1.68726
-0.0260241
1.6881
-0.0253053
1.68895
-0.0246171
1.68981
-0.0239588
1.69067
-0.0233292
1.69154
-0.0227272
1.69243
-0.0221517
1.69332
-0.0216017
1.69422
-0.0210762
1.69514
-0.0205741
1.69606
-0.0200943
1.697
-0.0196363
1.69795
-0.0191993
1.69892
-0.018783
1.69989
-0.0183865
1.70089
-0.0180093
1.7019
-0.0176502
1.70293
-0.0173089
1.70398
-0.0169839
1.70505
-0.0166747
1.70613
-0.0163794
1.70724
-0.0160986
1.70837
-0.0158301
1.70952
-0.0155723
1.7107
-0.0153225
1.7119
-0.0150796
1.71314
-0.0148384
1.71441
-0.0145949
1.71572
-0.0143372
1.71708
-0.0140533
1.71849
-0.0137176
-0.0133275
1.61494
-0.140991
1.59874
-0.15439
1.58634
-0.165736
1.57716
-0.172536
1.57064
-0.176614
1.56629
-0.179102
1.56377
-0.180363
1.56276
-0.180571
1.56305
-0.179896
1.5644
-0.178499
1.56667
-0.176511
1.5697
-0.174038
1.57338
-0.171163
1.57759
-0.167959
1.58225
-0.164487
1.58729
-0.1608
1.59264
-0.156946
1.59823
-0.152964
1.60403
-0.148889
1.60997
-0.144749
1.61602
-0.140574
1.62214
-0.136385
1.62829
-0.132202
1.63445
-0.128039
1.6406
-0.123917
1.6467
-0.119848
1.65274
-0.115841
1.6587
-0.111905
1.66455
-0.108048
1.6703
-0.104276
1.67591
-0.100594
1.68138
-0.0970091
1.68671
-0.0935232
1.69188
-0.0901381
1.69687
-0.0868549
1.7017
-0.083676
1.70635
-0.0806014
1.71081
-0.0776309
1.71508
-0.0747636
1.71915
-0.0719981
1.72303
-0.0693332
1.7267
-0.0667671
1.73017
-0.0642989
1.73343
-0.0619251
1.73649
-0.0596436
1.73935
-0.0574532
1.74202
-0.055352
1.7445
-0.0533382
1.74681
-0.0514093
1.74893
-0.0495632
1.7509
-0.0477974
1.75271
-0.0461085
1.75438
-0.0444943
1.75591
-0.0429524
1.75733
-0.0414801
1.75864
-0.0400752
1.75985
-0.0387353
1.76098
-0.0374584
1.76204
-0.0362418
1.76304
-0.0350832
1.76398
-0.0339791
1.76489
-0.0329263
1.76576
-0.0319226
1.7666
-0.030966
1.76742
-0.0300553
1.76823
-0.0291876
1.76903
-0.0283615
1.76983
-0.0275757
1.77063
-0.0268271
1.77144
-0.0261142
1.77226
-0.0254351
1.77309
-0.0247889
1.77393
-0.0241738
1.77479
-0.0235887
1.77567
-0.023032
1.77658
-0.0225026
1.7775
-0.0219992
1.77844
-0.021521
1.77942
-0.0210668
1.78042
-0.0206356
1.78144
-0.0202264
1.7825
-0.0198383
1.78358
-0.0194702
1.78469
-0.0191216
1.78583
-0.0187912
1.787
-0.0184789
1.7882
-0.0181832
1.78943
-0.0179038
1.79069
-0.0176394
1.79198
-0.0173906
1.79331
-0.0171552
1.79466
-0.0169314
1.79606
-0.0167173
1.79749
-0.0165131
1.79897
-0.0163137
1.80049
-0.0161171
1.80207
-0.0159154
1.80372
-0.0157029
1.80546
-0.0154607
-0.0151852
1.61177
-0.118523
1.59344
-0.136063
1.57807
-0.150368
1.5662
-0.160667
1.55742
-0.167829
1.55112
-0.172807
1.54689
-0.176127
1.54439
-0.178076
1.54337
-0.178874
1.54359
-0.178721
1.54487
-0.177788
1.54704
-0.176212
1.54998
-0.174106
1.55359
-0.171562
1.55775
-0.168658
1.56241
-0.16546
1.56749
-0.162024
1.57292
-0.158398
1.57866
-0.154624
1.58465
-0.150739
1.59085
-0.146774
1.59722
-0.142758
1.60373
-0.138714
1.61035
-0.134662
1.61706
-0.130621
1.62382
-0.12661
1.63062
-0.122639
1.63744
-0.11872
1.64425
-0.114864
1.65106
-0.111077
1.65783
-0.107368
1.66456
-0.103742
1.67125
-0.100205
1.67787
-0.0967587
1.68442
-0.0934065
1.6909
-0.090151
1.69729
-0.0869927
1.70359
-0.0839329
1.7098
-0.0809708
1.7159
-0.0781048
1.72191
-0.075335
1.7278
-0.0726592
1.73358
-0.0700764
1.73924
-0.0675853
1.74478
-0.0651828
1.75019
-0.0628674
1.75548
-0.0606376
1.76063
-0.0584924
1.76565
-0.0564286
1.77053
-0.0544435
1.77527
-0.0525358
1.77987
-0.0507032
1.78432
-0.0489438
1.78862
-0.0472557
1.79278
-0.045637
1.79679
-0.0440859
1.80065
-0.0426004
1.80437
-0.0411784
1.80794
-0.0398178
1.81138
-0.0385167
1.81467
-0.0372728
1.81783
-0.0360841
1.82085
-0.034949
1.82375
-0.0338656
1.82653
-0.0328326
1.82919
-0.031848
1.83174
-0.0309103
1.83418
-0.0300182
1.83652
-0.0291699
1.83877
-0.028364
1.84093
-0.0275989
1.84302
-0.0268737
1.84503
-0.0261869
1.84698
-0.0255374
1.84887
-0.0249237
1.85071
-0.0243448
1.85251
-0.0237993
1.85428
-0.0232865
1.85602
-0.0228048
1.85773
-0.0223532
1.85944
-0.0219301
1.86113
-0.0215347
1.86283
-0.021165
1.86452
-0.0208201
1.86623
-0.0204983
1.86795
-0.0201991
1.86969
-0.0199204
1.87145
-0.0196618
1.87323
-0.0194216
1.87504
-0.0191997
1.87687
-0.0189939
1.87875
-0.0188034
1.88065
-0.0186255
1.8826
-0.0184616
1.8846
-0.0183084
1.88665
-0.0181666
1.88876
-0.0180341
1.89097
-0.0179134
1.89332
-0.0178027
-0.0177124
1.99463
-0.100475
-2.01268
1.97512
-0.116556
1.95634
-0.13158
1.93885
-0.143183
1.92291
-0.151881
1.9085
-0.158402
1.89557
-0.163193
1.88401
-0.166521
1.87374
-0.1686
1.86464
-0.169623
1.85661
-0.169761
1.84956
-0.169157
1.84338
-0.16793
1.838
-0.166181
1.83334
-0.163996
1.82932
-0.161446
1.82589
-0.158596
1.82299
-0.155498
1.82057
-0.1522
1.81857
-0.148743
1.81696
-0.145163
1.81569
-0.141492
1.81473
-0.137757
1.81405
-0.133982
1.81362
-0.130188
1.81341
-0.126395
1.81338
-0.122618
1.81353
-0.11887
1.81383
-0.115163
1.81426
-0.111507
1.81481
-0.107911
1.81545
-0.104383
1.81617
-0.100928
1.81696
-0.0975513
1.81782
-0.0942569
1.81871
-0.091048
1.81965
-0.0879265
1.82061
-0.0848941
1.82159
-0.0819512
1.82258
-0.0790976
1.82358
-0.0763336
1.82458
-0.0736582
1.82558
-0.0710709
1.82656
-0.0685703
1.82753
-0.0661546
1.82849
-0.0638223
1.82942
-0.0615723
1.83034
-0.0594032
1.83122
-0.0573125
1.83207
-0.0552981
1.8329
-0.0533584
1.83369
-0.0514916
1.83444
-0.0496957
1.83515
-0.0479691
1.83582
-0.04631
1.83645
-0.0447165
1.83704
-0.0431867
1.83758
-0.0417188
1.83807
-0.0403105
1.83851
-0.0389599
1.8389
-0.0376649
1.83924
-0.0364233
1.83953
-0.0352334
1.83975
-0.0340935
1.83992
-0.033002
1.84003
-0.0319575
1.84008
-0.030958
1.84006
-0.0300018
1.83998
-0.0290874
1.83983
-0.028214
1.83961
-0.0273795
1.83932
-0.0265834
1.83896
-0.0258244
1.83852
-0.0251014
1.83801
-0.0244131
1.83742
-0.023759
1.83676
-0.0231376
1.83602
-0.0225483
1.83521
-0.02199
1.83432
-0.0214621
1.83335
-0.0209639
1.83231
-0.0204952
1.8312
-0.0200547
1.83002
-0.0196423
1.82878
-0.0192564
1.82748
-0.0188972
1.82612
-0.0185631
1.82471
-0.0182542
1.82326
-0.0179688
1.82177
-0.0177075
1.82024
-0.017468
1.81869
-0.017251
1.81711
-0.0170539
1.81553
-0.0168787
1.81395
-0.0167234
1.81237
-0.0165913
1.81082
-0.0164847
1.80932
-0.016416
1.80793
-0.0164103
-0.0165683
2.01353
-0.0825338
-2.03147
1.99607
-0.0991005
1.979
-0.114502
1.96304
-0.127226
1.94839
-0.137223
1.935
-0.145012
1.92281
-0.151008
1.91177
-0.155478
1.9018
-0.15863
1.89283
-0.160656
1.8848
-0.161724
1.87762
-0.161979
1.87123
-0.161545
1.86558
-0.160524
1.86059
-0.159006
1.85621
-0.157069
1.85239
-0.154778
1.84908
-0.152191
1.84624
-0.149359
1.84382
-0.146327
1.84179
-0.143132
1.84011
-0.139811
1.83874
-0.136392
1.83766
-0.132902
1.83684
-0.129366
1.83625
-0.125803
1.83586
-0.122231
1.83566
-0.118667
1.83562
-0.115123
1.83573
-0.111612
1.83596
-0.108143
1.8363
-0.104726
1.83674
-0.101368
1.83727
-0.098075
1.83786
-0.0948521
1.83852
-0.0917034
1.83923
-0.0886323
1.83997
-0.0856412
1.84075
-0.0827315
1.84156
-0.079904
1.84239
-0.0771596
1.84323
-0.0744982
1.84408
-0.0719197
1.84493
-0.0694234
1.84579
-0.0670081
1.84664
-0.0646731
1.84748
-0.0624174
1.84832
-0.0602395
1.84914
-0.0581379
1.84996
-0.0561108
1.85076
-0.0541568
1.85154
-0.0522739
1.8523
-0.0504605
1.85305
-0.0487152
1.85377
-0.0470365
1.85448
-0.0454227
1.85516
-0.0438721
1.85583
-0.0423827
1.85647
-0.0409525
1.85709
-0.0395795
1.85768
-0.0382617
1.85826
-0.0369969
1.85881
-0.0357837
1.85933
-0.0346204
1.85984
-0.0335051
1.86031
-0.0324361
1.86077
-0.0314121
1.8612
-0.0304317
1.8616
-0.0294929
1.86198
-0.0285947
1.86234
-0.0277358
1.86267
-0.0269148
1.86298
-0.0261302
1.86325
-0.025381
1.86351
-0.024666
1.86373
-0.0239842
1.86393
-0.0233344
1.8641
-0.0227159
1.86423
-0.0221276
1.86434
-0.0215689
1.86441
-0.0210385
1.86445
-0.020536
1.86446
-0.0200603
1.86443
-0.0196112
1.86436
-0.0191877
1.86425
-0.0187893
1.8641
-0.0184151
1.86391
-0.0180649
1.86368
-0.0177375
1.86341
-0.0174333
1.86309
-0.0171508
1.86273
-0.0168908
1.86233
-0.0166521
1.86188
-0.0164363
1.8614
-0.0162433
1.86089
-0.0160777
1.86035
-0.0159448
1.85979
-0.0158591
1.85923
-0.0158517
-0.0160242
2.02469
-0.0651504
-2.04207
2.00837
-0.0827784
1.99256
-0.0986942
1.9776
-0.112259
1.96368
-0.123301
1.95083
-0.13216
1.93902
-0.139202
1.92823
-0.144688
1.91842
-0.148818
1.90954
-0.151773
1.90153
-0.153714
1.89434
-0.154786
1.8879
-0.15511
1.88217
-0.154791
1.87708
-0.15392
1.87259
-0.152578
1.86865
-0.150833
1.8652
-0.148746
1.86221
-0.146372
1.85964
-0.143757
1.85745
-0.140942
1.85561
-0.137966
1.85407
-0.13486
1.85283
-0.131654
1.85183
-0.128374
1.85107
-0.125041
1.85052
-0.121677
1.85015
-0.118298
1.84994
-0.114919
1.84989
-0.111555
1.84996
-0.108216
1.85015
-0.104914
1.85044
-0.101656
1.85081
-0.0984507
1.85126
-0.0953033
1.85178
-0.0922193
1.85235
-0.089203
1.85297
-0.0862577
1.85362
-0.0833859
1.85431
-0.0805892
1.85502
-0.0778692
1.85575
-0.0752264
1.85649
-0.0726613
1.85724
-0.070174
1.858
-0.067764
1.85875
-0.0654308
1.85951
-0.0631739
1.86026
-0.0609922
1.86101
-0.0588844
1.86175
-0.056849
1.86248
-0.0548849
1.86319
-0.0529908
1.8639
-0.0511651
1.86459
-0.0494063
1.86526
-0.0477133
1.86593
-0.0460842
1.86657
-0.0445175
1.8672
-0.0430119
1.86781
-0.0415647
1.86841
-0.0401748
1.86898
-0.0388403
1.86955
-0.0375587
1.87009
-0.0363281
1.87062
-0.0351472
1.87112
-0.0340149
1.87162
-0.0329292
1.87209
-0.0318883
1.87255
-0.0308917
1.873
-0.0299378
1.87343
-0.0290247
1.87384
-0.0281511
1.87424
-0.0273156
1.87463
-0.0265169
1.875
-0.0257539
1.87536
-0.0250255
1.87571
-0.0243305
1.87604
-0.0236681
1.87636
-0.0230372
1.87667
-0.022437
1.87697
-0.0218666
1.87726
-0.0213249
1.87753
-0.0208113
1.8778
-0.0203249
1.87805
-0.0198651
1.87829
-0.0194313
1.87853
-0.0190228
1.87875
-0.0186388
1.87896
-0.018279
1.87917
-0.0179425
1.87936
-0.0176293
1.87955
-0.0173389
1.87973
-0.0170711
1.87991
-0.0168261
1.88007
-0.0166049
1.88024
-0.0164088
1.8804
-0.0162414
1.88057
-0.0161089
1.88073
-0.0160219
1.88088
-0.0159987
-0.016069
2.02974
-0.0486609
-2.04622
2.01434
-0.0673832
1.9996
-0.0839468
1.98558
-0.0982393
1.97246
-0.11018
1.96029
-0.119993
1.94908
-0.127983
1.93878
-0.134393
1.92938
-0.139415
1.92083
-0.143221
1.91308
-0.145968
1.90609
-0.147796
1.89981
-0.148825
1.89418
-0.149162
1.88916
-0.148899
1.8847
-0.148118
1.88075
-0.146891
1.87729
-0.145281
1.87426
-0.143343
1.87163
-0.141128
1.86937
-0.13868
1.86744
-0.136038
1.86581
-0.133236
1.86446
-0.130306
1.86337
-0.127276
1.86249
-0.124169
1.86183
-0.121008
1.86134
-0.117812
1.86102
-0.114598
1.86084
-0.111379
1.8608
-0.108171
1.86087
-0.104983
1.86104
-0.101827
1.8613
-0.0987099
1.86163
-0.0956396
1.86204
-0.0926223
1.8625
-0.0896629
1.86301
-0.086766
1.86355
-0.0839346
1.86414
-0.0811715
1.86475
-0.0784786
1.86538
-0.0758574
1.86603
-0.0733088
1.86669
-0.0708335
1.86735
-0.0684317
1.86803
-0.0661033
1.8687
-0.0638481
1.86937
-0.0616656
1.87004
-0.0595544
1.87071
-0.0575139
1.87137
-0.0555428
1.87202
-0.05364
1.87266
-0.0518046
1.87328
-0.0500351
1.8739
-0.0483301
1.8745
-0.0466884
1.8751
-0.0451083
1.87567
-0.0435879
1.87623
-0.0421265
1.87678
-0.0407217
1.87731
-0.0393717
1.87783
-0.0380749
1.87833
-0.0368305
1.87882
-0.0356358
1.87929
-0.0344893
1.87975
-0.0333898
1.8802
-0.0323352
1.88063
-0.0313248
1.88105
-0.0303574
1.88145
-0.0294313
1.88185
-0.0285451
1.88223
-0.0276975
1.8826