/*--------------------------------*- C++ -*----------------------------------*\
  =========                 |
  \\      /  F ield         | OpenFOAM: The Open Source CFD Toolbox
   \\    /   O peration     | Website:  https://openfoam.org
    \\  /    A nd           | Version:  8
     \\/     M anipulation  |
\*---------------------------------------------------------------------------*/
FoamFile
{
    version     2.0;
    format      ascii;
    class       volScalarField;
    location    "2.50002999";
    object      rho;
}
// * * * * * * * * * * * * * * * * * * * * * * * * * * * * * * * * * * * * * //

dimensions      [1 -3 0 0 0 0 0];

internalField   nonuniform List<scalar> 
6800
(
0.590115
0.590232
0.59031
0.590418
0.590605
0.590805
0.590954
0.59107
0.59115
0.591196
0.59002
0.590189
0.590268
0.590484
0.590725
0.590876
0.590992
0.591082
0.59116
0.591234
0.589595
0.590033
0.590237
0.590527
0.590718
0.590863
0.590984
0.59108
0.591168
0.591235
0.58905
0.589861
0.59018
0.590446
0.590668
0.590828
0.590948
0.591042
0.591128
0.591203
0.58848
0.589667
0.589979
0.590338
0.590577
0.590734
0.590863
0.590974
0.591079
0.591171
0.587885
0.589406
0.589784
0.590186
0.590438
0.590628
0.59078
0.590914
0.59103
0.591131
0.587335
0.589163
0.589532
0.590016
0.590301
0.590516
0.59069
0.590842
0.590977
0.591095
0.586846
0.588901
0.589321
0.589861
0.590169
0.590413
0.590618
0.590793
0.590943
0.591071
0.58647
0.588703
0.589123
0.589732
0.590055
0.590339
0.590564
0.590757
0.59092
0.591059
0.586207
0.588532
0.589007
0.58964
0.58999
0.590299
0.590541
0.590748
0.59092
0.591067
0.5905
0.590391
0.590333
0.590326
0.59034
0.59037
0.590414
0.590469
0.590536
0.590611
0.590468
0.59037
0.590316
0.590307
0.59032
0.590348
0.590393
0.590452
0.590526
0.59061
0.590402
0.590325
0.590283
0.590276
0.590288
0.590316
0.590366
0.590434
0.59052
0.590618
0.590319
0.59027
0.590245
0.590245
0.590262
0.590295
0.590355
0.59044
0.590542
0.590652
0.59024
0.590224
0.59022
0.590233
0.590262
0.590314
0.590392
0.590482
0.590588
0.590698
0.590178
0.590195
0.59022
0.590258
0.590315
0.590387
0.590465
0.590547
0.590648
0.590746
0.590133
0.590188
0.590255
0.590333
0.590412
0.590475
0.590538
0.590613
0.590704
0.590807
0.5901
0.59021
0.590318
0.590428
0.59048
0.590528
0.590591
0.590682
0.590782
0.590936
0.590061
0.590211
0.590394
0.590456
0.590497
0.590562
0.590667
0.590804
0.590941
0.591112
0.590062
0.590222
0.590373
0.590433
0.590512
0.590651
0.590822
0.59097
0.591113
0.59122
0.590703
0.590802
0.590885
0.590957
0.591022
0.591081
0.591137
0.591188
0.591235
0.591278
0.591318
0.591354
0.591388
0.59142
0.591449
0.591476
0.5915
0.591523
0.591543
0.591561
0.591578
0.591593
0.591607
0.591619
0.591629
0.591639
0.591647
0.591655
0.591661
0.591667
0.591672
0.591676
0.59168
0.591683
0.591686
0.591688
0.59169
0.591691
0.591692
0.591692
0.591693
0.591692
0.591692
0.591692
0.591691
0.591691
0.59169
0.591689
0.591689
0.591689
0.591689
0.59169
0.59169
0.591691
0.591693
0.591694
0.591696
0.591698
0.591701
0.591703
0.591706
0.591708
0.591711
0.591713
0.591716
0.591718
0.59172
0.591722
0.591724
0.591726
0.591728
0.591729
0.59173
0.591731
0.591732
0.591732
0.591733
0.591733
0.591734
0.591734
0.591734
0.591734
0.591735
0.591735
0.591736
0.591736
0.591737
0.591738
0.59174
0.591741
0.591743
0.591745
0.591748
0.59175
0.591753
0.591756
0.59176
0.591763
0.591768
0.591771
0.590699
0.590799
0.590882
0.590953
0.591018
0.591077
0.591131
0.591182
0.591229
0.591272
0.591312
0.591349
0.591383
0.591415
0.591444
0.591471
0.591496
0.591518
0.591539
0.591558
0.591574
0.591589
0.591603
0.591615
0.591626
0.591635
0.591643
0.591651
0.591658
0.591663
0.591668
0.591673
0.591677
0.59168
0.591683
0.591685
0.591687
0.591688
0.591689
0.591689
0.59169
0.59169
0.591689
0.591689
0.591689
0.591688
0.591688
0.591688
0.591688
0.591688
0.591688
0.591689
0.59169
0.591691
0.591692
0.591694
0.591696
0.591698
0.5917
0.591703
0.591705
0.591708
0.59171
0.591713
0.591715
0.591717
0.591719
0.591721
0.591723
0.591725
0.591726
0.591728
0.591729
0.59173
0.59173
0.591731
0.591731
0.591732
0.591732
0.591732
0.591733
0.591733
0.591733
0.591734
0.591735
0.591735
0.591736
0.591738
0.591739
0.591741
0.591743
0.591745
0.591748
0.59175
0.591753
0.591756
0.59176
0.591763
0.591768
0.591771
0.590703
0.5908
0.59088
0.59095
0.591013
0.591071
0.591124
0.591174
0.59122
0.591264
0.591303
0.59134
0.591375
0.591407
0.591437
0.591464
0.591489
0.591512
0.591533
0.591552
0.591569
0.591584
0.591598
0.59161
0.591621
0.59163
0.591639
0.591647
0.591653
0.591659
0.591665
0.591669
0.591673
0.591676
0.591679
0.591682
0.591683
0.591685
0.591686
0.591687
0.591687
0.591687
0.591687
0.591687
0.591687
0.591687
0.591687
0.591687
0.591687
0.591688
0.591688
0.591689
0.59169
0.591692
0.591693
0.591695
0.591697
0.591699
0.591701
0.591703
0.591706
0.591708
0.59171
0.591712
0.591715
0.591717
0.591719
0.59172
0.591722
0.591724
0.591725
0.591726
0.591727
0.591728
0.591729
0.591729
0.59173
0.59173
0.591731
0.591731
0.591731
0.591732
0.591732
0.591733
0.591734
0.591735
0.591736
0.591737
0.591739
0.591741
0.591743
0.591745
0.591748
0.59175
0.591754
0.591757
0.59176
0.591763
0.591768
0.591771
0.590712
0.590798
0.590877
0.590946
0.591007
0.591065
0.591118
0.591168
0.591215
0.591258
0.591298
0.591335
0.59137
0.591403
0.591433
0.591461
0.591486
0.591509
0.59153
0.59155
0.591567
0.591583
0.591597
0.591609
0.59162
0.59163
0.591639
0.591647
0.591654
0.591661
0.591666
0.591671
0.591675
0.591678
0.591681
0.591684
0.591686
0.591687
0.591688
0.591689
0.59169
0.59169
0.591691
0.591691
0.591691
0.591691
0.591691
0.591691
0.591692
0.591692
0.591693
0.591694
0.591695
0.591697
0.591698
0.5917
0.591701
0.591703
0.591705
0.591707
0.591709
0.591711
0.591713
0.591715
0.591717
0.591718
0.59172
0.591722
0.591723
0.591724
0.591726
0.591727
0.591728
0.591728
0.591729
0.59173
0.59173
0.591731
0.591731
0.591732
0.591732
0.591733
0.591733
0.591734
0.591735
0.591736
0.591737
0.591739
0.591741
0.591742
0.591744
0.591747
0.591749
0.591752
0.591755
0.591758
0.591761
0.591764
0.591768
0.591771
0.59072
0.590794
0.590877
0.590948
0.59101
0.591069
0.591124
0.591175
0.591223
0.591267
0.591308
0.591347
0.591383
0.591416
0.591446
0.591474
0.5915
0.591524
0.591545
0.591564
0.591582
0.591597
0.591612
0.591624
0.591636
0.591646
0.591655
0.591663
0.59167
0.591676
0.591682
0.591686
0.59169
0.591694
0.591696
0.591699
0.5917
0.591702
0.591703
0.591704
0.591705
0.591705
0.591705
0.591706
0.591706
0.591706
0.591706
0.591706
0.591706
0.591707
0.591707
0.591708
0.591709
0.59171
0.591711
0.591713
0.591714
0.591715
0.591717
0.591718
0.591719
0.591721
0.591722
0.591724
0.591725
0.591726
0.591728
0.591729
0.59173
0.591731
0.591732
0.591733
0.591733
0.591734
0.591735
0.591735
0.591736
0.591736
0.591737
0.591737
0.591738
0.591738
0.591739
0.59174
0.591741
0.591742
0.591743
0.591744
0.591746
0.591748
0.59175
0.591752
0.591754
0.591757
0.59176
0.591762
0.591765
0.591768
0.591772
0.591774
0.590736
0.59081
0.590903
0.590983
0.59105
0.591112
0.59117
0.591224
0.591274
0.591321
0.591364
0.591402
0.591439
0.591472
0.591502
0.59153
0.591555
0.591578
0.591598
0.591617
0.591634
0.591649
0.591662
0.591674
0.591685
0.591694
0.591703
0.59171
0.591716
0.591722
0.591726
0.59173
0.591733
0.591735
0.591737
0.591739
0.59174
0.591741
0.591741
0.591741
0.591741
0.591741
0.591741
0.591741
0.591741
0.59174
0.591739
0.591739
0.591738
0.591738
0.591738
0.591738
0.591738
0.591738
0.591739
0.591739
0.59174
0.59174
0.591741
0.591741
0.591742
0.591742
0.591743
0.591744
0.591744
0.591745
0.591745
0.591746
0.591747
0.591747
0.591748
0.591748
0.591748
0.591749
0.591749
0.591749
0.59175
0.59175
0.59175
0.59175
0.591751
0.591751
0.591752
0.591753
0.591753
0.591754
0.591755
0.591757
0.591758
0.59176
0.591761
0.591763
0.591765
0.591767
0.591769
0.591772
0.591774
0.591776
0.591779
0.591781
0.590784
0.590867
0.590976
0.591069
0.591146
0.591215
0.59128
0.591341
0.591396
0.591445
0.591491
0.591532
0.591569
0.591603
0.591632
0.591659
0.591682
0.591703
0.591722
0.591738
0.591752
0.591765
0.591776
0.591785
0.591793
0.5918
0.591806
0.591811
0.591815
0.591818
0.59182
0.591821
0.591822
0.591822
0.591821
0.591821
0.59182
0.591818
0.591817
0.591815
0.591814
0.591812
0.59181
0.591809
0.591808
0.591806
0.591802
0.5918
0.591798
0.591796
0.591794
0.591793
0.591791
0.59179
0.591789
0.591788
0.591787
0.591786
0.591785
0.591784
0.591783
0.591782
0.591782
0.591781
0.59178
0.59178
0.59178
0.591779
0.591779
0.591779
0.591778
0.591778
0.591778
0.591778
0.591777
0.591777
0.591777
0.591777
0.591776
0.591776
0.591776
0.591776
0.591776
0.591777
0.591777
0.591778
0.591778
0.591779
0.59178
0.591781
0.591782
0.591783
0.591785
0.591786
0.591788
0.591789
0.591791
0.591792
0.591794
0.591796
0.590912
0.590988
0.591102
0.591202
0.591285
0.591359
0.591428
0.591491
0.591548
0.5916
0.591648
0.59169
0.591728
0.591763
0.591793
0.591821
0.591845
0.591866
0.591885
0.591902
0.591916
0.591929
0.591939
0.591948
0.591955
0.591961
0.591966
0.59197
0.591972
0.591973
0.591973
0.591972
0.59197
0.591968
0.591965
0.591961
0.591957
0.591953
0.591948
0.591944
0.591939
0.591934
0.591929
0.591924
0.591919
0.591914
0.591909
0.591904
0.591899
0.591894
0.59189
0.591885
0.591881
0.591877
0.591873
0.591869
0.591865
0.591862
0.591859
0.591856
0.591853
0.59185
0.591847
0.591845
0.591842
0.59184
0.591838
0.591837
0.591835
0.591833
0.591832
0.59183
0.591829
0.591827
0.591826
0.591825
0.591824
0.591822
0.591821
0.59182
0.591819
0.591818
0.591818
0.591817
0.591817
0.591816
0.591816
0.591816
0.591816
0.591816
0.591816
0.591816
0.591817
0.591817
0.591818
0.591818
0.591819
0.591819
0.59182
0.591821
0.59109
0.591153
0.591255
0.591351
0.591433
0.591505
0.591571
0.591631
0.591685
0.591734
0.591779
0.591819
0.591855
0.591887
0.591917
0.591943
0.591966
0.591987
0.592006
0.592023
0.592038
0.592052
0.592063
0.592074
0.592082
0.59209
0.592097
0.592102
0.592106
0.592109
0.592111
0.592113
0.592113
0.592113
0.592112
0.59211
0.592108
0.592105
0.592102
0.592099
0.592095
0.59209
0.592085
0.59208
0.592074
0.592068
0.592062
0.592055
0.592048
0.592042
0.592034
0.592027
0.59202
0.592013
0.592005
0.591998
0.591991
0.591985
0.591978
0.591972
0.591966
0.59196
0.591954
0.591949
0.591944
0.591939
0.591935
0.59193
0.591926
0.591922
0.591918
0.591915
0.591911
0.591908
0.591905
0.591902
0.591899
0.591896
0.591893
0.59189
0.591888
0.591885
0.591883
0.591881
0.591879
0.591877
0.591876
0.591874
0.591873
0.591871
0.59187
0.591869
0.591867
0.591866
0.591865
0.591864
0.591864
0.591863
0.591863
0.591862
0.591215
0.591271
0.591353
0.591436
0.591512
0.59158
0.591643
0.5917
0.591752
0.591799
0.591842
0.591881
0.591917
0.591948
0.591977
0.592003
0.592026
0.592047
0.592065
0.592082
0.592097
0.592111
0.592123
0.592133
0.592142
0.59215
0.592157
0.592163
0.592168
0.592173
0.592176
0.592179
0.592181
0.592182
0.592183
0.592184
0.592184
0.592183
0.592183
0.592182
0.592181
0.592179
0.592178
0.592175
0.592172
0.592169
0.592166
0.592163
0.592159
0.592156
0.592152
0.592148
0.592143
0.592139
0.592134
0.592129
0.592124
0.592119
0.592114
0.592109
0.592104
0.592098
0.592093
0.592087
0.592081
0.592076
0.59207
0.592064
0.592059
0.592053
0.592047
0.592041
0.592036
0.59203
0.592024
0.592019
0.592013
0.592008
0.592002
0.591997
0.591992
0.591987
0.591982
0.591977
0.591973
0.591969
0.591965
0.591961
0.591958
0.591954
0.591951
0.591948
0.591945
0.591942
0.591939
0.591936
0.591934
0.591931
0.591929
0.591926
0.59131
0.591372
0.591443
0.591517
0.591586
0.59165
0.591708
0.591762
0.591811
0.591855
0.591896
0.591932
0.591966
0.591996
0.592023
0.592047
0.592069
0.592088
0.592106
0.592122
0.592136
0.592149
0.59216
0.59217
0.592178
0.592186
0.592192
0.592198
0.592203
0.592207
0.59221
0.592212
0.592214
0.592216
0.592216
0.592217
0.592217
0.592217
0.592217
0.592216
0.592216
0.592215
0.592213
0.592212
0.59221
0.592208
0.592207
0.592205
0.592203
0.592201
0.592198
0.592196
0.592194
0.592192
0.59219
0.592187
0.592185
0.592182
0.59218
0.592177
0.592175
0.592172
0.59217
0.592167
0.592164
0.592161
0.592158
0.592155
0.592152
0.592149
0.592146
0.592142
0.592139
0.592136
0.592132
0.592129
0.592125
0.592122
0.592118
0.592114
0.59211
0.592105
0.592101
0.592096
0.592091
0.592086
0.592082
0.592077
0.592072
0.592067
0.592062
0.592057
0.592053
0.592048
0.592043
0.592038
0.592034
0.592029
0.592025
0.592019
0.591379
0.591447
0.591517
0.591586
0.59165
0.591709
0.591763
0.591813
0.591858
0.5919
0.591937
0.591971
0.592002
0.59203
0.592055
0.592078
0.592098
0.592116
0.592133
0.592147
0.59216
0.592172
0.592182
0.592191
0.592198
0.592205
0.592211
0.592216
0.59222
0.592223
0.592226
0.592228
0.59223
0.592231
0.592232
0.592232
0.592232
0.592232
0.592232
0.592231
0.59223
0.592229
0.592228
0.592227
0.592226
0.592224
0.592222
0.592221
0.592219
0.592218
0.592216
0.592214
0.592213
0.592211
0.592209
0.592207
0.592205
0.592203
0.592202
0.5922
0.592199
0.592197
0.592196
0.592194
0.592193
0.592191
0.592189
0.592187
0.592185
0.592183
0.592181
0.59218
0.592178
0.592177
0.592175
0.592174
0.592172
0.59217
0.592169
0.592167
0.592166
0.592164
0.592162
0.59216
0.592158
0.592156
0.592154
0.592152
0.59215
0.592147
0.592145
0.592142
0.592139
0.592137
0.592134
0.59213
0.592127
0.592124
0.59212
0.592115
0.591436
0.591497
0.591564
0.591626
0.591685
0.591739
0.591789
0.591836
0.591878
0.591918
0.591953
0.591986
0.592015
0.592042
0.592067
0.592088
0.592108
0.592126
0.592142
0.592156
0.592168
0.59218
0.592189
0.592198
0.592205
0.592212
0.592218
0.592222
0.592226
0.59223
0.592232
0.592235
0.592236
0.592238
0.592239
0.592239
0.59224
0.59224
0.592239
0.592239
0.592238
0.592237
0.592236
0.592235
0.592234
0.592232
0.592231
0.592229
0.592228
0.592226
0.592225
0.592223
0.592221
0.59222
0.592218
0.592217
0.592215
0.592214
0.592212
0.59221
0.592209
0.592207
0.592207
0.592205
0.592203
0.592202
0.5922
0.592198
0.592196
0.592195
0.592194
0.592193
0.592192
0.592191
0.59219
0.592189
0.592188
0.592187
0.592186
0.592185
0.592184
0.592183
0.592182
0.592181
0.59218
0.592179
0.592178
0.592177
0.592176
0.592175
0.592174
0.592173
0.592172
0.59217
0.592169
0.592168
0.592167
0.592165
0.592164
0.592162
0.591489
0.591545
0.591608
0.591667
0.591721
0.591771
0.591818
0.591861
0.591902
0.591938
0.591972
0.592003
0.592031
0.592056
0.592079
0.5921
0.592119
0.592135
0.59215
0.592164
0.592176
0.592186
0.592196
0.592204
0.592211
0.592217
0.592223
0.592227
0.592231
0.592234
0.592237
0.592239
0.592241
0.592242
0.592243
0.592243
0.592244
0.592244
0.592244
0.592243
0.592243
0.592242
0.592241
0.59224
0.592238
0.592237
0.592236
0.592234
0.592233
0.592232
0.59223
0.592229
0.592227
0.592226
0.592225
0.592223
0.592222
0.592221
0.592219
0.592217
0.592216
0.592213
0.592211
0.59221
0.592208
0.592207
0.592206
0.592204
0.592203
0.592202
0.592201
0.5922
0.592199
0.592198
0.592198
0.592197
0.592196
0.592195
0.592194
0.592193
0.592192
0.592191
0.59219
0.592189
0.592189
0.592188
0.592187
0.592186
0.592185
0.592184
0.592184
0.592183
0.592182
0.592182
0.592181
0.59218
0.59218
0.592179
0.592178
0.592177
0.591541
0.591591
0.59165
0.591705
0.591754
0.5918
0.591843
0.591883
0.591921
0.591955
0.591986
0.592015
0.592042
0.592066
0.592087
0.592107
0.592125
0.592141
0.592156
0.592168
0.59218
0.59219
0.592199
0.592207
0.592214
0.59222
0.592225
0.592229
0.592233
0.592236
0.592239
0.592241
0.592243
0.592244
0.592245
0.592246
0.592246
0.592246
0.592246
0.592246
0.592245
0.592244
0.592243
0.592243
0.592242
0.59224
0.592239
0.592238
0.592236
0.592235
0.592233
0.592232
0.59223
0.592229
0.592228
0.592227
0.592225
0.592224
0.592223
0.592222
0.59222
0.592219
0.592218
0.592216
0.592215
0.592213
0.592211
0.59221
0.592208
0.592208
0.592207
0.592206
0.592205
0.592204
0.592203
0.592202
0.592202
0.592201
0.5922
0.592199
0.592198
0.592197
0.592197
0.592196
0.592195
0.592194
0.592193
0.592193
0.592192
0.592191
0.59219
0.59219
0.592189
0.592188
0.592188
0.592187
0.592186
0.592185
0.592185
0.592184
0.591592
0.591637
0.591691
0.591741
0.591786
0.591828
0.591868
0.591905
0.591939
0.591971
0.592001
0.592028
0.592053
0.592075
0.592096
0.592114
0.592131
0.592147
0.59216
0.592172
0.592183
0.592193
0.592202
0.592209
0.592216
0.592221
0.592226
0.59223
0.592234
0.592237
0.592239
0.592242
0.592243
0.592244
0.592245
0.592246
0.592246
0.592247
0.592247
0.592246
0.592246
0.592245
0.592244
0.592244
0.592243
0.592242
0.59224
0.592239
0.592238
0.592237
0.592235
0.592234
0.592232
0.592231
0.59223
0.592229
0.592227
0.592227
0.592225
0.592224
0.592222
0.59222
0.592219
0.592217
0.592216
0.592215
0.592214
0.592213
0.592212
0.592211
0.59221
0.592209
0.592209
0.592208
0.592207
0.592206
0.592205
0.592205
0.592204
0.592203
0.592202
0.592201
0.592201
0.5922
0.592199
0.592198
0.592198
0.592197
0.592196
0.592195
0.592195
0.592194
0.592193
0.592193
0.592192
0.592191
0.592191
0.59219
0.592189
0.592189
0.591642
0.591682
0.591731
0.591776
0.591817
0.591855
0.591892
0.591926
0.591958
0.591987
0.592015
0.59204
0.592063
0.592084
0.592103
0.59212
0.592136
0.592151
0.592163
0.592175
0.592185
0.592195
0.592203
0.59221
0.592216
0.592222
0.592227
0.592231
0.592234
0.592237
0.592239
0.592241
0.592243
0.592244
0.592245
0.592246
0.592246
0.592246
0.592246
0.592246
0.592246
0.592245
0.592245
0.592244
0.592243
0.592242
0.592241
0.59224
0.592239
0.592237
0.592236
0.592235
0.592233
0.592232
0.592231
0.59223
0.592229
0.592228
0.592227
0.592225
0.592225
0.592223
0.592222
0.59222
0.592219
0.592218
0.592216
0.592215
0.592215
0.592214
0.592213
0.592212
0.592211
0.592211
0.59221
0.592209
0.592209
0.592208
0.592207
0.592206
0.592206
0.592205
0.592204
0.592204
0.592203
0.592202
0.592202
0.592201
0.592201
0.5922
0.592199
0.592199
0.592198
0.592198
0.592197
0.592196
0.592196
0.592195
0.592194
0.592194
0.591692
0.591726
0.59177
0.591811
0.591848
0.591883
0.591916
0.591947
0.591976
0.592003
0.592028
0.592052
0.592073
0.592093
0.59211
0.592127
0.592141
0.592155
0.592167
0.592178
0.592187
0.592196
0.592204
0.592211
0.592217
0.592222
0.592226
0.59223
0.592233
0.592236
0.592238
0.59224
0.592242
0.592243
0.592244
0.592245
0.592245
0.592245
0.592245
0.592245
0.592245
0.592244
0.592244
0.592243
0.592242
0.592241
0.59224
0.592239
0.592238
0.592237
0.592236
0.592235
0.592234
0.592233
0.592231
0.59223
0.592229
0.592228
0.592227
0.592226
0.592225
0.592224
0.592223
0.592221
0.59222
0.592219
0.592218
0.592217
0.592216
0.592215
0.592215
0.592214
0.592213
0.592213
0.592212
0.592211
0.592211
0.59221
0.592209
0.592209
0.592208
0.592207
0.592207
0.592206
0.592206
0.592205
0.592204
0.592204
0.592203
0.592203
0.592202
0.592202
0.592201
0.5922
0.5922
0.592199
0.592199
0.592198
0.592197
0.592197
0.59174
0.59177
0.591809
0.591845
0.591879
0.59191
0.59194
0.591968
0.591995
0.592019
0.592042
0.592064
0.592083
0.592101
0.592118
0.592133
0.592146
0.592159
0.59217
0.59218
0.592189
0.592197
0.592204
0.592211
0.592216
0.592221
0.592225
0.592229
0.592232
0.592235
0.592237
0.592239
0.59224
0.592242
0.592242
0.592243
0.592243
0.592244
0.592244
0.592244
0.592243
0.592243
0.592243
0.592242
0.592241
0.59224
0.592239
0.592238
0.592237
0.592236
0.592235
0.592234
0.592233
0.592232
0.592231
0.59223
0.59223
0.592229
0.592227
0.592226
0.592225
0.592224
0.592223
0.592222
0.592221
0.59222
0.592219
0.592218
0.592217
0.592217
0.592216
0.592216
0.592215
0.592214
0.592214
0.592213
0.592212
0.592212
0.592211
0.592211
0.59221
0.592209
0.592209
0.592208
0.592208
0.592207
0.592207
0.592206
0.592206
0.592205
0.592205
0.592204
0.592204
0.592203
0.592203
0.592202
0.592201
0.5922
0.5922
0.592199
0.591787
0.591812
0.591847
0.591879
0.591909
0.591937
0.591963
0.591989
0.592013
0.592035
0.592056
0.592076
0.592093
0.59211
0.592125
0.592139
0.592151
0.592163
0.592173
0.592182
0.59219
0.592198
0.592205
0.59221
0.592216
0.59222
0.592224
0.592228
0.59223
0.592233
0.592235
0.592237
0.592238
0.592239
0.59224
0.592241
0.592241
0.592241
0.592242
0.592241
0.592241
0.592241
0.59224
0.59224
0.592239
0.592238
0.592238
0.592237
0.592236
0.592235
0.592234
0.592233
0.592232
0.592231
0.59223
0.59223
0.592229
0.592228
0.592227
0.592226
0.592225
0.592225
0.592224
0.592223
0.592222
0.59222
0.592219
0.592218
0.592217
0.592217
0.592216
0.592215
0.592215
0.592214
0.592214
0.592213
0.592212
0.592212
0.592211
0.592211
0.59221
0.59221
0.592209
0.592209
0.592208
0.592208
0.592207
0.592207
0.592206
0.592206
0.592205
0.592205
0.592204
0.592204
0.592203
0.592203
0.592202
0.592202
0.592201
0.592201
0.591832
0.591854
0.591884
0.591912
0.591939
0.591963
0.591987
0.59201
0.592031
0.592051
0.59207
0.592087
0.592104
0.592118
0.592132
0.592144
0.592156
0.592166
0.592176
0.592184
0.592192
0.592198
0.592205
0.59221
0.592215
0.592219
0.592223
0.592226
0.592228
0.592231
0.592233
0.592234
0.592236
0.592237
0.592238
0.592238
0.592239
0.592239
0.592239
0.592239
0.592239
0.592239
0.592238
0.592238
0.592237
0.592236
0.592236
0.592235
0.592234
0.592233
0.592232
0.592232
0.592231
0.59223
0.592229
0.592228
0.592228
0.592227
0.592226
0.592225
0.592224
0.592224
0.592222
0.592222
0.592221
0.59222
0.592219
0.592218
0.592218
0.592217
0.592216
0.592216
0.592215
0.592215
0.592214
0.592214
0.592213
0.592213
0.592212
0.592212
0.592211
0.592211
0.59221
0.59221
0.592209
0.592209
0.592208
0.592208
0.592207
0.592207
0.592207
0.592206
0.592206
0.592205
0.592205
0.592204
0.592204
0.592204
0.592203
0.592203
0.591876
0.591894
0.59192
0.591945
0.591968
0.591989
0.59201
0.59203
0.592049
0.592067
0.592084
0.592099
0.592114
0.592127
0.592139
0.59215
0.592161
0.59217
0.592178
0.592186
0.592193
0.592199
0.592204
0.592209
0.592214
0.592217
0.592221
0.592224
0.592226
0.592228
0.59223
0.592232
0.592233
0.592234
0.592235
0.592235
0.592235
0.592236
0.592236
0.592236
0.592236
0.592236
0.592235
0.592235
0.592234
0.592234
0.592233
0.592232
0.592232
0.592231
0.59223
0.592229
0.592229
0.592228
0.592227
0.592226
0.592226
0.592225
0.592224
0.592224
0.592223
0.592222
0.592221
0.59222
0.592219
0.592219
0.592218
0.592217
0.592217
0.592216
0.592216
0.592215
0.592215
0.592214
0.592214
0.592213
0.592213
0.592213
0.592212
0.592212
0.592211
0.592211
0.59221
0.59221
0.592209
0.592209
0.592209
0.592208
0.592208
0.592208
0.592207
0.592207
0.592206
0.592206
0.592206
0.592205
0.592205
0.592205
0.592204
0.592204
0.591919
0.591934
0.591956
0.591977
0.591997
0.592015
0.592034
0.592051
0.592068
0.592083
0.592098
0.592111
0.592124
0.592136
0.592146
0.592156
0.592165
0.592174
0.592181
0.592188
0.592194
0.592199
0.592204
0.592209
0.592212
0.592216
0.592219
0.592221
0.592224
0.592226
0.592227
0.592229
0.59223
0.592231
0.592231
0.592232
0.592232
0.592232
0.592232
0.592232
0.592232
0.592232
0.592232
0.592232
0.592231
0.592231
0.59223
0.59223
0.592229
0.592228
0.592228
0.592227
0.592227
0.592226
0.592225
0.592225
0.592224
0.592223
0.592223
0.592222
0.592221
0.592221
0.59222
0.592219
0.592218
0.592218
0.592217
0.592217
0.592216
0.592216
0.592215
0.592215
0.592214
0.592214
0.592214
0.592213
0.592213
0.592212
0.592212
0.592211
0.592211
0.592211
0.59221
0.59221
0.59221
0.592209
0.592209
0.592209
0.592208
0.592208
0.592207
0.592207
0.592207
0.592206
0.592206
0.592206
0.592205
0.592205
0.592205
0.592204
0.59196
0.591972
0.591991
0.592009
0.592025
0.592041
0.592057
0.592071
0.592086
0.592099
0.592112
0.592123
0.592134
0.592144
0.592154
0.592162
0.59217
0.592177
0.592184
0.59219
0.592195
0.5922
0.592204
0.592208
0.592211
0.592214
0.592217
0.592219
0.592221
0.592223
0.592224
0.592225
0.592226
0.592227
0.592228
0.592228
0.592228
0.592229
0.592229
0.592229
0.592229
0.592229
0.592228
0.592228
0.592228
0.592227
0.592227
0.592227
0.592226
0.592225
0.592225
0.592224
0.592224
0.592223
0.592222
0.592222
0.592221
0.592221
0.59222
0.592219
0.592219
0.592218
0.592218
0.592217
0.592217
0.592216
0.592216
0.592215
0.592215
0.592215
0.592214
0.592214
0.592214
0.592213
0.592213
0.592213
0.592212
0.592212
0.592212
0.592211
0.592211
0.59221
0.59221
0.59221
0.59221
0.592209
0.592209
0.592209
0.592208
0.592208
0.592208
0.592208
0.592207
0.592207
0.592207
0.592206
0.592206
0.592206
0.592206
0.592205
0.592
0.59201
0.592025
0.59204
0.592053
0.592067
0.592079
0.592092
0.592104
0.592115
0.592125
0.592135
0.592144
0.592153
0.592161
0.592168
0.592175
0.592181
0.592186
0.592191
0.592196
0.5922
0.592204
0.592207
0.59221
0.592212
0.592215
0.592217
0.592218
0.59222
0.592221
0.592222
0.592223
0.592224
0.592224
0.592225
0.592225
0.592225
0.592225
0.592225
0.592225
0.592225
0.592225
0.592225
0.592224
0.592224
0.592224
0.592223
0.592223
0.592223
0.592222
0.592222
0.592221
0.592221
0.59222
0.59222
0.592219
0.592219
0.592218
0.592218
0.592217
0.592217
0.592216
0.592216
0.592216
0.592215
0.592215
0.592214
0.592214
0.592214
0.592214
0.592213
0.592213
0.592213
0.592212
0.592212
0.592212
0.592211
0.592211
0.592211
0.592211
0.59221
0.59221
0.59221
0.59221
0.592209
0.592209
0.592209
0.592209
0.592208
0.592208
0.592208
0.592208
0.592207
0.592207
0.592207
0.592206
0.592206
0.592206
0.592206
0.592039
0.592046
0.592058
0.59207
0.592081
0.592092
0.592102
0.592112
0.592122
0.592131
0.592139
0.592147
0.592155
0.592162
0.592168
0.592174
0.59218
0.592185
0.592189
0.592193
0.592197
0.5922
0.592203
0.592206
0.592208
0.59221
0.592212
0.592214
0.592215
0.592217
0.592218
0.592219
0.592219
0.59222
0.59222
0.592221
0.592221
0.592221
0.592221
0.592221
0.592221
0.592221
0.592221
0.592221
0.592221
0.592221
0.592221
0.59222
0.59222
0.59222
0.592219
0.592219
0.592219
0.592218
0.592218
0.592218
0.592217
0.592217
0.592216
0.592216
0.592216
0.592215
0.592215
0.592215
0.592214
0.592214
0.592214
0.592213
0.592213
0.592213
0.592213
0.592212
0.592212
0.592212
0.592212
0.592211
0.592211
0.592211
0.592211
0.59221
0.59221
0.59221
0.59221
0.59221
0.592209
0.592209
0.592209
0.592209
0.592208
0.592208
0.592208
0.592208
0.592208
0.592207
0.592207
0.592207
0.592207
0.592206
0.592206
0.592206
0.592077
0.592082
0.592091
0.5921
0.592109
0.592117
0.592125
0.592132
0.59214
0.592147
0.592153
0.59216
0.592165
0.592171
0.592176
0.59218
0.592184
0.592188
0.592192
0.592195
0.592198
0.592201
0.592203
0.592205
0.592207
0.592209
0.592211
0.592212
0.592213
0.592214
0.592215
0.592216
0.592216
0.592217
0.592217
0.592218
0.592218
0.592218
0.592218
0.592218
0.592218
0.592218
0.592218
0.592218
0.592218
0.592218
0.592218
0.592218
0.592218
0.592217
0.592217
0.592217
0.592217
0.592216
0.592216
0.592216
0.592215
0.592215
0.592215
0.592214
0.592214
0.592214
0.592214
0.592213
0.592213
0.592213
0.592213
0.592212
0.592212
0.592212
0.592212
0.592212
0.592211
0.592211
0.592211
0.592211
0.592211
0.59221
0.59221
0.59221
0.59221
0.59221
0.592209
0.592209
0.592209
0.592209
0.592209
0.592208
0.592208
0.592208
0.592208
0.592208
0.592207
0.592207
0.592207
0.592207
0.592207
0.592206
0.592206
0.592206
0.592113
0.592117
0.592124
0.59213
0.592136
0.592141
0.592147
0.592152
0.592158
0.592162
0.592167
0.592172
0.592176
0.59218
0.592183
0.592187
0.59219
0.592193
0.592195
0.592198
0.5922
0.592202
0.592204
0.592205
0.592207
0.592208
0.592209
0.59221
0.592211
0.592212
0.592213
0.592213
0.592214
0.592214
0.592215
0.592215
0.592215
0.592215
0.592215
0.592215
0.592215
0.592215
0.592215
0.592215
0.592215
0.592215
0.592215
0.592215
0.592215
0.592214
0.592214
0.592214
0.592214
0.592213
0.592213
0.592213
0.592213
0.592213
0.592212
0.592212
0.592212
0.592212
0.592211
0.592211
0.592211
0.592211
0.592211
0.59221
0.59221
0.59221
0.59221
0.59221
0.59221
0.59221
0.592209
0.592209
0.592209
0.592209
0.592209
0.592209
0.592209
0.592208
0.592208
0.592208
0.592208
0.592208
0.592208
0.592207
0.592207
0.592207
0.592207
0.592207
0.592207
0.592207
0.592207
0.592206
0.592206
0.592206
0.592206
0.592206
0.59215
0.592152
0.592156
0.592159
0.592163
0.592166
0.592169
0.592173
0.592176
0.592179
0.592182
0.592185
0.592188
0.59219
0.592192
0.592194
0.592196
0.592198
0.5922
0.592202
0.592203
0.592204
0.592205
0.592206
0.592207
0.592208
0.592209
0.592209
0.59221
0.59221
0.592211
0.592211
0.592211
0.592212
0.592212
0.592212
0.592212
0.592212
0.592212
0.592212
0.592212
0.592212
0.592212
0.592211
0.592211
0.592211
0.592211
0.592211
0.592211
0.59221
0.59221
0.59221
0.59221
0.59221
0.59221
0.59221
0.592209
0.592209
0.592209
0.592209
0.592209
0.592209
0.592208
0.592208
0.592208
0.592208
0.592208
0.592208
0.592208
0.592208
0.592208
0.592208
0.592208
0.592208
0.592208
0.592208
0.592207
0.592207
0.592207
0.592207
0.592207
0.592207
0.592207
0.592207
0.592207
0.592207
0.592207
0.592207
0.592206
0.592206
0.592206
0.592206
0.592206
0.592206
0.592206
0.592206
0.592206
0.592206
0.592205
0.592205
0.592187
0.592188
0.59219
0.592191
0.592192
0.592194
0.592195
0.592196
0.592197
0.592198
0.5922
0.5922
0.592201
0.592202
0.592203
0.592204
0.592204
0.592205
0.592205
0.592206
0.592206
0.592206
0.592207
0.592207
0.592207
0.592207
0.592207
0.592207
0.592207
0.592207
0.592207
0.592207
0.592208
0.592208
0.592208
0.592208
0.592208
0.592208
0.592207
0.592207
0.592207
0.592207
0.592207
0.592207
0.592207
0.592207
0.592207
0.592207
0.592206
0.592206
0.592206
0.592206
0.592206
0.592206
0.592206
0.592206
0.592206
0.592206
0.592206
0.592206
0.592206
0.592205
0.592205
0.592205
0.592205
0.592206
0.592206
0.592206
0.592206
0.592206
0.592206
0.592206
0.592206
0.592206
0.592206
0.592206
0.592206
0.592206
0.592206
0.592206
0.592206
0.592206
0.592206
0.592206
0.592206
0.592206
0.592205
0.592205
0.592205
0.592205
0.592205
0.592205
0.592205
0.592205
0.592205
0.592205
0.592205
0.592205
0.592205
0.592205
0.591192
0.591181
0.591187
0.591206
0.591231
0.591265
0.591289
0.591313
0.59132
0.591263
0.591296
0.591282
0.591281
0.591291
0.591306
0.59133
0.591348
0.591364
0.591374
0.591336
0.591391
0.591374
0.591368
0.591371
0.59138
0.591391
0.591407
0.591415
0.591424
0.591404
0.591475
0.591457
0.591448
0.591446
0.591449
0.591456
0.591465
0.591472
0.591478
0.591465
0.591551
0.591533
0.591522
0.591517
0.591516
0.591519
0.591524
0.591529
0.591532
0.591524
0.591618
0.591601
0.591589
0.591582
0.591579
0.591579
0.591581
0.591583
0.591586
0.59158
0.59168
0.591663
0.591651
0.591643
0.591639
0.591637
0.591636
0.591637
0.591638
0.591634
0.591736
0.59172
0.591708
0.5917
0.591695
0.591691
0.59169
0.591689
0.591689
0.591687
0.591787
0.591772
0.591761
0.591753
0.591747
0.591743
0.591741
0.591739
0.591739
0.591737
0.591834
0.59182
0.59181
0.591802
0.591796
0.591792
0.59179
0.591788
0.591787