/*--------------------------------*- C++ -*----------------------------------*\
  =========                 |
  \\      /  F ield         | OpenFOAM: The Open Source CFD Toolbox
   \\    /   O peration     | Website:  https://openfoam.org
    \\  /    A nd           | Version:  8
     \\/     M anipulation  |
\*---------------------------------------------------------------------------*/
FoamFile
{
    version     2.0;
    format      ascii;
    class       volVectorField;
    location    "2.50002999";
    object      U;
}
// * * * * * * * * * * * * * * * * * * * * * * * * * * * * * * * * * * * * * //

dimensions      [0 1 -1 0 0 0 0];

internalField   nonuniform List<vector> 
6800
(
(0.833747 4.104 -1.05075e-14)
(20.9765 -3.2544 2.88589e-15)
(31.7264 -4.50931 2.84095e-15)
(38.7215 -4.44953 -2.87114e-15)
(43.4566 -4.063 1.93667e-15)
(46.6647 -3.58015 2.57737e-15)
(48.8448 -3.09993 -4.08444e-15)
(50.3343 -2.66042 3.69978e-15)
(51.3704 -2.24965 -2.64524e-15)
(52.0666 -1.91216 5.19341e-16)
(10.9166 1.37476 1.49684e-14)
(27.9651 -5.43918 -4.05127e-15)
(37.8683 -5.30945 -9.42954e-16)
(43.8605 -4.66389 2.00737e-15)
(47.6312 -3.94811 -1.92123e-15)
(50.0299 -3.2517 -4.62804e-17)
(51.5554 -2.65083 5.81577e-18)
(52.5132 -2.164 -1.12964e-15)
(53.1131 -1.77763 1.97593e-16)
(53.443 -1.55761 2.62288e-15)
(18.1462 -0.819024 2.63202e-15)
(34.2861 -7.52394 -7.27594e-16)
(43.2237 -5.82795 1.95633e-15)
(48.1638 -4.66477 -4.50609e-15)
(50.9957 -3.66601 9.19618e-16)
(52.6475 -2.80415 -2.87688e-15)
(53.5809 -2.1203 2.63411e-15)
(54.0715 -1.60619 -3.15808e-16)
(54.3034 -1.22157 3.43787e-15)
(54.3538 -0.991661 -5.42785e-15)
(25.8228 -2.33253 4.30617e-15)
(40.5079 -9.12126 -9.93166e-16)
(48.0852 -5.90617 -1.87446e-16)
(51.8534 -4.40769 5.99402e-16)
(53.7705 -3.1893 -1.89307e-15)
(54.7245 -2.21488 1.83977e-15)
(55.1282 -1.4927 -3.11535e-15)
(55.2328 -0.970289 4.57971e-15)
(55.1855 -0.586043 -3.22635e-15)
(55.0382 -0.342239 4.00043e-15)
(33.459 -2.71886 4.18969e-18)
(46.4689 -9.93854 1.94397e-15)
(52.4794 -5.40225 7.80696e-16)
(55.0462 -3.82047 3.57286e-15)
(56.0874 -2.465 -1.93343e-15)
(56.401 -1.45446 6.19333e-16)
(56.356 -0.736615 7.83338e-16)
(56.1552 -0.225355 2.429e-15)
(55.8974 0.146995 -3.36038e-15)
(55.6036 0.391014 1.4584e-15)
(40.691 -1.93531 -1.96463e-15)
(52.0198 -9.87919 -9.61383e-16)
(56.3824 -4.26848 -4.97713e-17)
(57.7995 -2.86405 -1.30745e-15)
(58.0229 -1.44856 -1.70411e-16)
(57.7779 -0.486561 9.98672e-16)
(57.366 0.186212 -1.37681e-15)
(56.9247 0.660886 1.60082e-15)
(56.5015 1.00197 -1.80607e-15)
(56.0887 1.23065 -3.7219e-16)
(47.2439 -0.0756094 2.79096e-16)
(57.0152 -8.90964 1.04258e-15)
(59.7492 -2.50296 7.71565e-16)
(60.1237 -1.51906 -1.13549e-15)
(59.6129 -0.119386 -1.59344e-16)
(58.9073 0.712865 1.495e-15)
(58.2013 1.30039 -6.25831e-16)
(57.5672 1.71107 9.76079e-16)
(57.0078 1.99515 -2.00421e-15)
(56.4909 2.19184 3.57033e-20)
(52.9019 2.72038 7.00354e-16)
(61.3377 -7.07505 -1.78509e-16)
(62.5205 -0.166433 -8.35281e-16)
(62.0004 0.210461 -1.42895e-15)
(60.8666 1.52308 2.51437e-15)
(59.7981 2.14703 -1.76837e-15)
(58.86 2.61487 3.57813e-16)
(58.0701 2.92873 -1.4007e-15)
(57.3974 3.12548 -6.1882e-16)
(56.7875 3.27478 -7.97116e-16)
(57.5182 6.26307 8.4369e-17)
(64.8787 -4.44798 1.3245e-16)
(64.645 2.64442 -7.00259e-16)
(63.3963 2.28516 5.46127e-16)
(61.7709 3.45038 4.52047e-16)
(60.4322 3.80256 -6.32536e-16)
(59.3151 4.1163 3.02124e-16)
(58.4013 4.29937 5.17203e-16)
(57.6382 4.37819 5.31351e-16)
(56.9469 4.4673 6.24083e-16)
(61.0051 10.3446 -2.32933e-16)
(67.5485 -1.13819 -7.28577e-17)
(66.0747 5.79805 -1.64909e-16)
(64.2842 4.6537 1.66635e-16)
(62.2988 5.61329 -5.15889e-16)
(60.7754 5.64332 -9.84646e-17)
(59.5279 5.77198 -4.55233e-17)
(58.5237 5.79133 4.53437e-16)
(57.6978 5.72691 2.14713e-16)
(56.9393 5.7449 -9.85482e-16)
(-3.34338 1.69413 1.72897e-15)
(-5.33251 1.19259 -4.90142e-16)
(-7.20119 0.881185 -2.2871e-16)
(-8.62102 0.648392 3.66487e-16)
(-9.5253 0.429227 -7.64381e-17)
(-9.98706 0.202267 5.20368e-16)
(-10.0435 -0.0365888 1.75464e-16)
(-9.72627 -0.276072 -2.8543e-16)
(-9.0739 -0.494257 5.71083e-16)
(-8.1383 -0.649691 -1.95566e-16)
(-3.36025 4.30266 -8.8381e-16)
(-4.99581 3.28642 8.04541e-16)
(-6.54892 2.47998 1.63682e-16)
(-7.65443 1.83346 8.56333e-16)
(-8.2531 1.2139 -3.32834e-16)
(-8.39821 0.557239 -9.97084e-17)
(-8.10437 -0.156331 -1.02141e-15)
(-7.37625 -0.883929 7.166e-16)
(-6.28457 -1.52885 2.31659e-16)
(-4.91055 -1.95623 1.04275e-15)
(-3.48526 6.55336 -2.09605e-15)
(-4.5543 5.0847 -1.01666e-16)
(-5.50547 3.84801 1.74495e-15)
(-5.98474 2.81823 -2.77757e-15)
(-5.93752 1.82366 7.12304e-18)
(-5.3756 0.755818 -3.47549e-16)
(-4.24116 -0.432794 2.92694e-15)
(-2.58855 -1.6481 -1.87561e-15)
(-0.762786 -2.66152 4.53306e-15)
(1.39333 -3.26396 -1.93656e-15)
(-3.72624 8.19658 -2.33012e-15)
(-4.09398 6.3801 2.233e-15)
(-4.20107 4.79757 -3.75959e-15)
(-3.7491 3.429 4.46824e-15)
(-2.63415 2.08323 1.06953e-15)
(-0.736461 0.57577 -5.47255e-16)
(2.0311 -1.09932 -2.0009e-15)
(4.62868 -2.50496 1.34344e-15)
(7.11121 -3.57665 9.77599e-16)
(9.78325 -4.07292 -3.82561e-15)
(-4.03076 9.1122 9.21379e-15)
(-3.64058 7.03139 5.91009e-17)
(-2.6356 5.15296 1.72012e-15)
(-0.750519 3.38023 -9.75216e-15)
(2.25187 1.5647 5.4303e-15)
(6.15775 -0.309228 9.95748e-16)
(9.83129 -1.91381 7.74234e-16)
(13.1488 -3.13155 1.22697e-15)
(16.1072 -4.04466 3.04891e-16)
(19.2358 -4.36065 5.47715e-15)
(-4.35075 9.34654 7.03534e-15)
(-3.09514 6.90574 2.31567e-15)
(-0.46587 4.65668 2.18461e-15)
(3.67773 2.45392 -8.75273e-15)
(9.02222 0.297927 7.39943e-15)
(13.9672 -1.41798 -4.73806e-15)
(18.337 -2.73327 -7.24254e-15)
(22.1566 -3.65192 1.84042e-15)
(25.3924 -4.23238 -4.85482e-15)
(28.6182 -4.26647 1.73321e-15)
(-4.67535 8.97946 5.84571e-15)
(-2.22537 5.93902 4.58938e-15)
(2.99739 3.26424 -6.85787e-15)
(10.2021 0.645244 1.51483e-14)
(16.6865 -1.2438 2.71735e-15)
(22.2382 -2.55072 -7.49215e-15)
(26.876 -3.38481 4.33644e-15)
(30.6763 -3.88413 -6.6329e-16)
(33.706 -4.14342 2.69191e-15)
(36.535 -3.95386 1.24557e-15)
(-5.11103 8.22694 -9.82435e-15)
(-0.479572 4.31755 -2.10208e-14)
(9.38379 0.805639 6.18501e-15)
(17.8582 -1.341 5.20691e-16)
(24.73 -2.59829 -3.24687e-15)
(30.1805 -3.31544 -2.7009e-15)
(34.4185 -3.70038 4.16648e-16)
(37.7091 -3.84558 -1.6589e-15)
(40.2467 -3.83889 -1.76066e-15)
(42.5116 -3.5034 5.0066e-15)
(-5.15317 6.89991 1.10292e-14)
(5.88947 1.28632 6.78259e-15)
(17.1136 -1.59308 2.88428e-15)
(25.6717 -2.90134 -1.1306e-15)
(32.0977 -3.49362 2.9896e-17)
(36.89 -3.69843 2.05499e-15)
(40.4652 -3.69171 4.62637e-15)
(43.1408 -3.56196 -2.87195e-15)
(45.137 -3.37037 -3.12692e-15)
(46.83 -2.96043 3.31405e-15)
(-4.02494 5.4454 -8.89386e-15)
(13.6994 -1.16912 -3.0207e-16)
(24.7859 -3.33901 -3.67524e-15)
(32.6662 -3.91318 -9.70339e-17)
(38.3054 -3.94367 4.86603e-16)
(42.3316 -3.75261 -3.33258e-16)
(45.2076 -3.4667 -2.27864e-16)
(47.268 -3.14549 -2.16936e-15)
(48.7367 -2.81726 -3.20738e-15)
(49.8703 -2.38853 9.39872e-16)
(-6.92317 -0.710256 1.24988e-16)
(-5.38428 -0.679706 2.01742e-17)
(-3.95753 -0.623006 -1.98165e-16)
(-2.64988 -0.572514 1.48569e-16)
(-1.43577 -0.535409 6.67427e-17)
(-0.291328 -0.507756 -3.20504e-16)
(0.814982 -0.478393 -1.65457e-16)
(1.83591 -0.449905 2.45303e-16)
(2.81521 -0.427805 -1.48847e-16)
(3.75321 -0.409729 -4.40887e-17)
(4.65563 -0.394088 1.508e-16)
(5.52667 -0.380041 -6.09058e-17)
(6.36906 -0.367102 3.73842e-16)
(7.18471 -0.354975 -1.9107e-16)
(7.97504 -0.343471 -4.36778e-16)
(8.74124 -0.332482 5.77735e-16)
(9.48424 -0.321918 -2.45825e-16)
(10.2048 -0.311708 -1.29175e-16)
(10.9036 -0.301808 1.32455e-16)
(11.5812 -0.292183 -3.10551e-17)
(12.238 -0.28281 -3.21487e-17)
(12.8747 -0.27367 9.15636e-17)
(13.4915 -0.264756 -1.54598e-16)
(14.0889 -0.256071 4.12692e-16)
(14.6675 -0.247619 2.04661e-17)
(15.2276 -0.239407 -4.39963e-16)
(15.7699 -0.231439 3.22322e-16)
(16.2947 -0.223721 7.17962e-17)
(16.8027 -0.216256 -1.51993e-18)
(17.2943 -0.209045 -2.47494e-16)
(17.7702 -0.202087 1.5076e-16)
(18.2308 -0.195378 -2.46044e-16)
(18.6767 -0.188908 2.23537e-16)
(19.1084 -0.182669 -2.93978e-16)
(19.5265 -0.176655 4.28209e-16)
(19.9313 -0.17086 -2.6604e-16)
(20.3233 -0.165276 -1.15947e-16)
(20.7031 -0.159898 3.77498e-16)
(21.071 -0.15472 -9.33235e-17)
(21.4274 -0.149736 -7.59258e-18)
(21.7729 -0.144942 -1.83438e-16)
(22.1077 -0.14033 6.71873e-17)
(22.4324 -0.135894 -3.57944e-17)
(22.7471 -0.131628 -1.90778e-17)
(23.0524 -0.127528 2.29382e-16)
(23.3486 -0.123589 -9.86507e-17)
(23.6359 -0.119807 1.55551e-16)
(23.9149 -0.116176 -2.68793e-16)
(24.1857 -0.11269 4.0488e-17)
(24.4487 -0.109346 3.09613e-17)
(24.7042 -0.106138 -1.77869e-18)
(24.9526 -0.103062 -6.72507e-17)
(25.194 -0.100111 7.96581e-17)
(25.4288 -0.0972805 3.34518e-17)
(25.6573 -0.0945645 -1.6876e-17)
(25.8797 -0.0919567 -6.7828e-17)
(26.0962 -0.0894512 1.33498e-17)
(26.307 -0.087042 -6.98186e-17)
(26.5125 -0.0847235 4.38927e-17)
(26.7127 -0.0824902 1.06709e-16)
(26.9079 -0.0803374 -9.71442e-17)
(27.0983 -0.078261 3.50459e-18)
(27.2839 -0.0762578 -3.42309e-17)
(27.4651 -0.0743248 1.00059e-17)
(27.6419 -0.0724592 6.16319e-17)
(27.8145 -0.0706584 5.80283e-17)
(27.983 -0.0689203 -1.4578e-16)
(28.1476 -0.0672427 4.32264e-17)
(28.3084 -0.0656238 1.09914e-17)
(28.4656 -0.0640619 -3.68385e-17)
(28.6192 -0.0625554 -6.85945e-17)
(28.7694 -0.0611027 1.45155e-16)
(28.9164 -0.0597024 -4.23477e-17)
(29.0601 -0.0583531 3.20448e-17)
(29.2008 -0.0570535 -2.89627e-17)
(29.3386 -0.0558024 -4.50185e-17)
(29.4735 -0.0545987 1.29922e-17)
(29.6056 -0.0534411 4.48465e-17)
(29.7352 -0.0523283 -6.69529e-17)
(29.8622 -0.0512591 8.33363e-17)
(29.9868 -0.0502321 2.37789e-18)
(30.109 -0.0492459 -1.32353e-17)
(30.229 -0.0482991 -3.14712e-17)
(30.3468 -0.0473901 4.81816e-17)
(30.4626 -0.0465173 -4.00637e-17)
(30.5764 -0.0456791 3.43939e-17)
(30.6882 -0.0448731 -5.01591e-17)
(30.7982 -0.0440976 -6.03171e-18)
(30.9064 -0.0433495 3.29277e-17)
(31.013 -0.0426265 2.09028e-18)
(31.1178 -0.0419236 -1.21466e-17)
(31.2211 -0.0412368 -5.20105e-19)
(31.3227 -0.0405572 -1.90514e-18)
(31.4228 -0.0398778 -4.42508e-18)
(31.5212 -0.0391825 2.48501e-18)
(31.6181 -0.038456 -1.55899e-18)
(31.7131 -0.0376728 5.79427e-18)
(31.806 -0.0368075 4.02771e-18)
(31.8969 -0.0358405 -7.42349e-19)
(32.0067 -0.0338501 1.20265e-18)
(-3.55164 -2.05353 -5.00414e-16)
(-2.2786 -1.91709 -3.5501e-16)
(-1.03955 -1.7592 -1.5646e-15)
(0.120631 -1.62426 1.30198e-15)
(1.21091 -1.51697 -1.87397e-15)
(2.22423 -1.43431 1.36536e-15)
(3.19617 -1.35888 -9.07835e-16)
(4.12715 -1.28873 -6.51508e-16)
(5.02739 -1.23063 1.43286e-15)
(5.89677 -1.18137 4.90057e-16)
(6.73705 -1.13804 2.67454e-16)
(7.55039 -1.09884 -1.01473e-15)
(8.33849 -1.06257 3.66533e-16)
(9.10261 -1.0285 -4.0754e-16)
(9.84382 -0.996144 -1.04522e-15)
(10.5629 -0.965125 2.39813e-15)
(11.2605 -0.935197 1.64312e-16)
(11.9372 -0.906189 -1.53349e-16)
(12.5936 -0.877983 -4.95624e-16)
(13.23 -0.850491 -1.54583e-16)
(13.8469 -0.823647 -1.03238e-15)
(14.4447 -0.79741 1.00298e-15)
(15.0239 -0.77177 -1.26419e-15)
(15.5847 -0.746741 2.4104e-15)
(16.1277 -0.722347 -1.1285e-15)
(16.6532 -0.698616 3.27665e-16)
(17.1619 -0.675569 -4.08075e-16)
(17.6541 -0.653225 4.53203e-16)
(18.1305 -0.631603 4.16073e-16)
(18.5914 -0.610712 -9.601e-17)
(19.0374 -0.590557 -8.47722e-16)
(19.4691 -0.571116 -1.20085e-16)
(19.887 -0.552363 4.11097e-16)
(20.2914 -0.534277 1.55033e-16)
(20.6829 -0.516842 -9.04404e-16)
(21.062 -0.50004 7.5464e-16)
(21.4292 -0.483852 2.05745e-16)
(21.7847 -0.468257 -3.14171e-16)
(22.1292 -0.453236 1.45068e-16)
(22.463 -0.43877 -2.30091e-16)
(22.7865 -0.424838 -2.2646e-16)
(23.1 -0.411422 7.3374e-16)
(23.404 -0.398508 -3.8021e-16)
(23.6988 -0.386079 1.36201e-16)
(23.9847 -0.374124 -7.97649e-16)
(24.2621 -0.362629 5.9752e-16)
(24.5313 -0.35158 2.40012e-16)
(24.7926 -0.340966 -5.28465e-16)
(25.0463 -0.330773 -3.32448e-16)
(25.2927 -0.320989 2.87063e-16)
(25.5321 -0.311601 1.81321e-16)
(25.7647 -0.302596 1.16055e-18)
(25.9909 -0.293958 5.5596e-16)
(26.2109 -0.285672 -7.61479e-16)
(26.4249 -0.277723 5.17593e-16)
(26.6332 -0.270093 -3.94356e-16)
(26.8361 -0.262767 -1.9529e-16)
(27.0336 -0.255729 8.52853e-16)
(27.2261 -0.248962 -1.45275e-16)
(27.4137 -0.242448 -2.33531e-16)
(27.5966 -0.236172 2.06009e-16)
(27.775 -0.23012 -2.80008e-16)
(27.949 -0.224281 -2.10253e-16)
(28.1189 -0.218645 1.96917e-16)
(28.2847 -0.213206 -1.0475e-16)
(28.4465 -0.207956 -2.34485e-16)
(28.6046 -0.202888 4.41476e-16)
(28.7591 -0.197996 -8.05307e-17)
(28.91 -0.193273 -1.41849e-16)
(29.0576 -0.188714 -1.97368e-16)
(29.2019 -0.184314 2.69332e-17)
(29.343 -0.180067 1.78654e-16)
(29.481 -0.175971 1.51953e-16)
(29.6162 -0.172021 7.33216e-17)
(29.7485 -0.168214 -2.08364e-17)
(29.878 -0.164546 -3.20725e-16)
(30.0049 -0.161014 2.57939e-16)
(30.1293 -0.157616 1.853e-16)
(30.2512 -0.154347 -1.60863e-16)
(30.3708 -0.151205 -2.33934e-16)
(30.4881 -0.148186 1.00031e-17)
(30.6033 -0.145286 7.91956e-17)
(30.7163 -0.142502 -3.90765e-17)
(30.8274 -0.139829 5.61803e-18)
(30.9365 -0.137263 -9.3089e-18)
(31.0438 -0.134798 9.75678e-18)
(31.1493 -0.132429 -9.03531e-17)
(31.2531 -0.13015 2.07836e-16)
(31.3552 -0.127953 -9.23304e-17)
(31.4558 -0.12583 -7.20429e-17)
(31.5548 -0.123766 4.11359e-17)
(31.6523 -0.121751 2.28154e-17)
(31.7483 -0.119758 1.77866e-17)
(31.8429 -0.117767 -2.38134e-17)
(31.936 -0.11573 1.36559e-17)
(32.0276 -0.113604 -8.56423e-17)
(32.1175 -0.111312 3.66103e-17)
(32.2054 -0.108733 -1.232e-17)
(32.2921 -0.10575 2.46182e-18)
(32.3955 -0.101265 -1.91552e-17)
(2.5719 -3.18879 -4.9394e-15)
(3.35414 -2.91306 1.05404e-15)
(4.22962 -2.69939 2.00762e-15)
(5.09777 -2.52396 1.96764e-15)
(5.94438 -2.37163 -1.445e-15)
(6.76665 -2.24537 -4.10781e-15)
(7.56955 -2.13877 4.2513e-15)
(8.3544 -2.04453 7.19293e-16)
(9.1224 -1.96197 -1.28196e-15)
(9.87177 -1.88886 -6.43797e-16)
(10.6015 -1.82278 7.5756e-16)
(11.3114 -1.76189 3.17555e-15)
(12.0018 -1.70491 -1.2142e-15)
(12.6729 -1.6509 -2.5232e-15)
(13.3249 -1.59928 3.41791e-15)
(13.9582 -1.54967 -1.51127e-15)
(14.573 -1.50171 -1.18244e-15)
(15.1697 -1.45515 3.99044e-16)
(15.7484 -1.40982 -6.06717e-16)
(16.3094 -1.36559 1.40622e-15)
(16.8531 -1.32237 -2.02041e-15)
(17.3798 -1.2801 1.9736e-16)
(17.8897 -1.23878 -7.48735e-16)
(18.3832 -1.19844 1.65552e-15)
(18.8608 -1.15914 -3.92927e-16)
(19.3229 -1.12093 1.18662e-15)
(19.7699 -1.08383 -4.38462e-16)
(20.2024 -1.04787 -1.1212e-15)
(20.6208 -1.01307 -5.48375e-16)
(21.0255 -0.979428 -8.46483e-17)
(21.4171 -0.946933 5.67269e-16)
(21.7959 -0.915585 7.93677e-16)
(22.1624 -0.88536 -1.36963e-15)
(22.5171 -0.856234 9.8246e-16)
(22.8604 -0.828184 3.82181e-16)
(23.1927 -0.801176 -7.5187e-16)
(23.5145 -0.775178 1.56245e-15)
(23.8261 -0.750155 -1.36223e-15)
(24.128 -0.726071 2.51964e-16)
(24.4204 -0.702896 -5.05116e-16)
(24.7038 -0.680595 2.37995e-16)
(24.9785 -0.659129 -2.28098e-16)
(25.2448 -0.638467 3.58598e-16)
(25.503 -0.618586 1.61664e-16)
(25.7535 -0.599464 -2.97141e-16)
(25.9965 -0.58108 8.94702e-16)
(26.2323 -0.563411 -5.57843e-16)
(26.4611 -0.546436 -5.54097e-16)
(26.6834 -0.530135 8.42829e-16)
(26.8992 -0.514487 -9.11277e-16)
(27.109 -0.499471 -1.49358e-17)
(27.3128 -0.485064 1.57092e-15)
(27.511 -0.471241 -2.05126e-15)
(27.7038 -0.457982 1.67956e-15)
(27.8914 -0.445262 -1.12966e-15)
(28.074 -0.433055 1.54044e-16)
(28.2519 -0.421334 7.14919e-16)
(28.4251 -0.410073 -3.76559e-16)
(28.5938 -0.399249 -1.78108e-16)
(28.7584 -0.388837 2.55263e-16)
(28.9188 -0.378809 -8.34107e-18)
(29.0752 -0.36914 -2.09981e-16)
(29.2279 -0.359815 -2.42383e-16)
(29.3769 -0.350821 3.01995e-17)
(29.5223 -0.342144 2.91671e-16)
(29.6644 -0.333772 -1.46248e-16)
(29.8031 -0.325695 3.8445e-16)
(29.9387 -0.317903 -1.92485e-16)
(30.0712 -0.310385 -2.23037e-17)
(30.2008 -0.303128 -4.65441e-16)
(30.3275 -0.296125 4.32714e-16)
(30.4515 -0.289366 2.24447e-16)
(30.5728 -0.282846 5.62647e-17)
(30.6916 -0.276559 -2.98338e-16)
(30.8079 -0.270499 2.34416e-16)
(30.9219 -0.264661 -8.6704e-17)
(31.0336 -0.25904 -1.99484e-17)
(31.1431 -0.253632 -3.19827e-16)
(31.2506 -0.24843 2.51143e-16)
(31.356 -0.24343 7.23441e-17)
(31.4595 -0.238626 -2.35915e-16)
(31.5611 -0.234012 8.33394e-17)
(31.6609 -0.229582 8.15789e-17)
(31.7591 -0.225329 -1.75447e-16)
(31.8556 -0.221245 -3.41562e-18)
(31.9505 -0.217324 3.20112e-16)
(32.0439 -0.213554 6.62848e-17)
(32.1359 -0.209928 -6.58172e-17)
(32.2265 -0.206433 -1.72592e-16)
(32.3157 -0.203057 -2.38044e-17)
(32.4037 -0.199777 -6.87173e-17)
(32.4904 -0.196576 3.32762e-17)
(32.5758 -0.193409 1.25612e-16)
(32.6601 -0.190248 -5.03156e-17)
(32.743 -0.187014 4.3043e-17)
(32.8247 -0.183638 -7.07943e-17)
(32.905 -0.179995 7.23899e-17)
(32.9836 -0.175843 -2.95513e-17)
(33.0614 -0.171012 -1.31373e-17)
(33.1541 -0.165355 1.45428e-17)
(10.5536 -3.83057 1.82058e-15)
(10.8234 -3.52238 -4.70477e-16)
(11.2402 -3.32926 3.80232e-15)
(11.7702 -3.17067 -3.14873e-15)
(12.3409 -3.01901 2.5883e-15)
(12.9253 -2.88393 1.13085e-15)
(13.5169 -2.76699 2.53258e-16)
(14.1113 -2.66274 3.76414e-16)
(14.7041 -2.568 -8.37795e-16)
(15.2912 -2.48098 -9.59005e-16)
(15.8695 -2.4001 -2.55251e-15)
(16.4371 -2.32402 3.27779e-15)
(16.9926 -2.25172 -3.35323e-15)
(17.5352 -2.18248 2.29148e-15)
(18.0644 -2.11568 -1.05632e-15)
(18.5799 -2.05093 -2.79601e-16)
(19.0814 -1.98793 1.17839e-15)
(19.5687 -1.92649 -2.56788e-16)
(20.0418 -1.86647 -4.53175e-16)
(20.5006 -1.80776 -8.59526e-16)
(20.9451 -1.7503 2.36273e-15)
(21.3756 -1.69407 -5.65266e-16)
(21.7923 -1.63911 1.51799e-16)
(22.1955 -1.5855 1.50585e-15)
(22.5856 -1.53331 -4.00479e-15)
(22.9631 -1.48261 2.85983e-15)
(23.3282 -1.43341 -3.15478e-15)
(23.6814 -1.38575 4.36614e-15)
(24.0232 -1.33964 -2.44877e-15)
(24.3537 -1.29511 1.60223e-15)
(24.6736 -1.25215 1.24274e-15)
(24.983 -1.2107 -3.42726e-15)
(25.2824 -1.17071 8.67716e-16)
(25.5721 -1.13217 -5.72698e-16)
(25.8525 -1.09506 1.12082e-15)
(26.124 -1.05933 -1.29417e-16)
(26.3868 -1.02494 -2.28721e-15)
(26.6412 -0.99184 2.0052e-15)
(26.8875 -0.959989 -2.68734e-16)
(27.1262 -0.929345 3.04122e-16)
(27.3573 -0.899861 4.49594e-16)
(27.5813 -0.871488 3.87097e-16)
(27.7983 -0.844181 4.18144e-17)
(28.0087 -0.81791 -9.26926e-16)
(28.2127 -0.792649 2.61103e-17)
(28.4105 -0.768369 -1.27597e-16)
(28.6024 -0.74504 -3.9295e-16)
(28.7887 -0.722632 1.72389e-15)
(28.9695 -0.701118 -7.20585e-16)
(29.1451 -0.68047 2.58412e-16)
(29.3157 -0.660657 3.47276e-16)
(29.4815 -0.641648 -5.25599e-16)
(29.6427 -0.623412 -6.01546e-16)
(29.7995 -0.605916 1.26784e-15)
(29.952 -0.589125 -1.19903e-15)
(30.1005 -0.573011 -1.1676e-16)
(30.245 -0.557539 1.25168e-15)
(30.3858 -0.542677 -8.22992e-16)
(30.5229 -0.528388 2.82205e-16)
(30.6566 -0.51464 1.57173e-16)
(30.7868 -0.501398 -6.11368e-16)
(30.9139 -0.488635 7.88966e-16)
(31.0378 -0.476334 -2.68156e-16)
(31.1587 -0.464477 -7.49569e-16)
(31.2767 -0.453046 4.22099e-16)
(31.3919 -0.442022 -5.58007e-17)
(31.5044 -0.431389 9.07564e-16)
(31.6144 -0.421132 -1.5531e-15)
(31.7219 -0.411235 1.3939e-15)
(31.827 -0.401685 -6.53471e-17)
(31.9297 -0.392472 -5.52828e-16)
(32.0303 -0.383587 7.38964e-16)
(32.1288 -0.37502 -4.92717e-16)
(32.2252 -0.366766 2.41561e-16)
(32.3197 -0.358815 -4.1342e-16)
(32.4123 -0.351162 -6.35373e-17)
(32.5031 -0.343799 2.3123e-16)
(32.5922 -0.336719 -8.62434e-17)
(32.6797 -0.329915 -2.89368e-16)
(32.7656 -0.323379 2.7919e-16)
(32.8501 -0.317104 4.08229e-16)
(32.9331 -0.31108 -7.05387e-17)
(33.0148 -0.305299 2.38896e-16)
(33.0951 -0.299752 -2.92313e-16)
(33.1743 -0.294429 -2.10605e-16)
(33.2522 -0.289319 -7.74021e-17)
(33.329 -0.28441 1.7816e-17)
(33.4046 -0.27969 1.18629e-16)
(33.4793 -0.275142 2.14511e-16)
(33.5529 -0.270754 -4.37622e-16)
(33.6256 -0.266494 3.2775e-16)
(33.6973 -0.262337 -1.71189e-16)
(33.7681 -0.258228 3.54087e-17)
(33.838 -0.254128 1.40974e-16)
(33.907 -0.249937 -1.27094e-17)
(33.975 -0.245562 -1.16977e-16)
(34.042 -0.24084 9.06814e-17)
(34.1078 -0.235455 -3.73819e-17)
(34.1731 -0.229222 -2.58049e-18)
(34.2511 -0.222297 -1.36389e-17)
(19.7397 -4.00754 -6.51546e-15)
(19.6338 -3.75723 -2.70492e-15)
(19.6363 -3.63881 3.8118e-15)
(19.8234 -3.53544 -9.97613e-16)
(20.0957 -3.41976 -1.10255e-15)
(20.4033 -3.30479 2.73666e-15)
(20.737 -3.19857 -2.78566e-15)
(21.093 -3.10013 -1.1988e-15)
(21.465 -3.0072 1.16729e-15)
(21.8463 -2.9186 1.22084e-15)
(22.232 -2.83353 -2.52009e-15)
(22.6184 -2.75135 3.84515e-15)
(23.0031 -2.67156 -2.83164e-15)
(23.384 -2.5938 3.90424e-15)
(23.7595 -2.51779 -2.96256e-15)
(24.1284 -2.44331 -2.00307e-15)
(24.4895 -2.37013 1.03691e-15)
(24.842 -2.29816 2.62214e-15)
(25.1852 -2.22732 1.04379e-15)
(25.5188 -2.15765 -2.37154e-15)
(25.8425 -2.08923 2.15252e-15)
(26.1565 -2.02218 6.81774e-17)
(26.4609 -1.95662 -1.53747e-16)
(26.756 -1.89268 -1.56511e-15)
(27.0421 -1.83048 1.42239e-15)
(27.3193 -1.77008 -3.27681e-16)
(27.5878 -1.71147 -3.31438e-15)
(27.848 -1.65468 2.03603e-15)
(28.1 -1.59973 3.84194e-16)
(28.3441 -1.54659 9.44643e-16)
(28.5805 -1.49529 -3.5458e-15)
(28.8093 -1.4458 2.36268e-16)
(29.0309 -1.3981 3.10421e-15)
(29.2455 -1.35213 -1.67924e-16)
(29.4532 -1.30786 -2.45492e-15)
(29.6543 -1.26522 -6.94146e-16)
(29.849 -1.22417 3.46616e-15)
(30.0373 -1.18464 -9.27619e-16)
(30.2197 -1.1466 -9.74197e-16)
(30.3962 -1.10999 9.13204e-16)
(30.567 -1.07477 7.8743e-16)
(30.7324 -1.04088 1.27151e-15)
(30.8925 -1.00825 -3.51499e-15)
(31.0476 -0.976875 2.2878e-15)
(31.1978 -0.946713 2.94472e-16)
(31.3434 -0.917735 -1.77967e-15)
(31.4847 -0.889904 6.16982e-17)
(31.6217 -0.863185 -3.61469e-16)
(31.7547 -0.83754 1.31664e-15)
(31.8838 -0.812931 8.35105e-16)
(32.0092 -0.789317 -4.9051e-16)
(32.131 -0.76666 -6.76875e-16)
(32.2495 -0.744919 -3.22821e-17)
(32.3646 -0.724057 3.02557e-16)
(32.4766 -0.704032 -2.43875e-16)
(32.5855 -0.684805 9.50624e-17)
(32.6915 -0.666336 -6.06225e-16)
(32.7946 -0.648587 1.25438e-15)
(32.895 -0.631522 -1.03998e-15)
(32.9927 -0.615106 1.2639e-15)
(33.0879 -0.599288 -1.8098e-15)
(33.1806 -0.584038 2.75887e-16)
(33.2709 -0.569344 6.2126e-16)
(33.359 -0.555189 -1.10422e-16)
(33.445 -0.541553 4.88577e-16)
(33.5288 -0.528405 -1.27305e-15)
(33.6107 -0.515731 7.8625e-16)
(33.6906 -0.503519 -5.60591e-16)
(33.7687 -0.491743 -2.58795e-16)
(33.845 -0.480387 1.68316e-15)
(33.9197 -0.46944 -1.38268e-15)
(33.9928 -0.458894 6.46876e-16)
(34.0644 -0.448739 -2.97714e-16)
(34.1345 -0.438966 7.79178e-18)
(34.2033 -0.429565 6.93022e-16)
(34.2708 -0.420527 -4.73211e-16)
(34.3371 -0.411842 -2.17854e-16)
(34.4023 -0.403502 1.90357e-16)
(34.4663 -0.395496 3.98258e-16)
(34.5293 -0.387815 -3.49734e-16)
(34.5913 -0.380446 -3.33587e-16)
(34.6524 -0.37338 7.27685e-16)
(34.7126 -0.366604 -5.06304e-16)
(34.7719 -0.360108 9.61764e-17)
(34.8305 -0.353877 -2.18716e-16)
(34.8882 -0.347901 1.88205e-16)
(34.9452 -0.342163 2.25703e-16)
(35.0016 -0.336651 -8.35703e-17)
(35.0572 -0.331344 1.32183e-16)
(35.1123 -0.326233 3.009e-16)
(35.1667 -0.321276 -3.17106e-16)
(35.2206 -0.316442 4.10297e-16)
(35.274 -0.311667 -3.32475e-16)
(35.3267 -0.30691 1.73543e-16)
(35.379 -0.302054 1.1565e-16)
(35.4307 -0.29699 -3.67542e-17)
(35.4818 -0.291526 4.45601e-17)
(35.5322 -0.285308 -6.65279e-17)
(35.5825 -0.278115 7.91811e-17)
(35.6429 -0.270192 3.80321e-17)
(29.0586 -3.89172 7.21655e-16)
(28.8135 -3.74909 -2.41524e-15)
(28.5899 -3.71162 -7.2019e-16)
(28.5396 -3.66419 7.20105e-15)
(28.5798 -3.59454 2.62706e-18)
(28.655 -3.51532 -3.40019e-15)
(28.7566 -3.43343 1.81367e-15)
(28.8851 -3.35067 -2.09979e-15)
(29.0366 -3.26788 5.20035e-16)
(29.2048 -3.18555 3.83277e-15)
(29.3851 -3.10386 -7.46238e-16)
(29.5739 -3.02287 -9.14006e-15)
(29.7685 -2.94255 2.82619e-15)
(29.9665 -2.86288 6.3878e-15)
(30.1662 -2.78376 -1.1219e-16)
(30.3657 -2.70522 -3.3088e-15)
(30.5638 -2.62722 -2.38687e-15)
(30.7595 -2.54997 -4.11033e-16)
(30.9523 -2.47367 1.34499e-15)
(31.142 -2.39841 2.72628e-16)
(31.3283 -2.32431 2.24925e-15)
(31.5108 -2.25144 -2.66727e-16)
(31.6896 -2.17999 -2.75973e-15)
(31.8643 -2.11014 6.97801e-16)
(32.0349 -2.04204 -6.51775e-16)
(32.2013 -1.97574 3.4789e-16)
(32.3633 -1.91124 -2.92142e-16)
(32.5208 -1.84861 -7.61479e-16)
(32.674 -1.78789 2.48748e-15)
(32.8227 -1.72909 -2.08905e-15)
(32.967 -1.67224 1.83905e-15)
(33.107 -1.61729 2.94846e-16)
(33.2427 -1.56418 1.08449e-15)
(33.3741 -1.5129 -1.47469e-15)
(33.5014 -1.46343 -5.33082e-16)
(33.6246 -1.41573 -1.11007e-15)
(33.7438 -1.36974 2.06071e-15)
(33.8591 -1.32542 -1.81787e-15)
(33.9707 -1.2827 -7.43914e-16)
(34.0785 -1.24152 1.70977e-15)
(34.1827 -1.20184 4.98863e-16)
(34.2833 -1.16364 4.18777e-16)
(34.3807 -1.12691 -1.61318e-16)
(34.475 -1.09164 -1.32537e-16)
(34.5664 -1.05778 -9.48033e-16)
(34.655 -1.02529 -2.07745e-15)
(34.741 -0.994117 3.89492e-15)
(34.8245 -0.964209 -2.65228e-15)
(34.9055 -0.935528 -1.17036e-15)
(34.9842 -0.908022 1.96689e-15)
(35.0606 -0.881644 -1.28696e-15)
(35.1348 -0.85634 1.54898e-15)
(35.2069 -0.832063 -1.40576e-16)
(35.277 -0.808763 4.8942e-17)
(35.345 -0.786392 -1.32342e-15)
(35.4111 -0.764904 3.02495e-16)
(35.4753 -0.744255 -6.30924e-16)
(35.5376 -0.724406 4.13665e-16)
(35.5981 -0.705317 2.55938e-16)
(35.657 -0.686956 -3.98069e-16)
(35.7141 -0.669275 6.46634e-16)
(35.7696 -0.652238 -1.17814e-16)
(35.8237 -0.635819 8.83415e-16)
(35.8762 -0.619994 2.77051e-16)
(35.9274 -0.604746 7.36745e-18)
(35.9772 -0.590051 -2.75643e-17)
(36.0257 -0.575902 -8.39323e-16)
(36.0731 -0.562284 1.87007e-16)
(36.1193 -0.549165 -8.54103e-17)
(36.1645 -0.536533 -3.6944e-16)
(36.2088 -0.524377 -2.77786e-16)
(36.2521 -0.51269 4.74978e-16)
(36.2946 -0.50146 -7.51095e-16)
(36.3364 -0.490673 -1.50656e-16)
(36.3774 -0.480314 8.18771e-16)
(36.4178 -0.470371 -6.4744e-17)
(36.4575 -0.46083 -5.77746e-16)
(36.4967 -0.451679 -5.71643e-16)
(36.5354 -0.442906 1.42478e-15)
(36.5735 -0.434498 -4.41555e-16)
(36.6112 -0.426442 -8.37907e-18)
(36.6484 -0.418723 -8.4329e-17)
(36.6852 -0.411328 -2.28485e-16)
(36.7217 -0.404245 3.27061e-16)
(36.7578 -0.397459 -4.02655e-16)
(36.7935 -0.390957 4.03253e-16)
(36.8289 -0.38472 -5.52243e-17)
(36.8641 -0.378736 3.29582e-16)
(36.899 -0.372983 -5.92146e-16)
(36.9336 -0.367456 3.621e-18)
(36.968 -0.362106 3.6068e-17)
(37.0023 -0.356894 -5.17707e-17)
(37.0363 -0.351755 -8.82791e-17)
(37.0703 -0.346651 -1.65783e-16)
(37.104 -0.341456 1.94123e-16)
(37.1377 -0.33606 -2.03543e-17)
(37.1712 -0.330245 5.76186e-17)
(37.2047 -0.323652 -1.19565e-16)
(37.2384 -0.315994 -4.90079e-17)
(37.2795 -0.307521 4.25565e-18)
(36.9104 -3.65063 -1.0669e-15)
(36.6011 -3.63594 2.94118e-16)
(36.2649 -3.66857 -4.66755e-15)
(36.0848 -3.65929 2.23527e-15)
(36.0003 -3.62186 3.90539e-15)
(35.9544 -3.57311 2.13463e-15)
(35.9336 -3.51731 -5.34467e-16)
(35.9376 -3.4551 -8.43947e-15)
(35.9639 -3.38778 1.88344e-16)
(36.008 -3.31679 5.49403e-15)
(36.0654 -3.243 -2.77182e-16)
(36.1327 -3.16715 -1.61019e-16)
(36.2068 -3.08965 4.3317e-15)
(36.2857 -3.01095 -9.08625e-16)
(36.3674 -2.93153 -5.1977e-16)
(36.4507 -2.85171 -6.93248e-16)
(36.535 -2.77174 -1.62578e-15)
(36.6192 -2.69186 -2.32717e-15)
(36.7032 -2.61227 -9.89287e-16)
(36.7863 -2.53345 6.21619e-15)
(36.8684 -2.45578 7.66209e-16)
(36.949 -2.3794 -4.62553e-15)
(37.0279 -2.3045 -1.47096e-15)
(37.1048 -2.23126 -3.57703e-15)
(37.1797 -2.15976 6.19433e-15)
(37.2521 -2.09004 -2.53894e-15)
(37.322 -2.02218 2.30339e-15)
(37.3893 -1.95627 1.34352e-15)
(37.4543 -1.89236 -3.12192e-15)
(37.5166 -1.83043 1.23863e-15)
(37.5764 -1.77052 1.85662e-16)
(37.6338 -1.71262 -1.18496e-15)
(37.6887 -1.6567 2.671e-15)
(37.7411 -1.60269 -3.1213e-15)
(37.7912 -1.55059 5.14585e-16)
(37.839 -1.50034 7.24888e-16)
(37.8846 -1.45192 -1.18112e-16)
(37.9282 -1.40525 7.83222e-16)
(37.9698 -1.36032 -1.07372e-15)
(38.0098 -1.31712 1.15495e-15)
(38.0481 -1.27557 -1.52539e-15)
(38.0851 -1.23559 1.6552e-15)
(38.1208 -1.1971 -1.47815e-15)
(38.1553 -1.16008 7.91328e-16)
(38.1886 -1.12449 1.15592e-15)
(38.2208 -1.09025 5.4112e-16)
(38.2519 -1.05733 -1.16372e-15)
(38.2819 -1.02569 1.33604e-15)
(38.3108 -0.995271 -2.43534e-15)
(38.3387 -0.966031 1.48542e-15)
(38.3655 -0.937926 -4.30354e-16)
(38.3913 -0.91091 2.34036e-16)
(38.416 -0.884939 -1.29899e-15)
(38.4397 -0.859969 2.71446e-15)
(38.4625 -0.83596 -1.35879e-15)
(38.4843 -0.81287 -2.17149e-15)
(38.5051 -0.790663 1.63304e-15)
(38.5251 -0.769293 -5.1868e-17)
(38.5441 -0.748725 -1.14851e-15)
(38.5622 -0.728945 -1.10731e-15)
(38.5796 -0.709898 3.04593e-15)
(38.5961 -0.691564 -1.95516e-15)
(38.612 -0.673933 1.95094e-15)
(38.6273 -0.656988 -9.83165e-16)
(38.642 -0.640714 9.57792e-17)
(38.6563 -0.625067 4.37434e-16)
(38.6702 -0.610035 -1.15075e-15)
(38.6837 -0.595603 -1.41644e-16)
(38.6969 -0.581745 8.7368e-16)
(38.7098 -0.568449 -6.14359e-16)
(38.7225 -0.555691 5.15512e-16)
(38.7351 -0.543455 5.65282e-17)
(38.7475 -0.53172 -6.8772e-16)
(38.7599 -0.520469 -7.81431e-17)
(38.7722 -0.509685 1.35444e-15)
(38.7845 -0.499349 -5.02032e-16)
(38.7967 -0.489445 -3.44638e-16)
(38.809 -0.479958 4.91457e-16)
(38.8213 -0.470871 -2.45332e-16)
(38.8335 -0.462172 3.91655e-16)
(38.8459 -0.453842 4.05438e-16)
(38.8582 -0.445868 -1.09888e-15)
(38.8706 -0.438234 9.88049e-17)
(38.8831 -0.430928 4.34928e-16)
(38.8957 -0.423934 -7.03105e-16)
(38.9084 -0.417241 8.86257e-16)
(38.9212 -0.410828 -3.21413e-16)
(38.9341 -0.404685 -4.64726e-16)
(38.9472 -0.398782 7.64946e-17)
(38.9604 -0.393109 5.25747e-17)
(38.9737 -0.387631 1.04728e-16)
(38.9873 -0.382325 -1.26851e-16)
(39.0011 -0.377119 8.63318e-17)
(39.0151 -0.371982 4.158e-18)
(39.0295 -0.366794 5.74629e-17)
(39.0442 -0.361454 -2.03039e-17)
(39.0594 -0.35573 3.53825e-17)
(39.0752 -0.349266 -2.66043e-17)
(39.0917 -0.341692 -4.69951e-17)
(39.1129 -0.333188 -4.03044e-17)
(42.731 -3.30966 1.77588e-15)
(42.3544 -3.41241 -2.66924e-15)
(41.925 -3.51244 4.39e-15)
(41.6298 -3.545 -3.02984e-15)
(41.4364 -3.54417 -4.88563e-15)
(41.295 -3.53026 4.18615e-15)
(41.1874 -3.50543 1.81065e-15)
(41.1101 -3.46923 5.32359e-17)
(41.0604 -3.42301 -7.52379e-17)
(41.0342 -3.3688 2.83076e-15)
(41.027 -3.30833 -2.89383e-15)
(41.0349 -3.24288 -1.92619e-15)
(41.0549 -3.17336 -4.41683e-15)
(41.0845 -3.10049 3.41894e-15)
(41.1214 -3.02499 -5.41999e-16)
(41.1641 -2.94748 -1.33177e-15)
(41.2109 -2.8687 5.45075e-16)
(41.2606 -2.78928 6.79495e-15)
(41.3122 -2.70967 -6.23357e-15)
(41.3647 -2.63016 -1.13653e-15)
(41.4173 -2.55114 2.17114e-15)
(41.4694 -2.47286 6.38783e-16)
(41.5203 -2.3955 -2.08217e-15)
(41.5695 -2.31925 -8.04467e-16)