/*--------------------------------*- C++ -*----------------------------------*\
  =========                 |
  \\      /  F ield         | OpenFOAM: The Open Source CFD Toolbox
   \\    /   O peration     | Website:  https://openfoam.org
    \\  /    A nd           | Version:  8
     \\/     M anipulation  |
\*---------------------------------------------------------------------------*/
FoamFile
{
    version     2.0;
    format      ascii;
    class       surfaceScalarField;
    location    "0.4";
    object      phi;
}
// * * * * * * * * * * * * * * * * * * * * * * * * * * * * * * * * * * * * * //

dimensions      [1 0 -1 0 0 0 0];

internalField   nonuniform List<scalar> 
4780
(
-1.2200905e-09
-4.1315733e-05
1.9055141e-16
-2.4757914e-10
-4.1317855e-05
6.0977027e-16
-9.597438e-12
-4.1317139e-05
4.2273495e-16
-4.4127918e-11
-4.1316876e-05
1.6316494e-16
-2.5604611e-13
-4.1316954e-05
-6.6598661e-16
4.3737858e-11
-4.1316954e-05
-4.9157909e-16
9.5223506e-12
-4.1316876e-05
1.9578466e-16
2.4773075e-10
-4.1317139e-05
-8.1825067e-16
1.2202415e-09
-4.1317855e-05
-2.7496798e-16
-4.1315733e-05
7.1118879e-16
-1.608082e-09
-4.8139034e-05
3.3992827e-17
-4.3820052e-10
-4.8143869e-05
4.8720342e-16
-3.5710323e-11
-4.8142402e-05
4.7366638e-16
-7.9365008e-11
-4.8141703e-05
3.2639548e-16
-2.6438935e-13
-4.8141902e-05
-9.2701549e-16
7.8963003e-11
-4.8141902e-05
-5.2530919e-16
3.562971e-11
-4.8141703e-05
2.6317923e-16
4.3835367e-10
-4.8142402e-05
-9.5676133e-16
1.608236e-09
-4.8143869e-05
-3.1765851e-16
-4.8139034e-05
6.1196144e-16
-9.0772039e-10
-4.879505e-05
1.6265913e-16
-5.0129026e-10
-4.8801133e-05
3.2818222e-16
-4.7364843e-11
-4.879973e-05
9.2600054e-17
-9.1906111e-11
-4.8798543e-05
-6.1304713e-16
-2.6754861e-13
-4.8798877e-05
-1.174219e-15
9.1500807e-11
-4.8798877e-05
-7.9278987e-16
4.7283343e-11
-4.8798543e-05
-2.4736448e-16
5.0144509e-10
-4.879973e-05
-7.2829546e-16
9.0787613e-10
-4.8801133e-05
-5.0734376e-16
-4.8795049e-05
6.3183377e-16
-6.9145323e-10
-4.8826076e-05
1.2729305e-16
-5.1753798e-10
-4.8832958e-05
4.7945454e-16
-5.1519695e-11
-4.8831865e-05
3.5832021e-16
-9.633836e-11
-4.8830177e-05
-3.4736437e-16
-2.7196487e-13
-4.883065e-05
-9.3933699e-16
9.5927866e-11
-4.883065e-05
-6.9344934e-16
5.1436119e-11
-4.8830177e-05
-1.4990221e-16
5.1769341e-10
-4.8831864e-05
-4.6753749e-16
6.9161053e-10
-4.8832957e-05
-4.0635428e-16
-4.8826075e-05
7.0589885e-16
-5.5844783e-10
-4.8813491e-05
8.5572901e-17
-5.2062569e-10
-4.8820901e-05
4.9073699e-16
-5.258309e-11
-4.8820257e-05
4.7643457e-16
-9.8354359e-11
-4.8818066e-05
-3.0277015e-16
-2.7614792e-13
-4.8818682e-05
-5.8467126e-16
9.793816e-11
-4.8818682e-05
-4.9167638e-16
5.2497792e-11
-4.8818066e-05
-2.5563261e-16
5.2078252e-10
-4.8820256e-05
-4.1821498e-16
5.5860698e-10
-4.8820901e-05
-5.9033089e-16
-4.881349e-05
7.004438e-16
-5.70582e-10
-4.8798423e-05
1.0911036e-16
-5.1989929e-10
-4.8806386e-05
5.1429666e-16
-5.296117e-11
-4.8806176e-05
-7.7187994e-17
-9.9763198e-11
-4.8803483e-05
-8.187523e-16
-2.8018327e-13
-4.8804243e-05
-7.2825562e-16
9.934115e-11
-4.8804243e-05
-4.6718093e-16
5.2874544e-11
-4.8803483e-05
-3.223035e-16
5.2005817e-10
-4.8806176e-05
-5.9883175e-16
5.7074324e-10
-4.8806385e-05
-3.506722e-16
-4.8798422e-05
6.8758761e-16
-5.2534757e-10
-4.8783129e-05
-7.8869234e-18
-5.1853567e-10
-4.8791553e-05
4.9291105e-16
-5.288498e-11
-4.8791822e-05
1.9409545e-16
-1.0103029e-10
-4.8788628e-05
-3.1095767e-16
-2.8405643e-13
-4.8789534e-05
-3.6718995e-16
1.0060249e-10
-4.8789534e-05
-4.7010347e-16
5.2797244e-11
-4.8788628e-05
-3.3943149e-16
5.1869683e-10
-4.8791822e-05
-6.6520736e-16
5.2551088e-10
-4.8791552e-05
-3.5053484e-16
-4.8783128e-05
5.7811427e-16
-5.4188393e-10
-4.8767639e-05
1.5749252e-16
-5.1683654e-10
-4.8776559e-05
6.3507672e-16
-5.2861761e-11
-4.8777288e-05
-2.4917029e-16
-1.0225851e-10
-4.8773593e-05
-5.8480154e-16
-2.8803484e-13
-4.8774648e-05
-4.0344479e-16
1.0182475e-10
-4.8774647e-05
-4.1360962e-16
5.2772856e-11
-4.8773592e-05
-2.7703232e-16
5.1699989e-10
-4.8777287e-05
-5.9449107e-16
5.4204961e-10
-4.8776558e-05
-3.0537231e-16
-4.8767639e-05
5.4882526e-16
-5.0966482e-10
-4.8752017e-05
1.3328951e-17
-5.1498754e-10
-4.8761367e-05
4.6497437e-16
-5.2575536e-11
-4.8762586e-05
1.5000075e-16
-1.03463e-10
-4.8758391e-05
1.5254491e-16
-2.9192372e-13
-4.8759596e-05
3.3064094e-16
1.0302341e-10
-4.8759596e-05
-1.5956981e-16
5.2485496e-11
-4.875839e-05
-8.3270467e-18
5.1515298e-10
-4.8762585e-05
-7.2656931e-16
5.0983272e-10
-4.8761366e-05
-4.6698334e-16
-4.8752016e-05
5.0292568e-16
-5.1766303e-10
-4.8736223e-05
5.5869765e-17
-5.1306477e-10
-4.8746019e-05
5.0524863e-16
-5.23475e-11
-4.8747718e-05
-1.7566311e-16
-1.0464724e-10
-4.8743024e-05
-4.2879736e-16
-2.9600919e-13
-4.8744382e-05
-4.2847442e-16
1.0420164e-10
-4.8744382e-05
-4.6334432e-16
5.2256432e-11
-4.8743023e-05
-4.722761e-16
5.1323255e-10
-4.8747717e-05
-4.151325e-16
5.1783319e-10
-4.8746018e-05
1.2658925e-17
-4.8736222e-05
6.4542951e-16
-4.9163591e-10
-4.8720298e-05
-8.105404e-17
-5.1090863e-10
-4.8730489e-05
5.4989434e-16
-5.1877526e-11
-4.8732691e-05
1.0706085e-16
-1.058085e-10
-4.8727499e-05
-4.4400161e-16
-2.9997891e-13
-4.8729013e-05
-4.5255689e-16
1.0535693e-10
-4.8729013e-05
-3.0042485e-16
5.1785322e-11
-4.8727498e-05
-3.3315957e-16
5.1107873e-10
-4.873269e-05
-3.4567935e-16
4.918084e-10
-4.8730488e-05
4.2340329e-16
-4.8720298e-05
8.1042354e-16
-4.931368e-10
-4.8704219e-05
-8.9803177e-17
-5.0874943e-10
-4.8714807e-05
6.0302353e-16
-5.1436973e-11
-4.8717509e-05
-1.4065738e-16
-1.0694714e-10
-4.8711819e-05
-8.529589e-16
-3.0408935e-13
-4.8713491e-05
-8.8682625e-16
1.0648942e-10
-4.871349e-05
-6.4799818e-16
5.1343786e-11
-4.8711818e-05
-6.3505757e-16
5.0892202e-10
-4.8717507e-05
-5.1739025e-16
4.9331159e-10
-4.8714806e-05
2.9304571e-16
-4.8704218e-05
1.2623353e-15
-4.7095092e-10
-4.8688016e-05
-1.8739956e-16
-5.0630867e-10
-4.8698956e-05
4.506935e-16
-5.0769591e-11
-4.8702177e-05
-1.9080946e-16
-1.0805987e-10
-4.8695989e-05
-1.5098232e-16
-3.0806475e-13
-4.8697822e-05
-3.1591018e-16
1.0759601e-10
-4.8697821e-05
-5.0289199e-16
5.0675464e-11
-4.8695989e-05
-3.0138791e-16
5.0648381e-10
-4.8702175e-05
-7.7059663e-16
4.7112785e-10
-4.8698955e-05
-9.3432786e-17
-4.8688015e-05
7.2923789e-16
-4.6769282e-10
-4.8671673e-05
5.2343555e-17
-5.0389114e-10
-4.8682958e-05
6.3702958e-16
-5.0103486e-11
-4.8686699e-05
-6.7828459e-18
-1.0914689e-10
-4.8680015e-05
-8.1982633e-16
-3.1217477e-13
-4.868201e-05
-8.2836155e-16
1.0867684e-10
-4.8682009e-05
-8.592412e-16
5.0008173e-11
-4.8680014e-05
-4.9624992e-16
5.0406864e-10
-4.8686697e-05
-7.8455092e-16
4.6787232e-10
-4.8682957e-05
-3.6052958e-16
-4.8671672e-05
3.3005035e-16
-4.4781363e-10
-4.8655213e-05
-2.2089432e-16
-5.0117589e-10
-4.8666804e-05
2.3281206e-16
-4.9223801e-11
-4.8671082e-05
-4.3425111e-17
-1.1020504e-10
-4.8663901e-05
-5.896619e-16
-3.1630538e-13
-4.8666062e-05
-8.0111351e-16
1.0972888e-10
-4.8666061e-05
-1.0185264e-15
4.91271e-11
-4.86639e-05
-6.4092253e-16
5.0135553e-10
-4.867108e-05
-6.9996756e-16
4.4799578e-10
-4.8666802e-05
-2.4091324e-16
-4.8655212e-05
1.1242839e-16
-4.409462e-10
-4.8638631e-05
-6.9967195e-17
-4.9848602e-10
-4.8650511e-05
6.4423372e-16
-4.8319174e-11
-4.865533e-05
3.8841384e-16
-1.1123493e-10
-4.8647652e-05
9.3275368e-17
-3.2045812e-13
-4.8649982e-05
-1.4495686e-16
1.1075248e-10
-4.8649981e-05
-3.1887134e-16
4.8222008e-11
-4.8647651e-05
3.5891742e-17
4.9866836e-10
-4.8655329e-05
-6.937601e-16
4.4113026e-10
-4.8650509e-05
-4.3617622e-16
-4.8638629e-05
3.2923454e-16
-4.223177e-10
-4.8621943e-05
-4.6129295e-16
-4.955e-10
-4.8634075e-05
-4.6614227e-17
-4.7211337e-11
-4.8639451e-05
-3.8486941e-16
-1.1223328e-10
-4.8631276e-05
-1.7471489e-15
-3.2473231e-13
-4.8633777e-05
-9.2217561e-16
1.1174444e-10
-4.8633777e-05
-1.4318358e-15
4.7113525e-11
-4.8631275e-05
-1.1849457e-15
4.9568492e-10
-4.863945e-05
-5.7195792e-16
4.2250382e-10
-4.8634073e-05
-3.5561159e-16
-4.8621942e-05
1.56876e-16
-4.1258523e-10
-4.8605147e-05
1.7761336e-16
-4.9252884e-10
-4.8617509e-05
9.1746701e-16
-4.6055199e-11
-4.8623451e-05
1.5783849e-16
-1.1320073e-10
-4.8614778e-05
-6.9194213e-16
-3.2890365e-13
-4.8617454e-05
-5.154231e-16
1.1270573e-10
-4.8617453e-05
-5.2895621e-16
4.5956383e-11
-4.8614777e-05
-5.6369972e-16
4.9271629e-10
-4.8623449e-05
-7.7027861e-16
4.1277389e-10
-4.8617507e-05
-2.7654464e-16
-4.8605146e-05
1.5203728e-16
-3.9446478e-10
-4.8588261e-05
-2.0514639e-17
-4.8927398e-10
-4.8600814e-05
6.0601962e-16
-4.4705416e-11
-4.8607337e-05
-6.5547793e-16
-1.1413519e-10
-4.8598164e-05
-2.1888442e-15
-3.3331563e-13
-4.8601019e-05
-1.6343809e-15
1.1363359e-10
-4.8601018e-05
-1.7914302e-15
4.4605309e-11
-4.8598163e-05
-1.5976211e-15
4.8946409e-10
-4.8607335e-05
-4.6876673e-16
3.9465645e-10
-4.8600812e-05
-1.3260937e-16
-4.8588259e-05
-3.3572393e-17
-3.8232955e-10
-4.8571283e-05
1.8814886e-17
-4.8601604e-10
-4.8584001e-05
5.0251441e-16
-4.3284984e-11
-4.8591114e-05
1.5172687e-17
-1.1503716e-10
-4.8581442e-05
5.7077376e-16
-3.3740335e-13
-4.8584479e-05
1.5591481e-16
1.145294e-10
-4.8584478e-05
-3.4309601e-16
4.3184372e-11
-4.8581441e-05
-8.7493793e-17
4.862086e-10
-4.8591112e-05
-9.0908287e-16
3.8252321e-10
-4.8583999e-05
-1.6800959e-16
-4.8571282e-05
4.1917334e-16
-3.6419028e-10
-4.8554228e-05
1.9258383e-16
-4.8249354e-10
-4.8567072e-05
7.7026107e-16
-4.1678786e-11
-4.8574792e-05
-2.119481e-16
-1.1590488e-10
-4.8564618e-05
-1.1176971e-15
-3.4186252e-13
-4.8567841e-05
-9.2625622e-16
1.1539065e-10
-4.8567841e-05
-1.0141334e-15
4.157749e-11
-4.8564617e-05
-9.6660529e-16
4.8268887e-10
-4.8574789e-05
-1.0493502e-15
3.6438654e-10
-4.856707e-05
-1.5550139e-16
-4.8554227e-05
2.6828435e-16
-3.499028e-10
-4.8537096e-05
-3.9026069e-16
-4.7894668e-10
-4.8550035e-05
-3.5410027e-16
-3.9980826e-11
-4.8558372e-05
-6.745791e-16
-1.1673919e-10
-4.8547697e-05
-2.7320908e-16
-3.4610427e-13
-4.855111e-05
4.7796321e-17
1.1621864e-10
-4.855111e-05
-8.9827633e-16
3.9878638e-11
-4.8547696e-05
1.422584e-17
4.7914463e-10
-4.855837e-05
-5.8646418e-16
3.5010156e-10
-4.8550033e-05
-6.0275944e-16
-4.8537095e-05
-4.1881453e-16
-3.3137863e-10
-4.8519899e-05
-3.0780819e-16
-4.7516108e-10
-4.8532892e-05
3.5853414e-16
-3.8108187e-11
-4.8541864e-05
-9.2128154e-16
-1.1754074e-10
-4.8530686e-05
-1.1405508e-15
-3.5060557e-13
-4.8534293e-05
-5.6299938e-16
1.1701373e-10
-4.8534293e-05
-8.6306321e-16
3.8005922e-11
-4.8530685e-05
-5.5361754e-17
4.7536199e-10
-4.8541861e-05
-5.1012998e-16
3.3157938e-10
-4.853289e-05
-3.6151467e-16
-4.8519898e-05
-1.6642337e-16
-3.1499791e-10
-4.8502635e-05
-4.2107316e-16
-4.7132712e-10
-4.8515647e-05
-5.7386991e-16
-3.6121148e-11
-4.8525267e-05
-5.5824267e-16
-1.1830822e-10
-4.8513585e-05
-6.2606314e-16
-3.5477e-13
-4.8517391e-05
-6.3765564e-16
1.1777481e-10
-4.851739e-05
-1.0958736e-15
3.6018247e-11
-4.8513584e-05
-6.565237e-16
4.7153084e-10
-4.8525264e-05
-8.216382e-16
3.1520103e-10
-4.8515644e-05
-5.1826445e-16
-4.8502633e-05
-7.085589e-16
-2.958815e-10
-4.8485313e-05
-4.8606692e-16
-4.6729069e-10
-4.8498303e-05
-2.0140537e-17
-3.3978862e-11
-4.8508588e-05
-5.5044415e-16
-1.1904683e-10
-4.8496403e-05
-6.7854918e-16
-3.5910464e-13
-4.8500412e-05
-4.2605061e-16
1.1850696e-10
-4.8500411e-05
-8.6688327e-16
3.3875412e-11
-4.8496401e-05
-5.3458089e-16
4.6749743e-10
-4.8508585e-05
-1.2267875e-15
2.9608689e-10
-4.84983e-05
1.635623e-16
-4.8485311e-05
1.9741975e-16
-2.7723776e-10
-4.8467927e-05
-3.0371114e-16
-4.6317363e-10
-4.8480857e-05
-2.9591882e-16
-3.1691465e-11
-4.8491821e-05
-8.9723677e-16
-1.1974996e-10
-4.8479134e-05
-1.7825118e-15
-3.6353637e-13
-4.8483349e-05
-1.7369912e-15
1.1920375e-10
-4.8483348e-05
-1.7039323e-15
3.1587461e-11
-4.8479132e-05
-1.6278297e-15
4.6338302e-10
-4.8491818e-05
-6.3318011e-16
2.7744577e-10
-4.8480854e-05
1.6419732e-16
-4.8467926e-05
4.5101529e-17
-2.5755459e-10
-4.8450489e-05
-5.2511118e-16
-4.5891033e-10
-4.8463317e-05
-3.4225895e-16
-2.929086e-11
-4.8474979e-05
-9.3756547e-16
-1.204334e-10
-4.846179e-05
-6.8418823e-16
-3.6787372e-13
-4.8466216e-05
-9.3229104e-16
1.198808e-10
-4.8466215e-05
-9.935629e-16
2.9186404e-11
-4.8461789e-05
-1.1332652e-15
4.5912245e-10
-4.8474975e-05
-1.1132038e-15
2.5776489e-10
-4.8463314e-05
-4.986688e-16
-4.8450487e-05
-4.2442276e-16
-2.3611081e-10
-4.8432981e-05
-1.6053219e-16
-4.5450933e-10
-4.8445667e-05
2.876583e-17
-2.6691255e-11
-4.8458042e-05
-1.2207263e-15
-1.2107519e-10
-4.8444356e-05
-1.5270634e-15
-3.7226161e-13
-4.8448995e-05
-1.457595e-15
1.2051628e-10
-4.8448994e-05
-1.8352863e-15
2.6586782e-11
-4.8444354e-05
-1.9532087e-15
4.5472421e-10
-4.8458039e-05
-6.3722717e-16
2.3632305e-10
-4.8445664e-05
-3.7772092e-16
-4.8432979e-05
-4.7419279e-16
-2.1632923e-10
-4.841542e-05
2.3707526e-16
-4.5006506e-10
-4.8427928e-05
3.8205484e-16
-2.4073009e-11
-4.8441031e-05
-1.4269832e-15
-1.2171751e-10
-4.8426851e-05
-8.9641411e-16
-3.766996e-13
-4.8431706e-05
-9.2366662e-16
1.2115226e-10
-4.8431705e-05
-7.3216825e-16
2.3968818e-11
-4.8426849e-05
-1.3719187e-15
4.5028294e-10
-4.8441028e-05
-1.6173706e-15
2.1654345e-10
-4.8427924e-05
-5.6655425e-16
-4.8415418e-05
-4.5016424e-16
-1.9084499e-10
-4.8397771e-05
-9.1661198e-16
-4.4536791e-10
-4.8410055e-05
-7.94911e-16
-2.1139288e-11
-4.8423906e-05
-1.143805e-15
-1.2229599e-10
-4.8409237e-05
-1.9737627e-16
-3.8109921e-13
-4.8414311e-05
-5.1689335e-16
1.2172471e-10
-4.841431e-05
-1.0712409e-15
2.103506e-11
-4.8409235e-05
-1.2602475e-15
4.455885e-10
-4.8423902e-05
-1.1167734e-15
1.9106144e-10
-4.8410052e-05
4.0213996e-16
-4.8397769e-05
-4.0092395e-16
-1.7238148e-10
-4.8380066e-05
-1.1467768e-16
-4.4084114e-10
-4.8392099e-05
-1.9729305e-16
-1.8403017e-11
-4.8406708e-05
-1.7917243e-15
-1.2292261e-10
-4.8391558e-05
-1.2030801e-15
-3.8555637e-13
-4.8396852e-05
-9.2940587e-16
1.2234467e-10
-4.839685e-05
-1.4646891e-15
1.8298744e-11
-4.8391556e-05
-1.7005554e-15
4.4106487e-10
-4.8406704e-05
-5.548068e-16
1.7260039e-10
-4.8392095e-05
2.0191016e-15
-4.8380064e-05
5.1036528e-16
-1.4018595e-10
-4.8362234e-05
-7.7398803e-16
-4.3579009e-10
-4.8373965e-05
-8.2641157e-16
-1.5079105e-11
-4.8389354e-05
-2.4976712e-16
-1.2342017e-10
-4.8373732e-05
2.5510897e-16
-3.8960326e-13
-4.8379245e-05
-1.0233154e-15
1.2283646e-10
-4.8379244e-05
-1.3849587e-15
1.4975585e-11
-4.8373729e-05
-1.3439085e-15
4.3601666e-10
-4.838935e-05
-9.6965829e-16
1.4040669e-10
-4.8373961e-05
8.3876941e-16
-4.8362231e-05
-2.0616015e-16
-1.264568e-10
-4.8344341e-05
-3.2263435e-16
-4.3137755e-10
-4.8355762e-05
-7.6033413e-16
-1.2437624e-11
-4.8371933e-05
-4.618594e-16
-1.240807e-10
-4.835585e-05
-8.8050053e-16
-3.9385271e-13
-4.8361583e-05
-2.3357426e-15
1.2349069e-10
-4.8361581e-05
-2.2967145e-15
1.233485e-11
-4.8355848e-05
-2.6084722e-15
4.3160693e-10
-4.8371929e-05
-2.4598323e-15
1.2667898e-10
-4.8355758e-05
-1.0199968e-15
-4.8344339e-05
-6.5576269e-16
-8.1992979e-11
-4.8326255e-05
-9.1294627e-16
-4.2580174e-10
-4.8337301e-05
-1.1418158e-15
-8.5932792e-12
-4.8354282e-05
-1.6921375e-15
-1.2443883e-10
-4.8337751e-05
-1.3598227e-15
-3.9830551e-13
-4.83437e-05
-1.4665594e-15
1.2384265e-10
-4.8343699e-05
-1.3155959e-15
8.4929238e-12
-4.8337748e-05
-1.4254847e-15
4.2603446e-10
-4.8354278e-05
-8.2318452e-16
8.2217354e-11
-4.8337297e-05
6.4029149e-16
-4.8326253e-05
-6.2769489e-16
-8.0508622e-11
-4.8308117e-05
-2.7928333e-16
-4.2189882e-10
-4.8318813e-05
-1.0244545e-15
-6.4803701e-12
-4.8336589e-05
-5.2365976e-16
-1.252393e-10
-4.8319624e-05
-1.579977e-15
-4.0231561e-13
-4.8325787e-05
-3.048348e-15
1.2463686e-10
-4.8325786e-05
-2.4495079e-15
6.3816914e-12
-4.8319622e-05
-2.8383575e-15
4.2213399e-10
-4.8336584e-05
-3.294527e-15
8.0734016e-11
-4.8318809e-05
-1.1771394e-15
-4.8308114e-05
-8.2296895e-16
-1.2750165e-11
-4.828968e-05
-8.2630573e-16
-4.1536284e-10
-4.8299929e-05
-9.0709869e-16
-1.9716207e-12
-4.8318545e-05
7.0057164e-16
-1.2530498e-10
-4.8301161e-05
1.4404797e-15
-4.0646024e-13
-4.8307533e-05
-1.0477207e-15
1.2469701e-10
-4.8307531e-05
-9.4898783e-16
1.8853075e-12
-4.8301158e-05
-2.098376e-16
4.1560152e-10
-4.831854e-05
-5.85255e-16
1.2976944e-11
-4.8299925e-05
2.4966393e-16
-4.8289677e-05
-4.6985314e-16
-3.8755699e-11
-4.8271223e-05
-3.5747545e-17
-4.127719e-10
-4.8281121e-05
-8.5826557e-16
-1.204973e-12
-4.8300525e-05
-2.2659193e-15
-1.2647559e-10
-4.8282741e-05
-2.431528e-15
-4.107602e-13
-4.8289316e-05
-2.3662405e-15
1.2586049e-10
-4.8289314e-05
-1.9218048e-15
1.1236798e-12
-4.8282738e-05
-1.7126193e-15
4.1301299e-10
-4.830052e-05
-2.2775547e-15
3.8983813e-11
-4.8281116e-05
-9.8874791e-16
-4.827122e-05
-8.9856804e-16
7.5209524e-11
-4.8252316e-05
-1.7734028e-16
-4.0427228e-10
-4.8261685e-05
-1.2278909e-15
7.5202088e-12
-4.8281963e-05
8.9574944e-17
-1.2589611e-10
-4.8263788e-05
4.655292e-16
-4.1449344e-13
-4.8270562e-05
-1.6037617e-15
1.2527636e-10
-4.827056e-05
-1.7687984e-15
-7.6466945e-12
-4.8263785e-05
-1.1761857e-15
4.0451719e-10
-4.8281957e-05
-3.7971447e-16
-7.4974926e-11
-4.8261681e-05
4.0848833e-16
-4.8252313e-05
-1.2336998e-16
-9.02457e-12
-4.8233469e-05
-3.0442183e-16
-4.0458953e-10
-4.8242535e-05
-5.196992e-16
4.9004118e-12
-4.826357e-05
-1.5695225e-16
-1.2792544e-10
-4.8245027e-05
-5.3391324e-16
-4.1851245e-13
-4.825199e-05
-1.866415e-15
1.2729811e-10
-4.8251988e-05
-1.9142635e-15
-5.0338803e-12
-4.8245023e-05
-1.0100005e-15
4.0483577e-10
-4.8263564e-05
-4.2994337e-16
9.2551451e-12
-4.824253e-05
-3.4671666e-16
-4.8233466e-05
-1.1513545e-15
1.926327e-10
-4.821396e-05
-2.8137079e-16
-3.9200725e-10
-4.8222387e-05
-9.3115192e-16
1.9460119e-11
-4.8244342e-05
-7.8340311e-16
-1.2596749e-10
-4.8225429e-05
-1.6697601e-15
-4.2227489e-13
-4.8232582e-05
-1.7343881e-15
1.2533603e-10
-4.823258e-05
-1.952418e-15
-1.9578203e-11
-4.8225426e-05
-1.7530001e-15
3.9225918e-10
-4.8244337e-05
-1.9439927e-15
-1.9239517e-10
-4.8222383e-05
-4.5146432e-16
-4.8213957e-05
-4.8902827e-18
-3.6440227e-12
-4.8194666e-05
-3.2272927e-16
-3.9827314e-10
-4.8202912e-05
-3.2685354e-16
9.2683352e-12
-4.8225554e-05
9.765368e-16
-1.2982489e-10
-4.8206298e-05
1.3422906e-15
-4.2588129e-13
-4.8213624e-05
-1.5124522e-15
1.2918594e-10
-4.8213622e-05
-1.1624308e-15
-9.3953499e-12
-4.8206294e-05
-3.3919174e-17
3.9852395e-10
-4.8225548e-05
-1.0200249e-15
3.8766391e-12
-4.8202907e-05
-1.1664813e-15
-4.8194663e-05
-1.1137049e-15
3.5608574e-10
-4.8174437e-05
-4.9528768e-17
-3.7750869e-10
-4.8181866e-05
-5.7275542e-16
3.4549421e-11
-4.8205505e-05
-2.8399624e-15
-1.2508125e-10
-4.8185885e-05
-4.3794117e-15
-4.296967e-13
-4.8193394e-05
-2.4644516e-15
1.2443879e-10
-4.8193391e-05
-2.3045907e-15
-3.4663638e-11
-4.8185881e-05
-3.0415713e-15
3.7776789e-10
-4.8205499e-05
-1.5819324e-15
-3.5584537e-10
-4.8181861e-05
3.8622781e-16
-4.8174434e-05
1.5774832e-16
-3.9793306e-11
-4.8154675e-05
1.4926253e-17
-3.9515273e-10
-4.8162142e-05
1.4624647e-16
9.634136e-12
-4.8186346e-05
1.9847415e-16
-1.3252563e-10
-4.8166396e-05
6.0594993e-16
-4.3326876e-13
-4.8174066e-05
-1.9634554e-15
1.3187497e-10
-4.8174063e-05
-1.994068e-15
-9.7627993e-12
-4.8166392e-05
-7.0934596e-16
3.9540793e-10
-4.818634e-05
-2.2710631e-16
4.0025556e-11
-4.8162138e-05
-8.5463642e-16
-4.8154672e-05
-1.2585202e-15
5.8800384e-10
-4.8133652e-05
9.9905297e-16
-3.5896611e-10
-4.814e-05
1.3174778e-15
5.4895546e-11
-4.8165335e-05
2.1708696e-16
-1.2256507e-10
-4.8145001e-05
-1.3702565e-15
-4.3597894e-13
-4.8152854e-05
-2.4302657e-15
1.2191309e-10
-4.8152852e-05
-1.9057188e-15
-5.5006054e-11
-4.8144997e-05
-2.5208914e-15
3.5923289e-10
-4.8165329e-05
-2.3140624e-15
-5.8776135e-10
-4.8139996e-05
-4.9224018e-17
-4.8133649e-05
8.6057903e-16
-1.4204135e-10
-4.8113458e-05
-1.1750871e-15
-3.9698087e-10
-4.8120193e-05
-1.2269994e-15
2.9664506e-12
-4.8145902e-05
-2.9801495e-15
-1.3648819e-10
-4.8125236e-05
-2.8269929e-15
-4.4058015e-13
-4.8133239e-05
-1.8161207e-15
1.3582678e-10
-4.8133237e-05
-2.0067016e-15
-3.1249077e-12
-4.8125231e-05
-1.1688067e-15
3.9723903e-10
-4.8145895e-05
-5.0340071e-16
1.4227631e-10
-4.8120188e-05
5.9033584e-17
-4.8113455e-05
3.8338764e-17
9.1611493e-10
-4.8091652e-05
1.3621449e-15
-3.3367321e-10
-4.8096765e-05
1.2047667e-15
8.3143648e-11
-4.8123836e-05
1.10273e-15
-1.1750198e-10
-4.8102729e-05
-2.3854028e-16
-4.4163648e-13
-4.8110931e-05
-1.7427326e-15
1.1684105e-10
-4.8110929e-05
-1.5355333e-15
-8.3250498e-11
-4.8102725e-05
-1.4787308e-15
3.339487e-10
-4.812383e-05
-1.429904e-15
-9.1586995e-10
-4.809676e-05
-2.1666548e-16
-4.809165e-05
3.87775e-16
-3.4053935e-10
-4.807114e-05
-1.5038363e-15
-4.0581289e-10
-4.8077144e-05
-1.3760808e-15
-9.1518317e-12
-4.8104327e-05
-3.7690413e-16
-1.4219327e-10
-4.8082852e-05
-4.99681e-16
-4.4701239e-13
-4.8091208e-05
-2.319016e-15
1.4152333e-10
-4.8091205e-05
-2.8446777e-15
9.0521562e-12
-4.8082847e-05
-1.3134202e-15
4.0607148e-10
-4.810432e-05
-1.0014102e-15
3.4077391e-10
-4.807714e-05
1.1842246e-15
-4.8071138e-05
1.0254111e-15
1.3729445e-09
-4.8048684e-05
1.5752262e-15
-2.9793861e-10
-4.8052271e-05
1.4762088e-15
1.224632e-10
-4.808119e-05
-1.0153861e-15
-1.0873738e-10
-4.8059175e-05
-2.636185e-15
-4.4682462e-13
-4.8067765e-05
-9.2013765e-16
1.0806783e-10
-4.8067762e-05
-1.0311536e-15
-1.2256563e-10
-4.805917e-05
-7.4409057e-16
2.9822328e-10
-4.8081182e-05
-5.8398713e-16
-1.3726976e-09
-4.8052266e-05
2.4961727e-16
-4.8048682e-05
1.0585714e-15
-6.7092997e-10
-4.8028054e-05
-1.6462661e-15
-4.2359098e-10
-4.8033236e-05
-1.6678456e-15
-3.2960027e-11
-4.8061907e-05
-1.5717522e-15
-1.4993141e-10
-4.8039471e-05
-2.574189e-15
-4.5378559e-13
-4.8048225e-05
-3.1329113e-15
1.4925405e-10
-4.8048222e-05
-2.5302115e-15
3.285016e-11
-4.8039465e-05
-2.1051543e-15
4.2384766e-10
-4.80619e-05
-1.6781597e-15
6.7116187e-10
-4.8033231e-05
3.2424608e-16
-4.8028052e-05
6.2962339e-16
1.9959375e-09
-4.8005231e-05
1.8241313e-15
-2.4695597e-10
-4.8006809e-05
1.9674696e-15
1.7642432e-10
-4.8037784e-05
-6.5561729e-16
-9.4883712e-11
-4.8014671e-05
-1.4514518e-15
-4.5009426e-13
-4.8023716e-05
-7.9330884e-17
9.4205593e-11
-4.8023713e-05
-1.668278e-16
-1.7652174e-10
-4.8014665e-05
-1.7444222e-16
2.4725058e-10
-4.8037777e-05
6.8979302e-16
-1.9956907e-09
-4.8006805e-05
-5.5283265e-16
-4.8005229e-05
2.2255167e-16
-1.1738728e-09
-4.798476e-05
-2.2269858e-15
-4.5150803e-10
-4.7988886e-05
-2.3521026e-15
-7.6761197e-11
-4.8019135e-05
-2.061455e-15
-1.595158e-10
-4.7995547e-05
-2.5972853e-15
-4.5972257e-13
-4.800477e-05
-3.4955506e-15
1.5883048e-10
-4.8004767e-05
-2.4907494e-15
7.6645574e-11
-4.7995542e-05
-2.3951285e-15
4.5176112e-10
-4.8019128e-05
-1.6257306e-15
1.1741007e-09
-4.7988881e-05
9.8143396e-17
-4.7984758e-05
1.2857591e-16
2.8283463e-09
-4.796202e-05
2.8074911e-15
-1.7435852e-10
-4.7960867e-05
2.4408295e-15
2.48842e-10
-4.7994229e-05
4.3348433e-16
-7.4268471e-11
-4.7969803e-05
1.4843771e-16
-4.5139933e-13
-4.7979393e-05
1.1684462e-15
7.3578513e-11
-4.797939e-05
8.9673745e-17
-2.4893475e-10
-4.7969797e-05
2.5342527e-16
1.7466661e-10
-4.7994222e-05
1.7736816e-15
-2.8281005e-09
-4.7960863e-05
1.7256065e-15
-4.7962018e-05
2.7936138e-15
-1.8927131e-09
-4.7942027e-05
-2.6184702e-15
-4.9678094e-10
-4.7944691e-05
-2.3324694e-15
-1.4166788e-10
-4.7976707e-05
-1.9238576e-15
-1.7328815e-10
-4.7951765e-05
-3.2335211e-15
-4.6514928e-13
-4.7961546e-05
-4.5029556e-15
1.7259817e-10
-4.7961543e-05
-2.4895313e-15
1.4154689e-10
-4.7951759e-05
-2.8330632e-15
4.9702906e-10
-4.7976699e-05
-1.2396982e-16
1.8929368e-09
-4.7944687e-05
-6.4096366e-16
-4.7942025e-05
-8.5756552e-16
3.9206777e-09
-4.7919985e-05
3.9395173e-15
-6.9385411e-11
-4.7915118e-05
3.7807484e-15
3.4360147e-10
-4.7951331e-05
1.4706707e-15
-4.4597182e-11
-4.792539e-05
1.5410627e-15
-4.5052017e-13
-4.793563e-05
3.1166598e-15
4.3879187e-11
-4.7935626e-05
1.4011466e-15
-3.436893e-10
-4.7925383e-05
8.1883851e-16
6.9728637e-11
-4.7951323e-05
-2.0392821e-16
-3.9204349e-09
-4.7915114e-05
1.101722e-15
-4.7919984e-05
3.870295e-15
-2.8787226e-09
-4.7900756e-05
-1.4041678e-15
-5.6528319e-10
-4.79014e-05
-9.3225252e-16
-2.3005839e-10
-4.793546e-05
-2.7771552e-15
-1.9350251e-10
-4.7908986e-05
-2.6797837e-15
-4.6977157e-13
-4.7919431e-05
-3.923579e-15
1.9280903e-10
-4.7919427e-05
-1.4776142e-15
2.2993203e-10
-4.7908979e-05
-1.7011419e-15
5.6552223e-10
-4.7935453e-05
-1.0453328e-15
2.8789406e-09
-4.7901396e-05
4.7539466e-16
-4.7900756e-05
1.0335262e-16
5.3324164e-09
-4.7880168e-05
2.3946042e-15
5.810993e-11
-4.7870349e-05
1.9304934e-15
4.6443687e-10
-4.7910032e-05
3.5190066e-15
-1.2334066e-13
-4.788241e-05
1.5192825e-15
-4.4717796e-13
-4.7893403e-05
2.6702192e-15
-5.0482805e-13
-4.7893399e-05
5.2963187e-16
-4.6452091e-10
-4.7882403e-05
3.5508316e-16
-5.7870068e-11
-4.7910024e-05
9.3743764e-16
-5.3321778e-09
-4.7870345e-05
2.2981286e-15
-4.7880168e-05
4.4256897e-15
-4.1918438e-09
-4.7861856e-05
-1.3154671e-15
-6.6211599e-10
-4.785982e-05
-1.5895421e-15
-3.4657291e-10
-4.7896279e-05
3.9930082e-16
-2.2126005e-10
-4.7868157e-05
8.3583452e-16
-4.7314132e-13
-4.7879355e-05
-4.8515463e-15
2.2056285e-10
-4.7879351e-05
-1.538972e-15
3.464407e-10
-4.786815e-05
-2.1569055e-15
6.623431e-10
-4.7896271e-05
-1.6062624e-15
4.1920532e-09
-4.7859816e-05
-1.7807863e-15
-4.7861856e-05
-1.1006424e-15
7.1336691e-09
-4.7843567e-05
2.5179217e-15
1.9967753e-10
-4.7827369e-05
2.8342175e-15
6.1466012e-10
-4.7871274e-05
2.1725459e-15
3.878429e-11
-4.7841853e-05
1.9295235e-15
-4.4098375e-13
-4.7853721e-05
6.465789e-15
-3.9318621e-11
-4.7853716e-05
3.4075656e-15
-6.1474108e-10
-4.7841845e-05
3.5040402e-15
-1.9941713e-10
-4.7871266e-05
1.181166e-15
-7.1334371e-09
-4.7827366e-05
4.8463915e-15
-4.7843567e-05
6.5029229e-15
-5.9014552e-09
-4.7826058e-05
-2.2291509e-15
-7.9326022e-10
-4.7820692e-05
-1.7435314e-15
-4.9513784e-10
-4.7859936e-05
-2.3306845e-15
-2.5798156e-10
-4.7830123e-05
-3.2905549e-15
-4.7654278e-13
-4.784217e-05
-7.0977986e-15
2.5727989e-10
-4.7842166e-05
-3.7667231e-15
4.94998e-10
-4.7830114e-05
-4.1710569e-15
7.9347108e-10
-4.7859927e-05
-1.505674e-15
5.9016539e-09
-4.7820689e-05
-3.4252016e-15
-4.7826059e-05
-3.5379645e-15
9.4064587e-09
-4.7810943e-05
3.4550816e-15
3.8658121e-10
-4.7786902e-05
3.1223925e-15
7.9676856e-10
-4.7835775e-05
2.7130798e-15
9.0781137e-11
-4.7804581e-05
2.6231428e-15
-4.3096429e-13
-4.7817399e-05
7.6566242e-15
-9.1326851e-11
-4.7817394e-05
2.5067388e-15
-7.9684776e-10
-4.7804572e-05
3.7023917e-15
-3.8631852e-10
-4.7835767e-05
1.4791605e-15
-9.4062359e-09
-4.7786898e-05
4.6862039e-15
-4.7810944e-05
6.9720419e-15
-8.0881358e-09
-4.7793722e-05
-2.0457873e-15
-9.6552531e-10
-4.7784578e-05
-2.259657e-15
-6.7916931e-10
-4.7826854e-05
-2.7874701e-15
-3.0534611e-10
-4.7795477e-05
-3.3107398e-15
-4.7898239e-13
-4.7808403e-05
-8.0924664e-15
3.0463866e-10
-4.7808398e-05
-3.6034505e-15
6.7901913e-10
-4.7795468e-05
-4.8804213e-15
9.657154e-10
-4.7826846e-05
-1.9021379e-15
8.0883207e-09
-4.7784575e-05
-3.3254582e-15
-4.7793723e-05
-3.740935e-15
1.2245835e-08
-4.7782606e-05
3.4762901e-15
6.2369835e-10
-4.7749383e-05
3.5138752e-15
1.0119013e-09
-4.7803842e-05
3.6071277e-15
1.5616816e-10
-4.7771109e-05
3.5977616e-15
-4.1689337e-13
-4.7784865e-05
9.9687451e-15
-1.5670326e-10
-4.7784861e-05
3.3635332e-15
-1.0119791e-09
-4.7771099e-05
4.4059626e-15
-6.2343932e-10
-4.7803834e-05
1.1730578e-15
-1.2245625e-08
-4.774938e-05
4.1815453e-15
-4.7782608e-05
7.8151082e-15
-1.0846035e-08
-4.7764627e-05
-2.6958467e-15
-1.1864845e-09
-4.7751664e-05
-1.9443123e-15
-9.0132601e-10
-4.7796932e-05
-3.1252408e-15
-3.6522834e-10
-4.7764356e-05
-2.9136879e-15
-4.8130297e-13
-4.7778079e-05
-9.5863759e-15
3.6451319e-10
-4.7778074e-05
-3.059095e-15
9.0116254e-10
-4.7764346e-05
-5.2539037e-15
1.1866487e-09
-4.7796923e-05
-1.5248136e-15
1.0846202e-08
-4.7751661e-05
-3.1166741e-15
-4.7764629e-05
-4.0676572e-15
1.5761119e-08
-4.7758228e-05
3.202515e-15
9.1834692e-10
-4.7714798e-05
2.5642958e-15
1.25908e-09
-4.7775159e-05
3.8905657e-15
2.3583079e-10
-4.774141e-05
4.060614e-15
-3.9785426e-13
-4.7755951e-05
1.2379731e-14
-2.3634285e-10
-4.7755947e-05
2.8294638e-15
-1.2591577e-09
-4.77414e-05
5.7932656e-15
-9.1809605e-10
-4.777515e-05
3.4355833e-15
-1.5760924e-08
-4.7714795e-05
8.9408943e-15
-4.7758231e-05
1.112756e-14
-1.4285991e-08
-4.7737885e-05
-1.9730312e-15
-1.4643399e-09
-4.7721628e-05
-1.1671021e-15
-1.1630835e-09
-4.7769393e-05
-3.1353404e-15
-4.3961303e-10
-4.7736269e-05
-3.1831539e-15
-4.8378893e-13
-4.7750551e-05
-1.103811e-14
4.3888798e-10
-4.7750546e-05
-2.3559735e-15
1.1629029e-09
-4.7736259e-05
-5.5120173e-15
1.4644718e-09
-4.7769384e-05
-3.6376096e-15
1.4286137e-08
-4.7721625e-05
-6.6681901e-15
-4.7737887e-05
-7.4011776e-15
2.0077434e-08
-4.7736839e-05
1.9657454e-15
1.2794555e-09
-4.7682529e-05
1.8876098e-15
1.5343438e-09
-4.7748691e-05
3.7254035e-15
3.3121508e-10
-4.7714752e-05
5.0963866e-15
-3.7331264e-13
-4.7729738e-05
1.4492486e-14
-3.3169304e-10
-4.7729733e-05
2.0975411e-15
-1.5344203e-09
-4.7714741e-05
6.681641e-15
-1.2792147e-09
-4.7748682e-05
2.8078042e-15
-2.0077258e-08
-4.7682527e-05
9.6495579e-15
-4.7736842e-05
1.1868709e-14
-1.8538994e-08
-4.7712102e-05
-1.1053646e-15
-1.8078336e-09
-4.7693558e-05
-1.1012173e-15
-1.4638788e-09
-4.7742845e-05
-2.3657066e-15
-5.305102e-10
-4.7710025e-05
-2.7682729e-15
-4.8778392e-13
-4.7724463e-05
-1.3431502e-14
5.2976977e-10
-4.7724459e-05
-9.9041506e-16
1.4636747e-09
-4.7710014e-05
-5.1469996e-15
1.8079266e-09
-4.7742836e-05
-8.0664051e-16
1.8539114e-08
-4.7693556e-05
-3.0541378e-15
-4.7712106e-05
-6.6945233e-15
2.5339108e-08
-4.7717207e-05
5.7463455e-16
1.7177559e-09
-4.7651283e-05
1.4166285e-17
1.8302742e-09
-4.7722902e-05
8.4959757e-15
4.4425742e-10
-4.7689658e-05
1.0302654e-14
-3.4168127e-13
-4.7704614e-05
1.7305652e-14
-4.4468884e-10
-4.770461e-05
6.2961878e-16
-1.8303467e-09
-4.7689647e-05
7.4588443e-15
-1.7175266e-09
-4.7722893e-05
-1.2728985e-15
-2.5338955e-08
-4.765128e-05
3.928627e-15
-4.771721e-05
1.0703313e-14
-2.3759333e-08
-4.7685958e-05
1.1695575e-15
-2.2265144e-09
-4.7665981e-05
1.0757012e-15
-1.7993825e-09
-4.7715713e-05
-7.501988e-15
-6.3995309e-10
-4.7683861e-05
-7.742004e-15
-4.9595256e-13
-4.7698019e-05
-1.7119468e-14
6.3919194e-10
-4.7698015e-05
-4.8153892e-16
1.7991487e-09
-4.768385e-05
-6.0202991e-15
2.2265606e-09
-4.7715704e-05
-8.7989171e-17
2.3759422e-08
-4.7665979e-05
-2.3997153e-15
-4.7685961e-05
-7.1934633e-15
3.1717613e-08