/*--------------------------------*- C++ -*----------------------------------*\
  =========                 |
  \\      /  F ield         | OpenFOAM: The Open Source CFD Toolbox
   \\    /   O peration     | Website:  https://openfoam.org
    \\  /    A nd           | Version:  8
     \\/     M anipulation  |
\*---------------------------------------------------------------------------*/
FoamFile
{
    version     2.0;
    format      ascii;
    class       volVectorField;
    location    "0.4";
    object      U;
}
// * * * * * * * * * * * * * * * * * * * * * * * * * * * * * * * * * * * * * //

dimensions      [0 1 -1 0 0 0 0];

internalField   nonuniform List<vector> 
2000
(
(-1.4391635e-06 -0.00052365507 -2.710528e-06)
(-2.9285156e-07 -0.00052366537 -2.7120243e-06)
(-5.8446896e-08 -0.00052366411 -2.7120518e-06)
(4.4411839e-08 -0.00052366308 -2.7120639e-06)
(-1.0741933e-07 -0.00052366342 -2.7120614e-06)
(1.0704825e-07 -0.00052366342 -2.7120614e-06)
(-4.4586222e-08 -0.00052366308 -2.7120639e-06)
(5.8512458e-08 -0.00052366411 -2.7120522e-06)
(2.9300092e-07 -0.00052366537 -2.7120245e-06)
(1.439234e-06 -0.00052365507 -2.7105278e-06)
(-1.7567721e-06 -0.00082117247 -3.1863354e-06)
(-5.0511609e-07 -0.00082123466 -3.1886311e-06)
(-1.1092883e-07 -0.00082121241 -3.1886462e-06)
(6.0204487e-08 -0.00082120487 -3.1886472e-06)
(-1.7219384e-07 -0.00082120705 -3.1886486e-06)
(1.7181515e-07 -0.00082120705 -3.1886485e-06)
(-6.0383685e-08 -0.00082120487 -3.1886472e-06)
(1.1099279e-07 -0.00082121241 -3.1886466e-06)
(5.0526729e-07 -0.00082123465 -3.1886312e-06)
(1.7568425e-06 -0.00082117247 -3.1863352e-06)
(-6.9162562e-07 -0.00077217042 -1.0036217e-06)
(-5.6756236e-07 -0.00077226528 -1.004853e-06)
(-1.2774153e-07 -0.00077223956 -1.0048558e-06)
(6.1494941e-08 -0.00077222406 -1.0048536e-06)
(-1.8937862e-07 -0.00077222844 -1.0048559e-06)
(1.8900055e-07 -0.00077222844 -1.0048558e-06)
(-6.167168e-08 -0.00077222406 -1.0048534e-06)
(1.2780329e-07 -0.00077223956 -1.0048561e-06)
(5.6771517e-07 -0.00077226528 -1.0048532e-06)
(6.9169388e-07 -0.00077217042 -1.0036215e-06)
(-3.7009306e-07 -0.0008290068 -3.6152113e-07)
(-5.756539e-07 -0.00082911416 -3.6207909e-07)
(-1.3219366e-07 -0.0008290934 -3.6208665e-07)
(6.1156482e-08 -0.00082906974 -3.6208341e-07)
(-1.9332572e-07 -0.00082907637 -3.6208604e-07)
(1.9294677e-07 -0.00082907637 -3.6208598e-07)
(-6.1331628e-08 -0.00082906974 -3.6208336e-07)
(1.3225256e-07 -0.00082909339 -3.6208699e-07)
(5.7580743e-07 -0.00082911415 -3.620793e-07)
(3.7015969e-07 -0.00082900679 -3.6152091e-07)
(-1.8358091e-07 -0.00078381963 -3.8205249e-09)
(-5.6951435e-07 -0.00078393767 -4.0822244e-09)
(-1.3263669e-07 -0.00078392279 -4.082243e-09)
(6.1132558e-08 -0.00078389081 -4.0787068e-09)
(-1.9417428e-07 -0.00078389978 -4.0813453e-09)
(1.9379486e-07 -0.00078389978 -4.0813448e-09)
(-6.1307134e-08 -0.00078389081 -4.0787412e-09)
(1.3269428e-07 -0.00078392278 -4.082568e-09)
(5.6966817e-07 -0.00078393766 -4.0825501e-09)
(1.8364672e-07 -0.00078381963 -3.8202776e-09)
(-1.9985756e-07 -0.00082002236 -5.8047262e-08)
(-5.5896354e-07 -0.00082014949 -5.8254112e-08)
(-1.3241221e-07 -0.00082014291 -5.8260707e-08)
(6.1373366e-08 -0.00082010268 -5.8257062e-08)
(-1.9442511e-07 -0.000820114 -5.8259621e-08)
(1.9404551e-07 -0.000820114 -5.825949e-08)
(-6.154776e-08 -0.00082010268 -5.8256987e-08)
(1.3246946e-07 -0.0008201429 -5.8260985e-08)
(5.591175e-07 -0.00082014948 -5.8254294e-08)
(1.9992303e-07 -0.00082002236 -5.8047107e-08)
(-1.4070957e-07 -0.00079019043 3.8908565e-08)
(-5.4821309e-07 -0.00079032486 3.8748442e-08)
(-1.3173259e-07 -0.00079032485 3.8747879e-08)
(6.1754996e-08 -0.00079027633 3.8751664e-08)
(-1.9460003e-07 -0.00079029005 3.8749099e-08)
(1.9422053e-07 -0.00079029005 3.8749021e-08)
(-6.1929243e-08 -0.00079027632 3.8751628e-08)
(1.3178985e-07 -0.00079032484 3.8747496e-08)
(5.4836713e-07 -0.00079032485 3.8748234e-08)
(1.4077469e-07 -0.00079019042 3.8908768e-08)
(-1.6376257e-07 -0.00081400001 -2.9877669e-08)
(-5.3701535e-07 -0.00081414369 -3.0047168e-08)
(-1.3123574e-07 -0.0008141524 -3.0053672e-08)
(6.2227786e-08 -0.00081409565 -3.0049696e-08)
(-1.9479119e-07 -0.00081411179 -3.0052172e-08)
(1.9441172e-07 -0.00081411179 -3.0052296e-08)
(-6.2401959e-08 -0.00081409564 -3.004966e-08)
(1.3129301e-07 -0.00081415239 -3.0053864e-08)
(5.3716928e-07 -0.00081414368 -3.0047377e-08)
(1.6382788e-07 -0.000814 -2.9877559e-08)
(-1.2386504e-07 -0.000794124 2.7881341e-08)
(-5.2606699e-07 -0.00079427371 2.7738354e-08)
(-1.3050377e-07 -0.00079428928 2.7736871e-08)
(6.2785702e-08 -0.00079422427 2.7741131e-08)
(-1.9501452e-07 -0.00079424289 2.7738553e-08)
(1.9463525e-07 -0.00079424288 2.7738274e-08)
(-6.2959721e-08 -0.00079422426 2.7741055e-08)
(1.3056106e-07 -0.00079428926 2.7736529e-08)
(5.2622068e-07 -0.0007942737 2.7738132e-08)
(1.2393046e-07 -0.00079412399 2.788153e-08)
(-1.3595307e-07 -0.00080989905 -1.9033763e-08)
(-5.1502779e-07 -0.00081005767 -1.918475e-08)
(-1.2995591e-07 -0.00081008213 -1.9191053e-08)
(6.3425153e-08 -0.00081000891 -1.9186842e-08)
(-1.9527275e-07 -0.00081003003 -1.9189505e-08)
(1.9489352e-07 -0.00081003002 -1.9189597e-08)
(-6.3599008e-08 -0.00081000891 -1.918683e-08)
(1.3001335e-07 -0.00081008211 -1.9191221e-08)
(5.1518135e-07 -0.00081005765 -1.9184861e-08)
(1.3601848e-07 -0.00080989904 -1.9033623e-08)
(-1.0554467e-07 -0.00079650488 1.933082e-08)
(-5.0409484e-07 -0.00079666874 1.9202078e-08)
(-1.292154e-07 -0.00079670043 1.9199631e-08)
(6.4149848e-08 -0.00079661899 1.920394e-08)
(-1.9556781e-07 -0.00079664265 1.9201249e-08)
(1.9518883e-07 -0.00079664264 1.9201224e-08)
(-6.4323587e-08 -0.00079661898 1.9204016e-08)
(1.2927291e-07 -0.00079670041 1.9199407e-08)
(5.0424831e-07 -0.00079666872 1.9202052e-08)
(1.0561009e-07 -0.00079650487 1.9331074e-08)
(-1.098101e-07 -0.00080702209 -1.2083416e-08)
(-4.9319691e-07 -0.00080719412 -1.221639e-08)
(-1.286297e-07 -0.00080723486 -1.2222727e-08)
(6.4959186e-08 -0.00080714523 -1.2218335e-08)
(-1.9590132e-07 -0.00080717146 -1.2221155e-08)
(1.9552244e-07 -0.00080717146 -1.2221152e-08)
(-6.5132742e-08 -0.00080714522 -1.2218244e-08)
(1.2868742e-07 -0.00080723484 -1.2222932e-08)
(4.9335034e-07 -0.0008071941 -1.2216456e-08)
(1.0987542e-07 -0.00080702208 -1.2082991e-08)
(-8.5531449e-08 -0.00079788724 1.3641707e-08)
(-4.823182e-07 -0.00079806387 1.3527633e-08)
(-1.2788739e-07 -0.00079811226 1.3524281e-08)
(6.5856723e-08 -0.00079801443 1.3529017e-08)
(-1.9627463e-07 -0.00079804329 1.3526114e-08)
(1.9589607e-07 -0.00079804328 1.3525989e-08)
(-6.6030225e-08 -0.00079801442 1.3529027e-08)
(1.2794548e-07 -0.00079811224 1.3523995e-08)
(4.8247146e-07 -0.00079806384 1.3527548e-08)
(8.5596532e-08 -0.00079788722 1.3642055e-08)
(-8.4533785e-08 -0.00080493079 -7.4794541e-09)
(-4.7153717e-07 -0.00080511465 -7.5948459e-09)
(-1.2727372e-07 -0.00080517225 -7.601136e-09)
(6.6842294e-08 -0.00080506625 -7.596506e-09)
(-1.9668956e-07 -0.00080509776 -7.5994284e-09)
(1.9631123e-07 -0.00080509775 -7.5995283e-09)
(-6.701558e-08 -0.00080506623 -7.5964331e-09)
(1.2733173e-07 -0.00080517223 -7.6013734e-09)
(4.7169044e-07 -0.00080511463 -7.5950926e-09)
(8.4598932e-08 -0.00080493078 -7.4793208e-09)
(-6.4265788e-08 -0.00079862038 9.8440601e-09)
(-4.6073345e-07 -0.00079880822 9.7447554e-09)
(-1.2653616e-07 -0.00079887394 9.7408328e-09)
(6.7919243e-08 -0.00079875973 9.7456141e-09)
(-1.9714746e-07 -0.00079879395 9.7426109e-09)
(1.967694e-07 -0.00079879395 9.7424969e-09)
(-6.8092175e-08 -0.00079875972 9.7455741e-09)
(1.2659371e-07 -0.00079887391 9.7406162e-09)
(4.6088684e-07 -0.00079880819 9.7446633e-09)
(6.4330945e-08 -0.00079862036 9.8441967e-09)
(-5.9677685e-08 -0.00080334898 -4.407076e-09)
(-4.5005421e-07 -0.00080354299 -4.5051702e-09)
(-1.2590555e-07 -0.00080361811 -4.5112775e-09)
(6.9087785e-08 -0.00080349574 -4.5063204e-09)
(-1.9765082e-07 -0.00080353271 -4.5094096e-09)
(1.9727308e-07 -0.0008035327 -4.5095581e-09)
(-6.926054e-08 -0.00080349572 -4.5063736e-09)
(1.2596392e-07 -0.00080361808 -4.5117055e-09)
(4.5020707e-07 -0.00080354297 -4.5053431e-09)
(5.9742568e-08 -0.00080334896 -4.406939e-09)
(-4.2023433e-08 -0.00079892513 7.2864658e-09)
(-4.3933669e-07 -0.00079912242 7.2023336e-09)
(-1.2517904e-07 -0.00079920614 7.1978285e-09)
(7.0350654e-08 -0.00079907555 7.2026027e-09)
(-1.9820029e-07 -0.00079911533 7.1997306e-09)
(1.9782277e-07 -0.00079911532 7.1995011e-09)
(-7.0523162e-08 -0.00079907554 7.2027613e-09)
(1.2523793e-07 -0.00079920611 7.1976993e-09)
(4.3948913e-07 -0.00079912239 7.2022805e-09)
(4.2088113e-08 -0.00079892511 7.2866882e-09)
(-3.4930357e-08 -0.00080210305 -2.3404509e-09)
(-4.2874828e-07 -0.00080230541 -2.4215131e-09)
(-1.2454396e-07 -0.00080239874 -2.4278646e-09)
(7.1709566e-08 -0.00080226 -2.4227567e-09)
(-1.9879947e-07 -0.00080230262 -2.4259449e-09)
(1.9842235e-07 -0.00080230261 -2.4259851e-09)
(-7.1881649e-08 -0.00080225998 -2.4227203e-09)
(1.2460278e-07 -0.00080239871 -2.4281186e-09)
(4.2890083e-07 -0.00080230538 -2.4218163e-09)
(3.4994821e-08 -0.00080210303 -2.340541e-09)
(-1.895986e-08 -0.00079894011 5.5435498e-09)
(-4.1812031e-07 -0.00079914489 5.4748085e-09)
(-1.2383837e-07 -0.00079924736 5.4696652e-09)
(7.3165067e-08 -0.00079910034 5.4746064e-09)
(-1.9944826e-07 -0.00079914589 5.471508e-09)
(1.9907133e-07 -0.00079914588 5.4714105e-09)
(-7.3336891e-08 -0.00079910032 5.4747454e-09)
(1.2389696e-07 -0.00079924733 5.4697056e-09)
(4.1827324e-07 -0.00079914485 5.4745665e-09)
(1.9024297e-08 -0.00079894009 5.5435236e-09)
(-1.0058105e-08 -0.00080108658 -9.3282878e-10)
(-4.0761243e-07 -0.00080129534 -9.9687689e-10)
(-1.2321272e-07 -0.00080140765 -1.0031701e-09)
(7.4722141e-08 -0.00080125251 -9.9752937e-10)
(-2.0015254e-07 -0.00080130099 -1.0009618e-09)
(1.9977623e-07 -0.00080130098 -1.0011125e-09)
(-7.4893554e-08 -0.00080125249 -9.9777862e-10)
(1.2327181e-07 -0.00080140761 -1.0034406e-09)
(4.0776474e-07 -0.00080129531 -9.9704293e-10)
(1.0122333e-08 -0.00080108656 -9.3268432e-10)
(4.846333e-09 -0.00079874803 4.3285558e-09)
(-3.9707431e-07 -0.00079895807 4.2753081e-09)
(-1.225375e-07 -0.00079908017 4.2701635e-09)
(7.6376649e-08 -0.0007989166 4.275208e-09)
(-2.0090834e-07 -0.00079896819 4.272009e-09)
(2.005323e-07 -0.00079896818 4.2720169e-09)
(-7.6547567e-08 -0.00079891658 4.2750764e-09)
(1.2259677e-07 -0.00079908013 4.2699132e-09)
(3.9722663e-07 -0.00079895803 4.2749601e-09)
(-4.7822723e-09 -0.00079874801 4.3286182e-09)
(1.5131451e-08 -0.00080024174 5.6729424e-11)
(-3.8663475e-07 -0.00080045486 9.5841797e-12)
(-1.2193712e-07 -0.00080058692 3.3384378e-12)
(7.8141438e-08 -0.00080041538 8.9959341e-12)
(-2.0172813e-07 -0.00080046995 5.7040689e-12)
(2.0135265e-07 -0.00080046994 5.5012552e-12)
(-7.8311929e-08 -0.00080041536 8.971815e-12)
(1.2199646e-07 -0.00080058688 3.3616736e-12)
(3.8678699e-07 -0.00080045482 9.3988038e-12)
(-1.5067637e-08 -0.00080024171 5.6831678e-11)
(2.9363257e-08 -0.00079838684 3.4330593e-09)
(-3.7618489e-07 -0.0007985996 3.3953591e-09)
(-1.2130359e-07 -0.00079874234 3.3903415e-09)
(7.9998489e-08 -0.00079856208 3.3952213e-09)
(-2.0259808e-07 -0.00079862 3.3922477e-09)
(2.0222295e-07 -0.00079861999 3.3922143e-09)
(-8.0168411e-08 -0.00079856205 3.3954774e-09)
(1.213637e-07 -0.0007987423 3.3903215e-09)
(3.7633666e-07 -0.00079859956 3.3951485e-09)
(-2.9299861e-08 -0.00079838681 3.4331005e-09)
(4.082169e-08 -0.000799555 8.1665396e-10)
(-3.6579519e-07 -0.00079977042 7.8704394e-10)
(-1.2074866e-07 -0.000799923 7.8065689e-10)
(8.1982966e-08 -0.00079973515 7.8624696e-10)
(-2.0354733e-07 -0.00079979601 7.8287346e-10)
(2.0317297e-07 -0.000799796 7.8269851e-10)
(-8.2152636e-08 -0.00079973513 7.8625524e-10)
(1.2080925e-07 -0.00079992296 7.8043425e-10)
(3.6594662e-07 -0.00079977038 7.8708714e-10)
(-4.075848e-08 -0.00079955497 8.1651672e-10)
(5.4577936e-08 -0.00079784591 2.675628e-09)
(-3.5543542e-07 -0.00079805841 2.6530296e-09)
(-1.2016889e-07 -0.00079822309 2.6487385e-09)
(8.4041643e-08 -0.00079802583 2.6530813e-09)
(-2.0453561e-07 -0.00079809048 2.6503551e-09)
(2.0416191e-07 -0.00079809046 2.6502247e-09)
(-8.4210912e-08 -0.00079802581 2.6531844e-09)
(1.2022988e-07 -0.00079822304 2.6484326e-09)
(3.5558674e-07 -0.00079805837 2.6530693e-09)
(-5.4515258e-08 -0.00079784588 2.6757062e-09)
(6.7218621e-08 -0.00079906982 1.5362431e-09)
(-3.4506414e-07 -0.00079928578 1.5252509e-09)
(-1.1968626e-07 -0.00079945944 1.5179089e-09)
(8.6265486e-08 -0.00079925562 1.5238705e-09)
(-2.0563518e-07 -0.00079932289 1.5203037e-09)
(2.0526208e-07 -0.00079932287 1.5203191e-09)
(-8.6434091e-08 -0.0007992556 1.5239567e-09)
(1.1974735e-07 -0.00079945939 1.5178371e-09)
(3.4521525e-07 -0.00079928573 1.5253745e-09)
(-6.7156041e-08 -0.00079906979 1.536212e-09)
(8.0456885e-08 -0.00079704178 1.8417791e-09)
(-3.3481074e-07 -0.00079725025 1.8333517e-09)
(-1.1916936e-07 -0.00079743861 1.830363e-09)
(8.8512147e-08 -0.00079722384 1.8336973e-09)
(-2.0673748e-07 -0.00079729572 1.8312489e-09)
(2.0636515e-07 -0.0007972957 1.8313547e-09)
(-8.8680251e-08 -0.00079722381 1.8335558e-09)
(1.1923077e-07 -0.00079743856 1.8303122e-09)
(3.3496147e-07 -0.0007972502 1.8332749e-09)
(-8.0394598e-08 -0.00079704175 1.8416548e-09)
(9.459842e-08 -0.00079892546 2.4760265e-09)
(-3.2439967e-07 -0.00079914106 2.4859012e-09)
(-1.1879896e-07 -0.0007993358 2.4762587e-09)
(9.1011801e-08 -0.00079911695 2.4841718e-09)
(-2.0802288e-07 -0.0007991905 2.4797577e-09)
(2.0765133e-07 -0.00079919048 2.4798301e-09)
(-9.1179271e-08 -0.00079911691 2.4840143e-09)
(1.1886093e-07 -0.00079933574 2.4763436e-09)
(3.2454975e-07 -0.00079914101 2.4857599e-09)
(-9.4536479e-08 -0.00079892543 2.4759687e-09)
(1.0688151e-07 -0.00079575957 5.9597269e-10)
(-3.143027e-07 -0.00079595878 5.9886102e-10)
(-1.1834424e-07 -0.00079617352 5.9897785e-10)
(9.3403384e-08 -0.00079594012 5.9969455e-10)
(-2.0921314e-07 -0.00079602001 5.9857294e-10)
(2.0884238e-07 -0.00079601999 5.9874214e-10)
(-9.3570193e-08 -0.00079594009 5.9954979e-10)
(1.1840698e-07 -0.00079617346 5.9885088e-10)
(3.144521e-07 -0.00079595873 5.9870843e-10)
(-1.0681987e-07 -0.00079575953 5.9575125e-10)
(1.2339488e-07 -0.00079944172 4.0850226e-09)
(-3.0373551e-07 -0.00079965812 4.1200674e-09)
(-1.1815231e-07 -0.00079987262 4.1060375e-09)
(9.6257487e-08 -0.00079964086 4.1178316e-09)
(-2.1075376e-07 -0.00079972007 4.1117858e-09)
(2.103839e-07 -0.00079972005 4.1118304e-09)
(-9.6423408e-08 -0.00079964082 4.11756e-09)
(1.1821511e-07 -0.00079987256 4.1059027e-09)
(3.038846e-07 -0.00079965806 4.1203983e-09)
(-1.2333361e-07 -0.00079944168 4.0851144e-09)
(1.3352157e-07 -0.00079353303 -1.6749856e-09)
(-2.9392998e-07 -0.00079371488 -1.666934e-09)
(-1.1773185e-07 -0.00079396059 -1.6594083e-09)
(9.8681772e-08 -0.0007937061 -1.66437e-09)
(-2.1195233e-07 -0.00079379539 -1.6628661e-09)
(2.1158334e-07 -0.00079379537 -1.6630055e-09)
(-9.8847238e-08 -0.00079370606 -1.664466e-09)
(1.1779506e-07 -0.00079396052 -1.6592072e-09)
(2.940788e-07 -0.00079371482 -1.6664398e-09)
(-1.3346052e-07 -0.00079353299 -1.6748498e-09)
(1.5435837e-07 -0.00080128397 7.2062984e-09)
(-2.8296614e-07 -0.00080150668 7.2762911e-09)
(-1.1783614e-07 -0.00080173683 7.2518603e-09)
(1.0206622e-07 -0.00080149668 7.2721203e-09)
(-2.1389513e-07 -0.00080157985 7.2622096e-09)
(2.1352747e-07 -0.00080157982 7.2620554e-09)
(-1.0223077e-07 -0.00080149664 7.2716911e-09)
(1.1789959e-07 -0.00080173677 7.2515927e-09)
(2.8311444e-07 -0.00080150662 7.2766241e-09)
(-1.542978e-07 -0.00080128393 7.206367e-09)
(1.5961185e-07 -0.00078942108 -6.1320001e-09)
(-2.7376593e-07 -0.00078957171 -6.1318859e-09)
(-1.1735722e-07 -0.00078985682 -6.1081113e-09)
(1.0426061e-07 -0.00078957586 -6.1255925e-09)
(-2.1490401e-07 -0.00078967722 -6.1191353e-09)
(2.1453748e-07 -0.0007896772 -6.119172e-09)
(-1.0442447e-07 -0.00078957582 -6.1260423e-09)
(1.1742116e-07 -0.00078985675 -6.1086457e-09)
(2.7391345e-07 -0.00078957164 -6.1320191e-09)
(-1.5955195e-07 -0.00078942104 -6.1320258e-09)
(1.888533e-07 -0.00080575853 1.3429334e-08)
(-2.6190814e-07 -0.00080600161 1.3553715e-08)
(-1.1798341e-07 -0.00080623767 1.3506362e-08)
(1.0857044e-07 -0.00080599831 1.3544559e-08)
(-2.1756974e-07 -0.00080608163 1.3526918e-08)
(2.1720427e-07 -0.00080608161 1.3526934e-08)
(-1.0873325e-07 -0.00080599827 1.3544417e-08)
(1.1804754e-07 -0.0008062376 1.3506511e-08)
(2.6205551e-07 -0.00080600155 1.3554014e-08)
(-1.8879374e-07 -0.0008057585 1.3429378e-08)
(1.8355241e-07 -0.00078162695 -1.4929228e-08)
(-2.5399396e-07 -0.00078172161 -1.4962553e-08)
(-1.1720982e-07 -0.0007820619 -1.4906569e-08)
(1.0994787e-07 -0.00078174327 -1.4949402e-08)
(-2.1793368e-07 -0.00078186191 -1.493177e-08)
(2.1756964e-07 -0.00078186189 -1.4931753e-08)
(-1.1011011e-07 -0.00078174322 -1.4949741e-08)
(1.1727456e-07 -0.00078206182 -1.4907127e-08)
(2.5414001e-07 -0.00078172154 -1.4962732e-08)
(-1.8349338e-07 -0.00078162691 -1.4929453e-08)
(2.2935119e-07 -0.00081528753 2.5630137e-08)
(-2.4023266e-07 -0.00081558039 2.5845414e-08)
(-1.1879621e-07 -0.00081580236 2.5753076e-08)
(1.1604001e-07 -0.00081558133 2.5827533e-08)
(-2.2200889e-07 -0.00081565724 2.5793452e-08)
(2.2164626e-07 -0.00081565721 2.5793311e-08)
(-1.1620066e-07 -0.00081558129 2.5827086e-08)
(1.1886104e-07 -0.00081580228 2.5752799e-08)
(2.4037858e-07 -0.00081558033 2.5845598e-08)
(-2.2929259e-07 -0.00081528749 2.563025e-08)
(2.0229191e-07 -0.00076693077 -3.1835765e-08)
(-2.3500192e-07 -0.00076692583 -3.1949468e-08)
(-1.172014e-07 -0.0007673499 -3.1831227e-08)
(1.1535118e-07 -0.00076697195 -3.1923465e-08)
(-2.2074345e-07 -0.00076711767 -3.1883401e-08)
(2.20382e-07 -0.00076711765 -3.1883368e-08)
(-1.1551164e-07 -0.00076697189 -3.1923236e-08)
(1.1726695e-07 -0.00076734982 -3.1831175e-08)
(2.3514638e-07 -0.00076692575 -3.1949509e-08)
(-2.0223388e-07 -0.00076693072 -3.1835814e-08)
(2.8012794e-07 -0.00083404972 4.8633248e-08)
(-2.1735516e-07 -0.00083444679 4.9001781e-08)
(-1.2059009e-07 -0.00083461778 4.8824439e-08)
(1.2500303e-07 -0.00083444624 4.8966291e-08)
(-2.2764791e-07 -0.00083450101 4.8902537e-08)
(2.2728828e-07 -0.00083450097 4.8902542e-08)
(-1.2516108e-07 -0.00083444621 4.8966104e-08)
(1.2065572e-07 -0.00083461769 4.8824316e-08)
(2.1749955e-07 -0.00083444673 4.9002263e-08)
(-2.8007056e-07 -0.00083404969 4.8633192e-08)
(2.1055919e-07 -0.00074002112 -6.2857731e-08)
(-2.1751752e-07 -0.00073984382 -6.3128808e-08)
(-1.1710158e-07 -0.00074040012 -6.2898266e-08)
(1.1973804e-07 -0.00073992485 -6.3079623e-08)
(-2.2275558e-07 -0.00074011469 -6.300035e-08)
(2.2239742e-07 -0.00074011467 -6.3000352e-08)
(-1.1989676e-07 -0.00073992478 -6.3079716e-08)
(1.1716793e-07 -0.00074040003 -6.2898349e-08)
(2.1765968e-07 -0.00073984373 -6.3128829e-08)
(-2.1050213e-07 -0.00074002106 -6.2857889e-08)
(3.4800726e-07 -0.00086860196 8.9675866e-08)
(-1.9228995e-07 -0.00086919258 9.0293909e-08)
(-1.2385394e-07 -0.00086925212 8.9971484e-08)
(1.3641297e-07 -0.0008691801 9.0228573e-08)
(-2.3526158e-07 -0.00086919138 9.0113776e-08)
(2.3490532e-07 -0.00086919133 9.0113659e-08)
(-1.3656835e-07 -0.00086918006 9.0228404e-08)
(1.2392049e-07 -0.00086925203 8.9971172e-08)
(1.9243301e-07 -0.00086919252 9.0293927e-08)
(-3.4795132e-07 -0.00086860193 8.9675997e-08)
(2.002462e-07 -0.00069302314 -1.1640042e-07)
(-2.0276184e-07 -0.00069256333 -1.1693911e-07)
(-1.1645682e-07 -0.00069332562 -1.165272e-07)
(1.2187324e-07 -0.00069269398 -1.1685306e-07)
(-2.2297743e-07 -0.00069295435 -1.1670977e-07)
(2.2262301e-07 -0.00069295433 -1.1670959e-07)
(-1.2203022e-07 -0.00069269389 -1.1685344e-07)
(1.1652371e-07 -0.00069332553 -1.1652782e-07)
(2.0290132e-07 -0.00069256323 -1.1693921e-07)
(-2.0019012e-07 -0.00069302308 -1.164006e-07)
(4.4272212e-07 -0.00092809442 1.5812755e-07)
(-1.6350517e-07 -0.00092900829 1.5912199e-07)
(-1.2930705e-07 -0.00092886891 1.5857702e-07)
(1.5181462e-07 -0.00092896778 1.5901122e-07)
(-2.4610035e-07 -0.00092890341 1.5881768e-07)
(2.4574791e-07 -0.00092890335 1.588177e-07)
(-1.5196676e-07 -0.00092896775 1.5901144e-07)
(1.2937418e-07 -0.00092886881 1.5857716e-07)
(1.6364684e-07 -0.00092900824 1.5912238e-07)
(-4.4266763e-07 -0.0009280944 1.5812763e-07)
(1.6038774e-07 -0.00061562685 -2.0246099e-07)
(-1.9256986e-07 -0.00061473477 -2.0340354e-07)
(-1.1452089e-07 -0.00061580283 -2.027293e-07)
(1.1989454e-07 -0.00061493422 -2.0326487e-07)
(-2.1988775e-07 -0.00061530128 -2.0302766e-07)
(2.1953716e-07 -0.00061530127 -2.0302752e-07)
(-1.2005019e-07 -0.00061493412 -2.0326534e-07)
(1.145887e-07 -0.00061580273 -2.0272945e-07)
(1.9270606e-07 -0.00061473466 -2.0340363e-07)
(-1.6033262e-07 -0.00061562679 -2.0246128e-07)
(5.7656752e-07 -0.0010237741 2.641784e-07)
(-1.288251e-07 -0.0010251789 2.6569471e-07)
(-1.3793944e-07 -0.0010247286 2.6484488e-07)
(1.7343073e-07 -0.0010250886 2.6552225e-07)
(-2.6197135e-07 -0.0010249075 2.6521917e-07)
(2.6162372e-07 -0.0010249075 2.6521912e-07)
(-1.7357896e-07 -0.0010250886 2.6552198e-07)
(1.3800695e-07 -0.0010247285 2.6484423e-07)
(1.2896535e-07 -0.0010251789 2.6569459e-07)
(-5.7651498e-07 -0.0010237741 2.641785e-07)
(7.786353e-08 -0.00049590706 -3.3095265e-07)
(-1.8943393e-07 -0.00049439792 -3.3244508e-07)
(-1.1021138e-07 -0.00049589299 -3.3142824e-07)
(1.11296e-07 -0.00049468964 -3.3223715e-07)
(-2.1140916e-07 -0.00049520749 -3.3187637e-07)
(2.1106258e-07 -0.00049520749 -3.3187643e-07)
(-1.114503e-07 -0.00049468952 -3.3223697e-07)
(1.1027928e-07 -0.00049589289 -3.3142783e-07)
(1.8956674e-07 -0.0004943978 -3.3244467e-07)
(-7.7809276e-08 -0.00049590699 -3.3095239e-07)
(7.6353215e-07 -0.0011679602 4.1702617e-07)
(-8.5394762e-08 -0.0011700543 4.192106e-07)
(-1.5104114e-07 -0.0011691631 4.1798138e-07)
(2.0414127e-07 -0.0011698868 4.1896074e-07)
(-2.8523633e-07 -0.0011695419 4.1852135e-07)
(2.848941e-07 -0.0011695418 4.1852131e-07)
(-2.0428516e-07 -0.0011698867 4.1896074e-07)
(1.5110866e-07 -0.001169163 4.1798098e-07)
(8.5534159e-08 -0.0011700543 4.1921046e-07)
(-7.6348183e-07 -0.0011679602 4.1702616e-07)
(-6.1653372e-08 -0.00032140755 -5.1000962e-07)
(-1.96493e-07 -0.00031906851 -5.1219094e-07)
(-1.0207599e-07 -0.00032112695 -5.1076526e-07)
(9.3000925e-08 -0.00031948005 -5.1189869e-07)
(-1.9495213e-07 -0.00032019814 -5.1139159e-07)
(1.9461039e-07 -0.00032019814 -5.113915e-07)
(-9.3154077e-08 -0.00031947991 -5.118988e-07)
(1.0214418e-07 -0.00032112684 -5.1076535e-07)
(1.9662068e-07 -0.00031906838 -5.121906e-07)
(6.1707005e-08 -0.00032140748 -5.1000911e-07)
(1.0185216e-06 -0.0013730421 6.2350612e-07)
(-2.9678495e-08 -0.001376046 6.2649372e-07)
(-1.7023337e-07 -0.001374573 6.24829e-07)
(2.4740511e-07 -0.0013757689 6.2615301e-07)
(-3.187629e-07 -0.0013752098 6.2555768e-07)
(3.184264e-07 -0.0013752098 6.2555763e-07)
(-2.4754383e-07 -0.0013757688 6.2615346e-07)
(1.7030051e-07 -0.0013745728 6.2482901e-07)
(2.9816942e-08 -0.001376046 6.2649365e-07)
(-1.0184739e-06 -0.0013730421 6.2350605e-07)
(-2.7305915e-07 -7.9971755e-05 -7.4505053e-07)
(-2.1750478e-07 -7.6567034e-05 -7.480458e-07)
(-8.8261917e-08 -7.9335357e-05 -7.4616656e-07)
(6.1464463e-08 -7.7130478e-05 -7.4765878e-07)
(-1.6749301e-07 -7.8101322e-05 -7.4698814e-07)
(1.6715584e-07 -7.8101329e-05 -7.4698793e-07)
(-6.1616138e-08 -7.7130316e-05 -7.476589e-07)
(8.8330149e-08 -7.9335249e-05 -7.4616658e-07)
(2.1762649e-07 -7.6566891e-05 -7.480454e-07)
(2.7311221e-07 -7.9971682e-05 -7.4505023e-07)
(1.3570615e-06 -0.0016508624 8.8760447e-07)
(4.2555313e-08 -0.0016550135 8.915142e-07)
(-1.9752903e-07 -0.0016528116 8.8938079e-07)
(3.0717959e-07 -0.0016545897 8.9107457e-07)
(-3.6587552e-07 -0.001653765 8.9031006e-07)
(3.6554604e-07 -0.0016537649 8.9030988e-07)
(-3.0731259e-07 -0.0016545897 8.9107475e-07)
(1.9759545e-07 -0.0016528115 8.8938093e-07)
(-4.2418313e-08 -0.0016550135 8.9151399e-07)
(-1.3570171e-06 -0.0016508624 8.8760422e-07)
(-5.716764e-07 0.00023984475 -1.0386967e-06)
(-2.5683278e-07 0.00024457145 -1.0426145e-06)
(-6.6487986e-08 0.00024093938 -1.0402578e-06)
(1.2734992e-08 0.00024381836 -1.0421259e-06)
(-1.256183e-07 0.00024254086 -1.0412827e-06)
(1.2528632e-07 0.00024254085 -1.0412825e-06)
(-1.2886025e-08 0.00024381855 -1.0421259e-06)
(6.6556364e-08 0.00024093949 -1.0402578e-06)
(2.5694745e-07 0.0002445716 -1.0426141e-06)
(5.7172911e-07 0.00023984482 -1.0386964e-06)
(1.795464e-06 -0.0020124758 1.2107036e-06)
(1.3627949e-07 -0.0020180257 1.2156392e-06)
(-2.354321e-07 -0.0020149444 1.2130245e-06)
(3.8785734e-07 -0.0020174138 1.2150965e-06)
(-4.3032152e-07 -0.002016272 1.2141578e-06)
(4.3000024e-07 -0.0020162719 1.2141574e-06)
(-3.8798428e-07 -0.0020174138 1.2150967e-06)
(2.3549697e-07 -0.0020149442 1.2130246e-06)
(-1.3614373e-07 -0.0020180257 1.2156393e-06)
(-1.7954238e-06 -0.0020124758 1.2107038e-06)
(-9.734888e-07 0.00064865952 -1.3912606e-06)
(-3.1944963e-07 0.00065498434 -1.3961966e-06)
(-3.4016345e-08 0.0006503287 -1.3933571e-06)
(-5.7519917e-08 0.00065399682 -1.3956039e-06)
(-6.5548454e-08 0.00065235852 -1.3945858e-06)
(6.5221964e-08 0.0006523585 -1.3945853e-06)
(5.7369141e-08 0.00065399703 -1.395604e-06)
(3.4084716e-08 0.00065032881 -1.3933569e-06)
(3.1955634e-07 0.0006549845 -1.3961964e-06)
(9.7354134e-07 0.00064865958 -1.3912603e-06)
(2.3512652e-06 -0.002468119 1.5922334e-06)
(2.5726723e-07 -0.0024753321 1.5982883e-06)
(-2.8705887e-07 -0.0024712191 1.5951956e-06)
(4.9421853e-07 -0.0024744868 1.5976428e-06)
(-5.1624816e-07 -0.0024729772 1.5965297e-06)
(5.1593627e-07 -0.0024729771 1.5965293e-06)
(-4.9433878e-07 -0.0024744868 1.5976427e-06)
(2.8712153e-07 -0.002471219 1.5951952e-06)
(-2.5713348e-07 -0.0024753321 1.598288e-06)
(-2.3512296e-06 -0.0024681191 1.5922337e-06)
(-1.4955613e-06 0.0011562863 -1.801475e-06)
(-4.1098256e-07 0.001164505 -1.8075174e-06)
(1.2387941e-08 0.001158661 -1.8042039e-06)
(-1.5400436e-07 0.00116323 -1.8068221e-06)
(1.6844042e-08 0.0011611774 -1.8056307e-06)
(-1.7164547e-08 0.0011611774 -1.8056301e-06)
(1.5385378e-07 0.0011632302 -1.8068221e-06)
(-1.2320492e-08 0.0011586611 -1.8042037e-06)
(4.110801e-07 0.0011645051 -1.8075173e-06)
(1.4956143e-06 0.0011562864 -1.8014746e-06)
(3.0437179e-06 -0.0030272598 2.0303885e-06)
(4.1216489e-07 -0.003036414 2.0376505e-06)
(-3.5626581e-07 -0.0030311158 2.0340964e-06)
(6.313818e-07 -0.0030352857 2.0369064e-06)
(-6.2818487e-07 -0.0030333588 2.0356233e-06)
(6.2788369e-07 -0.0030333586 2.0356229e-06)
(-6.3149563e-07 -0.0030352857 2.0369065e-06)
(3.5632552e-07 -0.0030311156 2.0340959e-06)
(-4.1203272e-07 -0.003036414 2.0376507e-06)
(-3.0436879e-06 -0.0030272598 2.030389e-06)
(-2.1564875e-06 0.0017718001 -2.2671111e-06)
(-5.3778259e-07 0.0017822282 -2.2743457e-06)
(7.6522743e-08 0.0017750259 -2.2705745e-06)
(-2.818027e-07 0.001780603 -2.2735515e-06)
(1.2603223e-07 0.001778084 -2.2721921e-06)
(-1.2634593e-07 0.001778084 -2.2721912e-06)
(2.8165174e-07 0.0017806032 -2.2735521e-06)
(-7.6456222e-08 0.001775026 -2.2705748e-06)
(5.3786945e-07 0.0017822284 -2.2743459e-06)
(2.1565409e-06 0.0017718002 -2.2671113e-06)
(3.8941743e-06 -0.0036986603 2.5225652e-06)
(6.0853023e-07 -0.0037100496 2.5311222e-06)
(-4.4781273e-07 -0.0037034103 2.5271272e-06)
(8.0479965e-07 -0.0037085836 2.5302864e-06)
(-7.7101557e-07 -0.0037061913 2.5288395e-06)
(7.7072659e-07 -0.0037061912 2.5288389e-06)
(-8.0490623e-07 -0.0037085836 2.5302868e-06)
(4.4786806e-07 -0.0037034102 2.527127e-06)
(-6.0839958e-07 -0.0037100497 2.5311225e-06)
(-3.8941516e-06 -0.0036986604 2.5225659e-06)
(-2.9767214e-06 0.0025036047 -2.7851801e-06)
(-7.0702154e-07 0.0025165777 -2.7936902e-06)
(1.6285186e-07 0.0025078418 -2.7894882e-06)
(-4.4639429e-07 0.0025145292 -2.792807e-06)
(2.6684506e-07 0.002511493 -2.7912854e-06)
(-2.6715195e-07 0.002511493 -2.7912846e-06)
(4.4624312e-07 0.0025145295 -2.7928074e-06)
(-1.6278758e-07 0.0025078419 -2.789488e-06)
(7.0709654e-07 0.0025165779 -2.7936906e-06)
(2.9767756e-06 0.0025036048 -2.7851804e-06)
(4.9262381e-06 -0.0044904365 3.0653358e-06)
(8.5487205e-07 -0.0045043743 3.0752736e-06)
(-5.674787e-07 -0.0044962343 3.0708683e-06)
(1.0202149e-06 -0.0045025092 3.0743584e-06)
(-9.5002342e-07 -0.0044996048 3.0727545e-06)
(9.4974873e-07 -0.0044996047 3.0727535e-06)
(-1.0203134e-06 -0.0045025092 3.0743588e-06)
(5.6752805e-07 -0.0044962342 3.070868e-06)
(-8.5474368e-07 -0.0045043744 3.0752741e-06)
(-4.9262232e-06 -0.0044904366 3.0653366e-06)
(-3.9788262e-06 0.0033594935 -3.3517671e-06)
(-9.2683267e-07 0.0033753655 -3.3616352e-06)
(2.7666224e-07 0.0033649179 -3.3570352e-06)
(-6.5367429e-07 0.0033728104 -3.3606759e-06)
(4.4448798e-07 0.0033692089 -3.3590005e-06)
(-4.4478744e-07 0.0033692088 -3.3589995e-06)
(6.5352218e-07 0.0033728107 -3.3606763e-06)
(-2.7660097e-07 0.003364918 -3.357035e-06)
(9.2689408e-07 0.0033753657 -3.3616355e-06)
(3.9788813e-06 0.0033594935 -3.3517674e-06)
(6.1657782e-06 -0.0054101074 3.6542856e-06)
(1.1607676e-06 -0.0054269321 3.6656888e-06)
(-7.2216989e-07 -0.0054171248 3.660911e-06)
(1.2836194e-06 -0.0054245977 3.6647119e-06)
(-1.1708098e-06 -0.0054211351 3.6629593e-06)
(1.1705513e-06 -0.0054211349 3.6629582e-06)
(-1.2837093e-06 -0.0054245977 3.6647122e-06)
(7.2221244e-07 -0.0054171246 3.6609106e-06)
(-1.1606419e-06 -0.0054269321 3.6656891e-06)
(-6.1657723e-06 -0.0054101075 3.6542863e-06)
(-5.1879055e-06 0.004346703 -3.9619928e-06)
(-1.2064828e-06 0.0043658463 -3.9733e-06)
(4.2427262e-07 0.0043535076 -3.9683414e-06)
(-9.0997749e-07 0.0043626912 -3.9722827e-06)
(6.6458426e-07 0.0043584798 -3.9704628e-06)
(-6.6487625e-07 0.0043584797 -3.9704615e-06)
(9.0982397e-07 0.0043626915 -3.9722834e-06)
(-4.2421535e-07 0.0043535078 -3.9683412e-06)
(1.2065289e-06 0.0043658465 -3.9733004e-06)
(5.1879618e-06 0.004346703 -3.9619931e-06)
(7.6411303e-06 -0.00646464 4.2841163e-06)
(1.5369615e-06 -0.006484721 4.297068e-06)
(-9.2004273e-07 -0.0064730689 4.2919629e-06)
(1.6012197e-06 -0.0064818353 4.2960533e-06)
(-1.4392534e-06 -0.0064777684 4.2941609e-06)
(1.4390135e-06 -0.0064777683 4.2941596e-06)
(-1.6013002e-06 -0.0064818353 4.2960537e-06)
(9.2007718e-07 -0.0064730688 4.2919628e-06)
(-1.5368386e-06 -0.0064847211 4.2970692e-06)
(-7.6411344e-06 -0.0064646401 4.2841176e-06)
(-6.6322534e-06 0.0054719629 -4.6101913e-06)
(-1.5565735e-06 0.0054947675 -4.6230183e-06)
(6.1330676e-07 0.0054803588 -4.6177467e-06)
(-1.222107e-06 0.005490909 -4.6219673e-06)
(9.3323506e-07 0.0054860479 -4.6200119e-06)
(-9.335197e-07 0.0054860479 -4.6200102e-06)
(1.2219516e-06 0.0054909093 -4.6219679e-06)