/*--------------------------------*- C++ -*----------------------------------*\
  =========                 |
  \\      /  F ield         | OpenFOAM: The Open Source CFD Toolbox
   \\    /   O peration     | Website:  https://openfoam.org
    \\  /    A nd           | Version:  8
     \\/     M anipulation  |
\*---------------------------------------------------------------------------*/
FoamFile
{
    version     2.0;
    format      ascii;
    class       volScalarField;
    location    "4.500037302";
    object      alphat;
}
// * * * * * * * * * * * * * * * * * * * * * * * * * * * * * * * * * * * * * //

dimensions      [1 -1 -1 0 0 0 0];

internalField   nonuniform List<scalar> 
6800
(
0.00665624
0.0179384
0.0225137
0.0253115
0.0293945
0.0327257
0.0291397
0.024922
0.0143898
0.0104977
0.00637438
0.0180387
0.0231642
0.0261951
0.0322276
0.0306721
0.0224346
0.0128551
0.00918059
0.00830697
0.00811927
0.0198863
0.0236983
0.0288683
0.0328967
0.0220144
0.0123354
0.00907307
0.00813161
0.00702985
0.00885028
0.0209696
0.0247122
0.0306207
0.0255708
0.0147229
0.0111944
0.00908657
0.00717878
0.0065563
0.00962545
0.0215267
0.0256367
0.0314242
0.0183655
0.0121404
0.0082024
0.00700957
0.00640876
0.00596126
0.0100146
0.0225908
0.0280601
0.0266754
0.0149407
0.00914779
0.00812026
0.00755831
0.00653587
0.00569414
0.0105088
0.0248018
0.0310382
0.0195204
0.0101547
0.00862729
0.00734841
0.00622061
0.00549226
0.0051943
0.010722
0.026745
0.029562
0.0143646
0.0109846
0.00878651
0.00719822
0.00649583
0.00580285
0.00532829
0.0110924
0.0294406
0.026258
0.0141596
0.00896269
0.00745408
0.00661655
0.00578548
0.0051078
0.00482711
0.0112316
0.0323735
0.0237225
0.011431
0.00998381
0.00825802
0.00651851
0.00577229
0.00527958
0.00497729
0.0342637
0.146858
0.203012
0.218645
0.223319
0.224005
0.22633
0.229837
0.2337
0.235458
0.0328745
0.141492
0.196291
0.212327
0.215137
0.213909
0.214056
0.215503
0.217255
0.21888
0.0303757
0.130151
0.182484
0.199673
0.200615
0.197983
0.196289
0.194738
0.192714
0.193088
0.0274104
0.117165
0.166068
0.18214
0.181317
0.17788
0.172368
0.168494
0.161421
0.152857
0.0242978
0.104257
0.148902
0.158541
0.154639
0.14778
0.139085
0.129761
0.114891
0.0929647
0.021587
0.0928829
0.126055
0.12644
0.11774
0.108998
0.0939433
0.0703748
0.0579736
0.0426675
0.0192955
0.0784805
0.0970896
0.0870643
0.0762925
0.0549258
0.0420393
0.0360551
0.0355505
0.0307639
0.0181964
0.0617415
0.0555645
0.0460555
0.0343142
0.032355
0.0323325
0.0307233
0.0307807
0.0276534
0.0156514
0.032418
0.0271724
0.0278531
0.0282962
0.0299666
0.0309206
0.0298245
0.0291093
0.0245396
0.0114619
0.0190336
0.0222116
0.0255616
0.027661
0.0305035
0.030965
0.0281276
0.0265482
0.0169426
0.236713
0.237433
0.235986
0.234054
0.232169
0.230491
0.229019
0.22777
0.226736
0.225876
0.225149
0.224514
0.223946
0.223448
0.222997
0.222595
0.222251
0.221962
0.221733
0.221563
0.221446
0.221373
0.221333
0.221314
0.221305
0.221292
0.221266
0.221213
0.221127
0.221002
0.220837
0.220635
0.220399
0.220131
0.219835
0.219514
0.219171
0.218812
0.218437
0.218055
0.217669
0.217291
0.216927
0.216586
0.216272
0.215994
0.21575
0.215545
0.215379
0.215252
0.215161
0.215105
0.215079
0.215083
0.21511
0.215158
0.215223
0.215304
0.215397
0.215503
0.215618
0.215741
0.215872
0.216006
0.216143
0.21628
0.216415
0.216545
0.216668
0.216782
0.216886
0.216976
0.217053
0.217113
0.217156
0.21718
0.217186
0.217169
0.217131
0.217069
0.216985
0.216879
0.216751
0.216605
0.216441
0.216266
0.216077
0.215886
0.215683
0.215494
0.215284
0.215113
0.214902
0.214764
0.214549
0.214456
0.214251
0.214198
0.213977
0.214197
0.220473
0.221246
0.220493
0.219144
0.217777
0.216581
0.21558
0.214786
0.214154
0.213658
0.213265
0.212923
0.212619
0.212386
0.21218
0.212016
0.211914
0.211877
0.211898
0.211972
0.212088
0.212237
0.212409
0.212589
0.212767
0.212929
0.213066
0.213168
0.21323
0.213245
0.213225
0.213169
0.213079
0.212955
0.212799
0.212614
0.212402
0.212168
0.211916
0.211654
0.211385
0.21113
0.210889
0.210669
0.210474
0.210311
0.210178
0.210082
0.21002
0.209993
0.209999
0.210037
0.210102
0.210193
0.210305
0.210435
0.21058
0.210738
0.210909
0.211089
0.211277
0.211472
0.211671
0.211873
0.212076
0.212278
0.212476
0.212667
0.212852
0.213025
0.213188
0.213335
0.213469
0.213584
0.213682
0.213758
0.213814
0.213845
0.213853
0.213836
0.213795
0.213729
0.213641
0.213533
0.213406
0.213267
0.213112
0.212955
0.212783
0.212624
0.212443
0.2123
0.212115
0.212008
0.211816
0.211756
0.211572
0.211554
0.211359
0.21162
0.19687
0.196411
0.195384
0.194045
0.19285
0.191998
0.191436
0.191123
0.190969
0.190929
0.190954
0.191066
0.191261
0.191526
0.191925
0.192423
0.192993
0.193627
0.194305
0.195014
0.195738
0.196461
0.197169
0.197846
0.198482
0.199059
0.199576
0.200023
0.200402
0.200718
0.201004
0.201245
0.201439
0.201587
0.201692
0.201755
0.20178
0.201772
0.201736
0.201682
0.201619
0.20155
0.201486
0.20144
0.201414
0.201418
0.20145
0.201513
0.201606
0.201729
0.20188
0.202058
0.202259
0.202482
0.202718
0.202963
0.203216
0.203478
0.203752
0.204033
0.204318
0.204609
0.204905
0.205204
0.205503
0.2058
0.206091
0.206372
0.206644
0.206904
0.207151
0.207381
0.207597
0.207793
0.207972
0.20813
0.208266
0.208377
0.208461
0.208517
0.208546
0.208548
0.208525
0.208482
0.208419
0.208345
0.208254
0.208162
0.208052
0.207956
0.207831
0.207744
0.207605
0.207547
0.207392
0.207377
0.207221
0.207247
0.207076
0.207389
0.155165
0.156509
0.158387
0.159493
0.160668
0.161946
0.163178
0.164346
0.16543
0.166432
0.167374
0.168287
0.169194
0.170123
0.171062
0.172057
0.173112
0.174226
0.17538
0.176546
0.177703
0.178829
0.179911
0.180933
0.181887
0.182756
0.183543
0.184241
0.184865
0.185402
0.185841
0.186204
0.18651
0.186766
0.186978
0.187151
0.187289
0.187397
0.187483
0.187558
0.187631
0.187715
0.187814
0.187937
0.188087
0.188267
0.188477
0.188719
0.18899
0.189289
0.189616
0.189969
0.190343
0.190735
0.191141
0.191563
0.191998
0.192447
0.192904
0.193383
0.193879
0.194386
0.194896
0.195406
0.195911
0.196405
0.196886
0.197352
0.197806
0.198242
0.19866
0.199055
0.199432
0.199787
0.200121
0.200429
0.200709
0.200957
0.201173
0.201355
0.201504
0.201621
0.201709
0.201773
0.20181
0.201832
0.201828
0.201819
0.201784
0.201759
0.201695
0.201667
0.201574
0.201567
0.20145
0.201482
0.201356
0.201431
0.201303
0.201694
0.092616
0.0949423
0.0974483
0.10043
0.103893
0.10759
0.110921
0.113944
0.11668
0.119138
0.121419
0.123594
0.125684
0.127734
0.129761
0.131855
0.134028
0.136261
0.138542
0.140798
0.142975
0.145046
0.146991
0.148809
0.150497
0.152043
0.15347
0.154752
0.15595
0.157083
0.158161
0.159176
0.16013
0.161031
0.161876
0.162668
0.163403
0.164087
0.164729
0.165343
0.165943
0.166543
0.167154
0.167781
0.168425
0.169089
0.16977
0.170467
0.171181
0.171906
0.172645
0.173397
0.174155
0.174911
0.175661
0.176405
0.177148
0.177893
0.178645
0.179402
0.180157
0.180917
0.181666
0.182412
0.183147
0.183854
0.184536
0.185187
0.185805
0.186392
0.186955
0.187489
0.188007
0.188505
0.188994
0.189468
0.189915
0.190326
0.190696
0.191025
0.191315
0.19157
0.191794
0.191996
0.192174
0.192341
0.192488
0.192632
0.192744
0.192862
0.192923
0.193016
0.193019
0.193105
0.193059
0.193167
0.193099
0.193245
0.193168
0.193653
0.0436974
0.0460063
0.0481594
0.0509322
0.0532673
0.0556355
0.0579664
0.0604389
0.062836
0.0652486
0.0678056
0.0705109
0.0733397
0.0761822
0.0789557
0.0819394
0.0850929
0.088344
0.0917145
0.0948882
0.0977755
0.100458
0.102988
0.105388
0.107666
0.109792
0.111857
0.113713
0.115592
0.117419
0.119159
0.120803
0.122387
0.123938
0.12544
0.126896
0.12829
0.129628
0.130921
0.132182
0.13343
0.134672
0.135923
0.137169
0.138428
0.1397
0.140977
0.142262
0.143559
0.144852
0.146146
0.147433
0.148703
0.149951
0.151176
0.152382
0.153579
0.154772
0.155963
0.157161
0.158338
0.159532
0.160668
0.161827
0.162929
0.163985
0.164972
0.165934
0.166889
0.167825
0.168708
0.169585
0.17043
0.171273
0.172085
0.172954
0.173782
0.174551
0.175252
0.175893
0.176482
0.177026
0.177531
0.17801
0.178457
0.178886
0.179281
0.179665
0.179998
0.180319
0.180552
0.180802
0.180931
0.18114
0.181188
0.181405
0.18141
0.181691
0.181636
0.182397
0.0311444
0.0315684
0.0319604
0.0323058
0.0327483
0.0331192
0.0335359
0.0340848
0.0343418
0.0353152
0.0366318
0.0374701
0.0390591
0.0401949
0.0408646
0.0416872
0.043059
0.0447835
0.0466233
0.048591
0.0507119
0.0528509
0.0550334
0.0570998
0.059191
0.0611896
0.0632127
0.0652024
0.0671455
0.0691271
0.0711049
0.0731404
0.0752122
0.0773139
0.0794017
0.0814977
0.0835426
0.0855426
0.0874902
0.0894312
0.091336
0.0931869
0.0950264
0.0967887
0.0986748
0.100605
0.10255
0.10452
0.106521
0.108485
0.110434
0.112337
0.1142
0.11603
0.117837
0.119623
0.121399
0.12317
0.124923
0.126678
0.128363
0.130104
0.131666
0.133434
0.134676
0.136149
0.13729
0.138564
0.140068
0.141542
0.14258
0.144087
0.145171
0.14671
0.14769
0.149404
0.15074
0.151931
0.152999
0.154
0.154939
0.155835
0.156703
0.157532
0.158343
0.159177
0.159988
0.160778
0.161478
0.162117
0.162648
0.163168
0.163528
0.163952
0.164161
0.164579
0.164693
0.165228
0.165144
0.166252
0.0276174
0.0274199
0.0271493
0.0268223
0.0264252
0.0260231
0.0255802
0.0251652
0.0247517
0.0244587
0.0241804
0.0239691
0.0236777
0.023353
0.0230927
0.0229572
0.0229624
0.023115
0.0233436
0.0235118
0.0238801
0.0240704
0.0244427
0.0248649
0.0254133
0.0259819
0.026591
0.0272276
0.0278077
0.0284999
0.029248
0.0301222
0.0310941
0.0322351
0.033438
0.0347312
0.0360493
0.037436
0.0388827
0.0403365
0.0420303
0.0438144
0.045848
0.0480139
0.0503792
0.0528032
0.0553413
0.0579139
0.0605603
0.0632173
0.065869
0.068501
0.071084
0.0736215
0.0761138
0.0785605
0.0809766
0.0833644
0.0856532
0.0878884
0.0900321
0.0921846
0.0942649
0.0963592
0.0984368
0.100376
0.102376
0.104227
0.10616
0.108141
0.110152
0.112094
0.113836
0.115771
0.117484
0.119407
0.120804
0.122358
0.123815
0.125276
0.126681
0.128024
0.129399
0.130684
0.131943
0.133264
0.1346
0.135827
0.13694
0.137822
0.138671
0.139504
0.140155
0.140837
0.141282
0.141955
0.142214
0.143162
0.143006
0.144736
0.0239478
0.0231988
0.0224761
0.0217875
0.0211101
0.0205257
0.0198836
0.0192206
0.0185391
0.017895
0.0172711
0.0167014
0.0161899
0.0157319
0.0153362
0.0148942
0.0145
0.0139962
0.0135846
0.0132314
0.0129356
0.0126748
0.0124468
0.0122556
0.0120803
0.0119511
0.0118239
0.0117627
0.01167
0.0116208
0.0118421
0.0117564
0.0120507
0.0120888
0.0124744
0.0124259
0.0125281
0.0127906
0.0131129
0.0134224
0.0139878
0.0144939
0.0149136
0.0154904
0.0165898
0.017581
0.0187634
0.0199724
0.0212912
0.0227274
0.0242412
0.0259058
0.027581
0.0294807
0.0313813
0.0334585
0.0355029
0.0376754
0.0398967
0.0422749
0.0447107
0.0471994
0.0497093
0.0522289
0.0547728
0.0572883
0.059819
0.0623023
0.0647871
0.0672446
0.0696824
0.0721168
0.0744715
0.0768325
0.0791011
0.0813736
0.083399
0.0855009
0.0873567
0.089309
0.0911772
0.0929532
0.094892
0.0965968
0.0984394
0.100252
0.1021
0.103614
0.105344
0.106523
0.108208
0.109864
0.111107
0.11196
0.113551
0.114377
0.115088
0.11675
0.117652
0.11868
0.0163666
0.0157857
0.0150941
0.0143646
0.0136481
0.0128327
0.0121181
0.011513
0.0109885
0.0105358
0.010138
0.00979006
0.00948737
0.00922246
0.00899842
0.00880598
0.00864508
0.00850073
0.00836998
0.00824853
0.00813475
0.00802637
0.00791927
0.00781998
0.00771119
0.00761782
0.00751468
0.00741081
0.00730007
0.00717104
0.00710907
0.00700924
0.00698206
0.00696797
0.00693632
0.00690779
0.00684893
0.00684723
0.00679869
0.00682986
0.00688281
0.00691301
0.00690146
0.00694768
0.00689552
0.00713186
0.00729957
0.00754881
0.0073367
0.00747572
0.00766934
0.00799281
0.00827043
0.0087634
0.00921725
0.00980114
0.0103061
0.010885
0.0114872
0.0121647
0.0129495
0.0138383
0.0148368
0.0159574
0.0172122
0.0185201
0.0200714
0.0215392
0.0233451
0.0250466
0.0269472
0.0289604
0.030917
0.0330962
0.0352212
0.0373608
0.0397036
0.041898
0.0443478
0.0466575
0.0489937
0.0513624
0.0536921
0.0559119
0.0584175
0.0604061
0.0631093
0.064996
0.0673022
0.0690589
0.0712159
0.0728558
0.0748847
0.0761967
0.0776092
0.0791606
0.0802015
0.0819097
0.0830973
0.0850209
0.00836395
0.00839328
0.00834312
0.00825931
0.00814971
0.00801434
0.00786389
0.00770771
0.00755178
0.00740145
0.00725822
0.00712457
0.00699987
0.00688489
0.00677853
0.00668104
0.00659124
0.00650883
0.00643208
0.00636048
0.0062926
0.00622854
0.00616623
0.00610685
0.00604883
0.00599465
0.00593903
0.00589043
0.00584275
0.00580088
0.00576143
0.00572636
0.00569538
0.00566702
0.00564207
0.00562096
0.00559737
0.00558167
0.0055615
0.00554499
0.00552762
0.00551533
0.00550296
0.00549454
0.00548168
0.00547365
0.00546882
0.0054624
0.00545726
0.00544726
0.00545872
0.00545414
0.0054782
0.0054976
0.00551996
0.00557043
0.0056208
0.00566314
0.00573163
0.00576043
0.00585895
0.00589828
0.00606211
0.00609493
0.00636356
0.00642838
0.00678051
0.00692544
0.0073695
0.00761838
0.0081222
0.00857767
0.00916806
0.00977908
0.0105817
0.0111995
0.0123013
0.0129474
0.0142774
0.0151264
0.0165455
0.0177012
0.0192286
0.0205858
0.0224151
0.02371
0.0259446
0.0272422
0.0295373
0.0309341
0.0332159
0.0347728
0.0368485
0.0386651
0.0401122
0.0423078
0.0434585
0.0456751
0.0478562
0.0489563
0.00671514
0.00666456
0.00659949
0.0065317
0.00646302
0.00639344
0.00632359
0.00625504
0.00618899
0.00612569
0.00606523
0.00600771
0.00595302
0.00590107
0.00585175
0.00580482
0.00576019
0.00571761
0.00567671
0.00563755
0.00559961
0.005563
0.0055278
0.00549401
0.00546078
0.00543148
0.00540637
0.00538339
0.00536205
0.00534108
0.00532027
0.00529939
0.00527804
0.00525714
0.00523624
0.00521563
0.00519552
0.00517633
0.0051559
0.00513757
0.00511719
0.00510097
0.00508121
0.0050687
0.00505108
0.0050421
0.00502372
0.00501475
0.00499548
0.00498664
0.0049709
0.0049579
0.00495091
0.00493433
0.00493942
0.00492662
0.00493773
0.00493171
0.00493086
0.0049338
0.00491659
0.00492674
0.00491776
0.00490151
0.00492506
0.00487578
0.00492207
0.00488298
0.00490457
0.00492529
0.00493337
0.00496911
0.00510978
0.00518909
0.00506567
0.0050434
0.00501125
0.00494639
0.00497462
0.00493715
0.00503417
0.00510544
0.00526867
0.00549733
0.00579591
0.00614163
0.00662885
0.00714696
0.00774057
0.00847136
0.00922591
0.0101705
0.0111257
0.0120783
0.0129554
0.0140904
0.0145176
0.0157407
0.0168647
0.0176861
0.00583752
0.00581889
0.00579964
0.00577838
0.00575524
0.00573082
0.00570572
0.00567772
0.00564678
0.0056131
0.00557825
0.0055422
0.00550639
0.00547041
0.00543543
0.00540072
0.00536727
0.00533421
0.00530255
0.00527147
0.00524197
0.00521335
0.00518644
0.00516072
0.00513683
0.00511421
0.00509301
0.00507296
0.00505396
0.00503595
0.00501845
0.00500165
0.00498474
0.00496828
0.0049512
0.00493454
0.0049171
0.00490021
0.00488273
0.00486609
0.00484916
0.00483333
0.00481749
0.00480302
0.00478868
0.00477594
0.00476335
0.00475252
0.00474171
0.00473261
0.00472346
0.00471572
0.0047081
0.00470128
0.00469494
0.00468885
0.0046833
0.00467794
0.00467259
0.00466791
0.00466247
0.00465803
0.00465288
0.00464797
0.00464357
0.00463754
0.00463497
0.00462694
0.00462768
0.00461419
0.0046178
0.00460445
0.00460668
0.00460078
0.00459417
0.00458953
0.00458016
0.0045866
0.00457309
0.00457861
0.00457602
0.00456749
0.00453758
0.0045296
0.0045222
0.00455066
0.0045512
0.00461155
0.00463828
0.00472327
0.00478635
0.0048808
0.00499601
0.00509788
0.00521144
0.00535203
0.00541069
0.00556667
0.00576207
0.00587605
0.0053195
0.00530484
0.00528758
0.00526726
0.0052458
0.00522366
0.00520212
0.00518079
0.00516043
0.00514008
0.00512023
0.00509967
0.00507889
0.00505663
0.00503362
0.00500874
0.00498306
0.00495573
0.00492817
0.00489971
0.0048719
0.00484411
0.00481786
0.00479236
0.00476891
0.00474648
0.00472615
0.00470668
0.00468902
0.00467184
0.004656
0.00464023
0.00462541
0.00461034
0.004596
0.00458129
0.00456728
0.00455295
0.00453946
0.00452581
0.0045132
0.00450058
0.00448915
0.00447784
0.00446783
0.00445799
0.00444952
0.0044412
0.00443428
0.00442739
0.00442188
0.00441627
0.00441193
0.0044074
0.00440395
0.00440022
0.00439742
0.00439415
0.00439181
0.00438865
0.00438664
0.00438329
0.00438148
0.00437783
0.00437612
0.00437214
0.00437108
0.00436665
0.00436648
0.00436253
0.00436308
0.00435998
0.00436075
0.00435838
0.00435815
0.00435514
0.00435069
0.00434987
0.00434782
0.00434748
0.00434579
0.00433842
0.00432778
0.00431969
0.00430314
0.00429882
0.00428168
0.00428313
0.00427984
0.00427951
0.00428688
0.00429111
0.00431428
0.00434295
0.00435761
0.00435842
0.00436983
0.00435977
0.00437374
0.00439439
0.00493347
0.00492818
0.00492094
0.00491133
0.00489988
0.00488578
0.00486976
0.00485112
0.004831
0.00480893
0.00478634
0.00476275
0.00473965
0.00471639
0.00469439
0.00467275
0.00465278
0.00463331
0.00461556
0.00459814
0.00458226
0.0045664
0.00455184
0.00453699
0.00452328
0.00450909
0.00449599
0.00448236
0.00446989
0.00445689
0.00444516
0.00443293
0.00442209
0.00441074
0.00440087
0.00439043
0.00438151
0.00437193
0.0043639
0.0043551
0.00434784
0.00433971
0.00433311
0.00432555
0.0043195
0.0043124
0.00430681
0.00430009
0.00429487
0.00428844
0.00428353
0.00427733
0.00427267
0.00426664
0.00426224
0.00425636
0.00425223
0.00424651
0.00424268
0.00423715
0.00423367
0.00422834
0.00422524
0.00422014
0.00421741
0.00421253
0.00421015
0.0042055
0.00420342
0.004199
0.00419716
0.00419297
0.0041913
0.00418734
0.00418577
0.00418209
0.00418048
0.00417706
0.00417556
0.00417235
0.00417093
0.00416782
0.00416619
0.00416318
0.00416146
0.00415855
0.00415689
0.00415425
0.0041528
0.00415072
0.00414951
0.00414726
0.00414724
0.00414407
0.00414531
0.00414123
0.00414242
0.00413976
0.0041498
0.00412838
0.00463311
0.0046317
0.00462777
0.00462142
0.00461357
0.00460375
0.00459287
0.00458031
0.00456706
0.00455247
0.00453765
0.00452186
0.00450628
0.00449004
0.0044744
0.00445837
0.00444326
0.00442796
0.00441382
0.00439959
0.00438663
0.00437354
0.00436171
0.00434957
0.00433854
0.00432697
0.00431635
0.00430497
0.00429448
0.00428313
0.00427276
0.00426157
0.00425159
0.00424092
0.00423172
0.00422194
0.00421387
0.00420526
0.00419847
0.00419109
0.00418556
0.00417928
0.0041748
0.00416937
0.00416567
0.00416081
0.0041576
0.00415306
0.00415011
0.00414568
0.00414281
0.00413836
0.00413549
0.00413095
0.00412804
0.00412342
0.0041205
0.00411582
0.00411296
0.00410829
0.00410557
0.00410096
0.00409845
0.00409394
0.00409168
0.0040873
0.00408528
0.00408103
0.00407925
0.00407513
0.00407352
0.00406957
0.00406807
0.00406432
0.00406287
0.00405934
0.00405789
0.0040546
0.00405313
0.00405006
0.00404854
0.00404566
0.00404396
0.00404127
0.0040394
0.0040368
0.004035
0.00403217
0.00403098
0.00402765
0.00402719
0.0040238
0.00402291
0.00402073
0.00401865
0.00401853
0.00401513
0.00401573
0.00400307
0.00402053
0.00442062
0.0044218
0.00442093
0.00441751
0.00441253
0.00440558
0.00439769
0.00438828
0.00437844
0.00436751
0.00435662
0.00434501
0.00433378
0.00432204
0.00431092
0.00429939
0.00428861
0.00427742
0.00426707
0.00425629
0.00424638
0.004236
0.00422656
0.00421661
0.00420768
0.00419822
0.00418986
0.00418094
0.0041732
0.00416484
0.00415769
0.00414985
0.00414325
0.00413585
0.00412971
0.00412266
0.00411691
0.00411016
0.00410474
0.00409825
0.00409316
0.00408692
0.00408215
0.00407616
0.0040717
0.00406596
0.00406181
0.00405631
0.00405245
0.00404718
0.00404362
0.00403857
0.0040353
0.00403046
0.00402746
0.00402284
0.00402012
0.0040157
0.00401325
0.00400901
0.00400681
0.00400273
0.00400077
0.00399681
0.00399506
0.00399122
0.00398964
0.00398588
0.00398445
0.00398078
0.00397947
0.00397588
0.00397465
0.00397115
0.00396997
0.00396657
0.00396542
0.00396212
0.003961
0.0039578
0.0039567
0.0039536
0.00395251
0.00394951
0.00394845
0.00394551
0.00394449
0.00394162
0.00394064
0.00393783
0.00393684
0.00393425
0.00393318
0.00393034
0.00392972
0.00392783
0.003927
0.00392473
0.00392303
0.00392021
0.0042668
0.00426903
0.00426959
0.00426782
0.00426476
0.00425998
0.00425447
0.00424762
0.00424042
0.00423219
0.00422398
0.004215
0.00420633
0.00419709
0.00418838
0.00417919
0.00417068
0.00416172
0.00415352
0.00414486
0.00413699
0.0041286
0.00412103
0.00411289
0.00410562
0.00409772
0.00409075
0.00408313
0.00407654
0.00406926
0.00406312
0.00405626
0.00405063
0.00404424
0.00403914
0.00403321
0.00402861
0.00402307
0.00401889
0.00401367
0.00400981
0.0040048
0.00400117
0.00399629
0.00399282
0.00398802
0.00398468
0.00397993
0.00397671
0.00397202
0.00396894
0.00396433
0.00396142
0.00395693
0.00395421
0.00394987
0.00394739
0.0039432
0.00394096
0.00393693
0.00393492
0.00393103
0.00392924
0.00392548
0.00392387
0.00392022
0.00391878
0.00391521
0.00391391
0.00391042
0.00390922
0.0039058
0.00390469
0.00390133
0.00390028
0.00389698
0.00389597
0.00389274
0.00389177
0.00388861
0.00388767
0.00388457
0.00388365
0.00388062
0.00387973
0.00387677
0.00387588
0.00387303
0.0038721
0.00386936
0.00386838
0.00386582
0.00386486
0.00386193
0.00386143
0.0038595
0.00385871
0.00385642
0.00385494
0.00385204
0.00415373
0.00415652
0.00415799
0.00415739
0.00415569
0.00415241
0.00414854
0.00414343
0.00413807
0.00413174
0.00412546
0.0041184
0.00411161
0.00410418
0.00409718
0.00408962
0.00408262
0.00407511
0.00406825
0.0040609
0.00405429
0.00404718
0.00404088
0.00403405
0.00402809
0.00402157
0.00401595
0.00400972
0.00400443
0.00399846
0.00399347
0.00398773
0.00398302
0.00397749
0.00397305
0.00396771
0.00396353
0.00395838
0.00395446
0.00394951
0.00394584
0.00394108
0.00393767
0.00393309
0.00392992
0.00392553
0.00392259
0.00391836
0.00391562
0.00391155
0.00390901
0.00390506
0.00390271
0.00389887
0.00389669
0.00389294
0.00389093
0.00388725
0.0038854
0.00388178
0.00388008
0.00387652
0.00387495
0.00387144
0.00387
0.00386654
0.0038652
0.0038618
0.00386055
0.0038572
0.00385605
0.00385274
0.00385166
0.0038484
0.00384739
0.00384417
0.00384322
0.00384005
0.00383915
0.00383604
0.00383515
0.00383214
0.00383123
0.00382832
0.00382738
0.00382459
0.0038236
0.00382091
0.00381992
0.00381727
0.00381633
0.00381362
0.00381274
0.00381036
0.00380905
0.00380645
0.00380574
0.00380362
0.00380277
0.00379929
0.0040689
0.0040718
0.00407367
0.00407367
0.00407279
0.00407045
0.00406766
0.00406369
0.00405955
0.00405447
0.00404947
0.00404369
0.0040382
0.00403205
0.00402635
0.00402005
0.00401432
0.00400803
0.00400238
0.00399619
0.00399071
0.00398468
0.0039794
0.00397356
0.00396852
0.00396289
0.00395811
0.0039527
0.00394818
0.00394299
0.00393873
0.00393374
0.00392972
0.00392491
0.00392113
0.00391647
0.0039129
0.00390838
0.00390501
0.00390062
0.00389742
0.00389316
0.00389014
0.003886
0.00388316
0.00387915
0.00387647
0.00387259
0.00387008
0.00386632
0.00386397
0.00386033
0.00385814
0.0038546
0.00385257
0.0038491
0.00384723
0.00384382
0.0038421
0.00383872
0.00383715
0.0038338
0.00383236
0.00382904
0.00382771
0.00382443
0.00382319
0.00381996
0.00381878
0.00381561
0.00381449
0.00381137
0.0038103
0.00380723
0.00380621
0.00380318
0.00380221
0.00379922
0.00379828
0.00379535
0.00379442
0.00379157
0.00379063
0.00378787
0.00378689
0.00378424
0.00378321
0.00378067
0.0037796
0.00377714
0.0037761
0.00377355
0.00377266
0.00377031
0.00376911
0.00376644
0.00376583
0.00376377
0.00376284
0.00375935
0.00400438
0.00400721
0.00400926
0.00400963
0.00400929
0.0040076
0.00400559
0.00400246
0.00399926
0.00399513
0.00399114
0.00398635
0.00398188
0.0039767
0.00397198
0.0039666
0.0039618
0.00395636
0.0039516
0.00394621
0.00394156
0.00393628
0.0039318
0.00392667
0.00392237
0.00391741
0.00391332
0.00390853
0.00390464
0.00390001
0.00389632
0.00389184
0.00388835
0.00388401
0.00388071
0.0038765
0.00387339
0.0038693
0.00386636
0.00386239
0.00385962
0.00385576
0.00385313
0.00384939
0.0038469
0.00384325
0.00384089
0.00383734
0.00383509
0.00383164
0.0038295
0.00382613
0.00382411
0.0038208
0.00381891
0.00381565
0.00381389
0.00381065
0.00380903
0.00380582
0.00380433
0.00380113
0.00379976
0.00379657
0.00379531
0.00379216
0.00379097
0.00378787
0.00378672
0.0037837
0.00378256
0.00377964
0.00377848
0.00377565
0.00377448
0.00377175
0.00377056
0.00376793
0.0037667
0.00376418
0.00376291
0.0037605
0.00375919
0.00375687
0.00375552
0.00375334
0.00375183
0.00374996
0.00374814
0.00374661
0.00374466
0.00374295
0.00374168
0.00373911
0.00373865
0.00373597
0.00373318
0.00373336
0.003733
0.00372982
0.00395596
0.00395876
0.00396086
0.00396142
0.00396142
0.00396017
0.00395867
0.00395611
0.00395353
0.00395003
0.00394672
0.00394261
0.00393884
0.00393435
0.00393034
0.00392565
0.00392155
0.00391678
0.0039127
0.00390794
0.00390394
0.00389925
0.00389537
0.00389078
0.00388706
0.00388258
0.00387902
0.00387467
0.00387128
0.00386704
0.00386381
0.00385968
0.00385662
0.0038526
0.00384969
0.00384576
0.00384301
0.00383916
0.00383656
0.0038328
0.00383033
0.00382665
0.00382432
0.00382072
0.00381851
0.00381499
0.0038129
0.00380945
0.00380747
0.00380409
0.00380221
0.00379889
0.00379712
0.00379386
0.00379219
0.00378897
0.00378741
0.00378422
0.00378278
0.00377961
0.00377827
0.00377513
0.00377389
0.00377076
0.00376962
0.0037665
0.00376545
0.00376235
0.00376137
0.00375829
0.00375736
0.00375433
0.0037534
0.00375048
0.0037495
0.00374671
0.00374564
0.00374303
0.00374184
0.00373942
0.00373808
0.00373588
0.00373438
0.00373238
0.00373077
0.00372886
0.00372733
0.00372525
0.00372408
0.00372164
0.00372075
0.00371846
0.00371685
0.00371582
0.00371314
0.00371238
0.00370997
0.00371022
0.00369901
0.00371476
0.00391908
0.00392172
0.00392377
0.00392441
0.0039246
0.00392364
0.00392248
0.00392033
0.00391819
0.00391517
0.00391234
0.00390874
0.00390547
0.00390149
0.00389797
0.00389378
0.00389015
0.00388586
0.00388222
0.00387792
0.00387434
0.00387007
0.00386659
0.00386239
0.00385904
0.00385492
0.00385171
0.00384769
0.00384463
0.0038407
0.00383779
0.00383394
0.00383119
0.00382741
0.0038248
0.00382109
0.00381863
0.00381498
0.00381265
0.00380906
0.00380686
0.00380332
0.00380124
0.00379775
0.00379579
0.00379235
0.0037905
0.00378711
0.00378537
0.00378201
0.00378038
0.00377707
0.00377553
0.00377226
0.00377083
0.0037676
0.00376626
0.00376305
0.00376181
0.00375862
0.00375749
0.0037543
0.00375327
0.00375007
0.00374914
0.00374593
0.00374511
0.00374188
0.00374115
0.00373792
0.00373725
0.00373404
0.0037334
0.00373024
0.00372961
0.00372649
0.0037259
0.0037228
0.00372225
0.00371916
0.00371866
0.00371558
0.00371509
0.00371209
0.00371157
0.00370864
0.00370813
0.00370517
0.00370482
0.00370169
0.00370155
0.00369836
0.00369818
0.00369501
0.00369492
0.00369338
0.00369098
0.00369111
0.00368029
0.00369513
0.00389095
0.00389339
0.00389534
0.003896
0.00389627
0.00389547
0.00389451
0.0038926
0.00389072
0.003888
0.00388548
0.0038822
0.00387925
0.00387562
0.00387243
0.00386858
0.00386527
0.00386133
0.003858
0.00385403
0.00385074
0.00384679
0.00384358
0.00383969
0.00383659
0.00383277
0.00382979
0.00382604
0.00382319
0.00381952
0.0038168
0.0038132
0.00381061
0.00380707
0.00380462
0.00380113
0.0037988
0.00379536
0.00379316
0.00378976
0.00378767
0.00378431
0.00378234
0.00377901
0.00377715
0.00377386
0.00377209
0.00376884
0.00376717
0.00376396
0.00376239
0.0037592
0.00375773
0.00375456
0.00375321
0.00375003
0.00374881
0.00374561
0.00374452
0.0037413
0.00374033
0.00373709
0.00373623
0.00373297
0.00373221
0.00372893
0.00372826
0.00372497
0.00372438
0.00372109
0.00372057
0.00371727
0.00371681
0.00371352
0.00371309
0.00370985
0.00370941
0.00370625
0.00370576
0.00370272
0.00370217
0.00369921
0.00369867
0.0036957
0.00369527
0.0036922
0.00369194
0.00368876
0.00368861
0.0036854
0.00368531
0.00368207
0.00368219
0.00367842
0.00367943
0.00367504
0.00367729
0.00367409
0.003673
0.00366935
0.00386805
0.00387034
0.00387219
0.00387281
0.00387314
0.00387241
0.00387159
0.00386983
0.00386815
0.00386563
0.00386334
0.0038603
0.00385761
0.00385422
0.00385129
0.0038477
0.00384466
0.00384096
0.0038379
0.00383417
0.00383113
0.00382743
0.00382446
0.0038208
0.00381793
0.00381433
0.00381156
0.00380804
0.00380538
0.00380192
0.00379937
0.00379597
0.00379354
0.00379019
0.00378787
0.00378456
0.00378234
0.00377907
0.00377695
0.00377372
0.0037717
0.0037685
0.00376657
0.0037634
0.00376156
0.00375843
0.00375668
0.00375359
0.00375191
0.00374886
0.00374727
0.00374424
0.00374274
0.00373973
0.00373833
0.00373532
0.00373402
0.00373101
0.00372983
0.00372678
0.00372572
0.00372263
0.00372169
0.00371857
0.00371773
0.00371459
0.00371382
0.00371068
0.00370997
0.00370685
0.00370617
0.00370309
0.00370241
0.00369939
0.0036987
0.00369576
0.00369503
0.0036922
0.0036914
0.0036887
0.00368782
0.00368523
0.00368432
0.00368178
0.0036809
0.00367836
0.00367749
0.00367506
0.00367407
0.00367179
0.00367084
0.00366821
0.00366818
0.00366429
0.00366538
0.0036608
0.00366149
0.00365893
0.0036682
0.00364708
0.00384931
0.00385143
0.00385319
0.00385378
0.00385415
0.0038535
0.00385281
0.0038512
0.0038497
0.00384737
0.00384531
0.00384247
0.00384003
0.00383685
0.00383418
0.00383081
0.00382802
0.00382454
0.00382171
0.00381818
0.00381537
0.00381184
0.00380908
0.00380558
0.00380289
0.00379942
0.00379682
0.0037934
0.00379088
0.00378751
0.00378508
0.00378175
0.00377941
0.00377613
0.00377388
0.00377063
0.00376846
0.00376524
0.00376316
0.00375998
0.00375798
0.00375482
0.00375292
0.00374979
0.00374796
0.00374487
0.00374312
0.00374006
0.00373839
0.00373537
0.00373376
0.00373078
0.00372925
0.00372631
0.00372485
0.00372193
0.00372056
0.00371766
0.00371636
0.00371346
0.00371227
0.00370935
0.00370825
0.00370532
0.00370432
0.00370136
0.00370044
0.00369747
0.00369663
0.00369366
0.00369286
0.00368992
0.00368913
0.00368627
0.00368544
0.00368268
0.00368179
0.00367915
0.0036782
0.00367567
0.00367465
0.00367226
0.00367113
0.00366893
0.00366767
0.00366557
0.00366439
0.00366207
0.00366136
0.00365848
0.0036583
0.00365534
0.00365465
0.00365278
0.00365083
0.00365079
0.00364759
0.00364815
0.00363749
0.00365279
0.00383574
0.00383766
0.0038393
0.0038398
0.00384016
0.00383952
0.00383889
0.00383735
0.00383596
0.00383373
0.00383178
0.00382905
0.00382673
0.00382365
0.00382108
0.00381778
0.00381507
0.00381163
0.00380886
0.00380534
0.00380256
0.00379901
0.00379625
0.00379269
0.00378998
0.00378644
0.0037838
0.00378028
0.00377772
0.00377424
0.00377177
0.00376834
0.00376596
0.00376258
0.0037603
0.00375696
0.00375479
0.00375149
0.00374942
0.00374617
0.0037442
0.00374099
0.0037391
0.00373592
0.00373413
0.003731
0.00372928
0.00372621
0.00372458
0.00372156
0.00372001
0.00371705
0.00371558
0.00371266
0.00371127
0.00370839
0.00370708
0.00370423
0.00370299
0.00370016
0.003699
0.00369618
0.0036951
0.00369227