/*--------------------------------*- C++ -*----------------------------------*\
  =========                 |
  \\      /  F ield         | OpenFOAM: The Open Source CFD Toolbox
   \\    /   O peration     | Website:  https://openfoam.org
    \\  /    A nd           | Version:  8
     \\/     M anipulation  |
\*---------------------------------------------------------------------------*/
FoamFile
{
    version     2.0;
    format      ascii;
    class       volScalarField;
    location    "4.500037302";
    object      epsilon;
}
// * * * * * * * * * * * * * * * * * * * * * * * * * * * * * * * * * * * * * //

dimensions      [0 2 -3 0 0 0 0];

internalField   nonuniform List<scalar> 
6800
(
500.428
1175.08
1119.45
954.643
734.191
501.275
307.171
152.69
76.2734
40.3185
483.02
1060.8
989.49
822.049
547.507
316.263
152.544
73.2269
35.0602
19.0786
618.57
969.202
890.917
654.552
375.623
179.931
82.8417
37.1047
18.0316
10.2972
678.475
857.11
766.603
500.589
237.552
101.215
40.2403
18.9507
10.429
6.87164
743.228
796.798
685.238
361.601
144.793
53.6709
23.7294
12.4599
7.62564
5.54333
779.81
757.316
584.754
233.359
84.4423
33.9263
15.422
8.64716
5.83049
4.555
823.64
742.983
472.275
174.994
59.7348
21.8464
11.0437
7.23906
5.19448
4.2202
844.478
721.109
389.573
115.292
35.0574
15.6504
9.31963
6.05038
4.44728
3.78068
874.424
719.021
314.188
87.5342
28.6753
13.1828
7.58185
5.34858
4.21864
3.64986
888.763
715.769
255.247
60.1973
19.1332
10.5821
7.00886
4.99342
3.87066
3.4037
2567.81
1258.8
987.129
912.4
909.475
965.588
1042.63
1119.63
1170.01
1193.05
2464.25
1207.89
972.958
926.04
971.178
1086.82
1239.07
1401.34
1545.43
1626.69
2277.8
1138.04
952.522
957.552
1090.25
1308.7
1566.53
1804.07
1998.08
2089.43
2056.38
1065.06
942.101
1043.05
1307.47
1655.79
1958.69
2118.65
2207.17
2174.23
1823.56
1025.09
1008.68
1283.78
1749.51
2125.05
2231.77
2187.51
2129.91
1775.78
1620.33
1071.3
1292.07
1872.63
2320.97
2332.74
2204.55
1854.03
1581.65
1053.65
1447.95
1318.42
2000.32
2517.42
2403.18
2063.83
1552.95
1055.09
830.007
546.635
1366.72
1899.15
2579.68
2348.81
1728.15
1196.96
891.706
645.353
528.78
348.114
1171.1
2183.63
1972.14
1440.95
1095.56
837.035
646.532
480.034
380.931
216.257
848.918
1582.36
1372.24
1111.06
880.091
682.78
493.131
337.577
195.581
90.555
1192.45
1112.64
1031.8
959.626
897.829
845.129
798.817
758.374
723.139
691.948
664.022
638.79
615.801
594.686
575.163
557.024
540.109
524.306
509.502
495.583
482.444
469.988
458.126
446.773
435.856
425.303
415.057
405.066
395.294
385.716
376.317
367.092
358.043
349.179
340.509
332.045
323.796
315.772
307.979
300.426
293.12
286.069
279.278
272.753
266.495
260.504
254.777
249.306
244.082
239.092
234.321
229.751
225.367
221.152
217.092
213.17
209.376
205.698
202.127
198.654
195.272
191.975
188.757
185.613
182.537
179.525
176.574
173.679
170.838
168.046
165.303
162.604
159.949
157.335
154.762
152.229
149.733
147.277
144.858
142.477
140.136
137.834
135.574
133.356
131.183
129.055
126.977
124.946
122.971
121.038
119.173
117.334
115.589
113.827
112.222
110.496
109.083
107.285
106.245
103.913
1643.77
1525.5
1402.09
1292.54
1198.7
1119.3
1051.25
992.882
941.845
896.68
856.275
819.924
786.964
756.799
729.025
703.355
679.541
657.372
636.649
617.189
598.832
581.435
564.87
549.022
533.79
519.083
504.831
490.979
477.487
464.334
451.499
438.981
426.789
414.934
403.422
392.264
381.463
371.024
360.947
351.238
341.896
332.926
324.326
316.096
308.229
300.721
293.557
286.727
280.211
273.991
268.046
262.356
256.9
251.657
246.611
241.744
237.042
232.492
228.083
223.805
219.65
215.608
211.673
207.837
204.096
200.442
196.871
193.378
189.959
186.61
183.327
180.107
176.948
173.847
170.803
167.813
164.877
161.994
159.162
156.383
153.655
150.979
148.358
145.79
143.28
140.826
138.435
136.098
133.831
131.614
129.478
127.373
125.378
123.363
121.531
119.559
117.951
115.902
114.72
112.082
2102.04
1992.42
1839.87
1702.13
1582.85
1480.31
1391.43
1313.95
1245.38
1184
1128.61
1078.26
1032.25
990.118
951.435
915.789
882.806
852.154
823.522
796.627
771.239
747.161
724.212
702.232
681.083
660.645
640.837
621.595
602.887
584.693
566.949
549.713
533.012
516.861
501.264
486.222
471.732
457.792
444.393
431.534
419.209
407.415
396.146
385.394
375.146
365.387
356.095
347.245
338.811
330.762
323.07
315.708
308.65
301.866
295.339
289.051
282.982
277.113
271.433
265.928
260.589
255.405
250.367
245.464
240.691
236.038
231.5
227.07
222.741
218.509
214.37
210.319
206.355
202.474
198.674
194.952
191.306
187.735
184.236
180.808
177.451
174.164
170.949
167.806
164.738
161.742
158.827
155.981
153.222
150.524
147.928
145.366
142.943
140.49
138.269
135.868
133.919
131.427
129.998
126.809
2179.92
2113.05
1977.65
1847.72
1732.88
1631.34
1541.23
1461.09
1389.19
1324.13
1264.92
1210.85
1161.31
1115.81
1073.93
1035.25
999.409
966.073
934.863
905.479
877.677
851.256
825.997
801.724
778.275
755.522
733.388
711.813
690.773
670.329
650.553
631.386
612.809
594.821
577.42
560.608
544.38
528.739
513.68
499.209
485.322
472.024
459.308
447.167
435.586
424.543
414.01
403.954
394.343
385.141
376.32
367.85
359.702
351.847
344.258
336.909
329.789
322.888
316.194
309.698
303.39
297.259
291.295
285.486
279.827
274.306
268.919
263.653
258.502
253.462
248.534
243.714
239
234.388
229.875
225.458
221.133
216.897
212.747
208.682
204.702
200.806
196.997
193.272
189.638
186.088
182.633
179.259
175.989
172.786
169.707
166.659
163.783
160.859
158.224
155.357
153.051
150.078
148.386
144.616
1713.34
1628.25
1542.03
1466.34
1401.72
1345.04
1293.36
1245.38
1200.43
1158.13
1118.38
1081.24
1046.53
1014.21
984.294
956.423
930.447
906.181
883.182
861.322
840.481
820.496
801.057
782.038
763.278
744.708
726.304
708.041
690.018
672.226
654.725
637.584
620.842
604.53
588.665
573.261
558.325
543.863
529.886
516.406
503.428
490.973
479.036
467.622
456.715
446.29
436.324
426.775
417.61
408.794
400.303
392.114
384.201
376.533
369.089
361.849
354.804
347.945
341.266
334.759
328.414
322.223
316.176
310.265
304.483
298.824
293.276
287.849
282.54
277.341
272.243
267.247
262.345
257.538
252.821
248.192
243.647
239.181
234.792
230.479
226.243
222.085
218.009
214.015
210.11
206.285
202.556
198.901
195.354
191.861
188.503
185.153
182
178.763
175.864
172.671
170.131
166.812
164.943
160.764
953.49
863.533
795.833
746.775
712.935
687.037
667.245
651.513
638.753
627.691
618.757
611.634
605.799
600.943
597.41
594.474
592.219
590.249
588.267
586.198
584.002
581.288
577.511
572.998
567.653
561.617
554.982
547.708
540.127
532.244
524.125
515.829
507.406
498.921
490.414
481.929
473.5
465.153
456.931
448.866
440.983
433.341
425.943
418.833
411.95
405.274
398.814
392.524
386.384
380.394
374.542
368.837
363.259
357.78
352.383
347.056
341.804
336.623
331.52
326.492
321.532
316.645
311.815
307.046
302.332
297.67
293.05
288.477
283.948
279.467
275.026
270.644
266.308
262.032
257.811
253.641
249.52
245.443
241.406
237.412
233.464
229.566
225.725
221.941
218.224
214.564
210.983
207.45
204.013
200.6
197.317
194.012
190.909
187.686
184.824
181.624
179.116
175.783
173.931
169.786
504.531
458.237
418.951
386.405
359.65
336.751
317.679
301.568
287.563
276.511
267.265
259.772
253.692
248.537
244.63
242.086
240.616
239.89
240.171
241.249
243.009
245.268
247.948
251.017
254.189
257.39
260.565
263.577
266.476
269.232
271.836
274.363
276.68
278.851
280.797
282.583
284.131
285.471
286.57
287.472
288.182
288.729
289.108
289.438
289.302
288.932
288.461
287.829
287.06
286.229
285.289
284.29
283.199
281.988
280.639
279.162
277.571
275.88
274.105
272.258
270.326
268.343
266.241
264.099
261.856
259.532
257.101
254.655
252.121
249.535
246.875
244.174
241.447
238.675
235.92
233.155
230.403
227.62
224.805
221.959
219.096
216.223
213.351
210.486
207.639
204.803
201.996
199.188
196.432
193.651
190.958
188.196
185.602
182.851
180.425
177.651
175.508
172.603
170.996
167.441
319.944
288.33
260.411
236.136
214.642
195.436
178.274
162.918
149.395
137.283
126.866
118.143
110.686
104.324
98.8923
94.2587
90.3446
87.1245
84.5126
82.4536
80.8758
79.7314
78.9037
78.4826
78.2724
78.4629
78.8066
79.4675
80.2989
81.3
82.4342
83.8965
85.5789
87.4842
89.5384
91.8001
94.1569
96.6711
99.235
101.936
104.722
107.729
110.898
114.223
117.88
121.782
125.959
130.233
134.588
138.905
143.151
147.297
151.29
155.113
158.725
162.123
165.293
168.252
170.973
173.476
175.723
177.703
179.383
180.86
182.046
183.1
183.791
184.517
184.833
184.967
184.788
184.632
184.561
184.115
183.839
183.171
182.965
182.399
181.65
180.753
179.736
178.621
177.416
176.141
174.789
173.4
171.932
170.436
168.901
167.29
165.677
163.949
162.3
160.492
158.89
157.016
155.554
153.586
152.452
150.144
196.157
174.322
154.557
137.066
121.602
107.986
96.0197
85.5579
76.4167
68.5029
61.6144
55.6677
50.4679
45.9487
42.0311
38.7122
35.9043
33.4942
31.4151
29.6234
28.0598
26.7095
25.5049
24.4805
23.5402
22.7721
22.0359
21.4923
20.9211
20.5883
20.1421
20.1073
20.1321
20.0956
20.446
20.4945
20.6777
20.9899
21.4519
21.9728
22.6179
23.3572
24.4229
25.4067
26.1799
27.3724
28.8951
30.5897
32.5383
34.6538
36.9114
39.3724
41.9048
44.6436
47.4218
50.3596
53.3419
56.4316
59.567
62.7735
66.005
69.331
72.6737
76.0671
79.3866
82.7372
85.9372
89.1286
92.1588
95.1183
97.8846
100.565
103.065
105.441
107.617
109.682
111.519
113.29
114.794
116.17
117.333
118.333
119.199
119.91
120.472
121.001
121.205
121.751
121.762
121.855
121.738
121.395
120.987
120.512
120.043
119.515
118.993
118.414
117.87
117.346
81.6658
72.1875
63.5611
55.9973
49.4054
43.6343
38.5999
34.2349
30.461
27.2147
24.425
22.0368
19.9916
18.2457
16.7496
15.4632
14.3583
13.4046
12.5772
11.858
11.2251
10.6683
10.1669
9.72
9.30521
8.93129
8.57305
8.24875
7.92629
7.64155
7.34865
7.0914
6.85344
6.61305
6.42628
6.23325
6.09972
5.95172
5.85405
5.76194
5.71005
5.70015
5.71569
5.71418
5.80395
5.79595
5.91636
5.95483
6.20348
6.23017
6.37182
6.57485
6.80119
7.1456
7.49028
7.95683
8.44042
9.03234
9.68653
10.4393
11.283
12.2445
13.2809
14.4866
15.7381
17.1758
18.6927
20.3195
22.1118
23.9431
25.9242
27.9805
30.0707
32.2891
34.4459
36.7268
38.9113
41.1815
43.3742
45.5767
47.7662
49.8912
51.9634
54.0019
55.8566
57.7576
59.4153
61.0349
62.5457
63.8185
65.1693
66.2621
67.2684
68.2429
69.0645
69.9584
70.4554
71.2849
71.7854
72.7427
22.5496
21.6026
20.4597
19.2101
17.9181
16.631
15.3849
14.2048
13.1057
12.0957
11.177
10.3481
9.60441
8.93977
8.34718
7.81898
7.34804
6.92731
6.5502
6.21105
5.90413
5.62541
5.36997
5.1355
4.91775
4.71598
4.52636
4.34973
4.18243
4.02638
3.87802
3.73922
3.60797
3.4846
3.36902
3.26062
3.16039
3.06589
2.97932
2.89883
2.82458
2.7561
2.69335
2.63518
2.58404
2.5361
2.49511
2.45659
2.42403
2.39516
2.36915
2.35114
2.33256
2.32668
2.32786
2.33127
2.34315
2.36355
2.39509
2.43895
2.49701
2.56999
2.65634
2.76435
2.88499
3.02353
3.21574
3.3959
3.66662
3.92847
4.26437
4.65188
5.03989
5.54255
6.00834
6.57677
7.15894
7.77695
8.4849
9.1882
9.97422
10.8108
11.6428
12.596
13.5006
14.4835
15.4931
16.4733
17.4993
18.4952
19.5008
20.5348
21.4599
22.496
23.3333
24.3994
25.155
26.2481
26.7272
29.0257
12.1759
11.5036
10.835
10.1807
9.54792
8.94216
8.36641
7.82262
7.31286
6.83961
6.40407
6.00609
5.64469
5.31776
5.02305
4.75756
4.51865
4.30327
4.10887
3.93275
3.77266
3.62642
3.49211
3.3681
3.25277
3.14511
3.04378
2.9482
2.85728
2.77084
2.68808
2.60912
2.53326
2.46081
2.39121
2.32493
2.26141
2.20121
2.14381
2.08942
2.03761
1.98841
1.94173
1.89744
1.85594
1.81646
1.7798
1.74475
1.71248
1.68137
1.65273
1.6255
1.59902
1.57491
1.55033
1.52881
1.5038
1.48255
1.45747
1.43392
1.41333
1.38371
1.36838
1.34345
1.31988
1.31682
1.31331
1.3191
1.32441
1.32681
1.35091
1.36537
1.36122
1.37519
1.39111
1.42093
1.46401
1.53161
1.62929
1.74679
1.88594
2.0558
2.23868
2.45343
2.68753
2.92724
3.21347
3.4637
3.78089
4.04716
4.38782
4.66765
5.02355
5.32191
5.64302
5.97126
6.27773
6.6865
6.86664
7.618
7.23223
6.92039
6.59864
6.27483
5.9572
5.65044
5.35859
5.08545
4.83287
4.5999
4.38544
4.18752
4.00455
3.83453
3.67614
3.52783
3.38874
3.25782
3.13458
3.01833
2.90882
2.80555
2.70836
2.61682
2.53078
2.44983
2.37381
2.30231
2.23515
2.17198
2.11259
2.05669
2.00403
1.9544
1.90752
1.86323
1.8212
1.78139
1.7434
1.70732
1.67267
1.63967
1.60778
1.57731
1.54766
1.51927
1.4915
1.46487
1.43871
1.41365
1.38897
1.36538
1.34209
1.31994
1.29799
1.27725
1.25664
1.23724
1.21793
1.19975
1.18173
1.16461
1.14782
1.13171
1.116
1.10089
1.08622
1.07247
1.05844
1.04661
1.03362
1.02302
1.01165
1.0011
0.992917
0.983234
0.977409
0.969817
0.965208
0.960468
0.953841
0.957734
0.966468
0.98202
0.997302
1.01571
1.03549
1.05739
1.07849
1.10508
1.12995
1.15993
1.19296
1.22501
1.26324
1.30848
1.34248
1.40109
1.43685
1.55201
4.80538
4.66361
4.51367
4.35712
4.19679
4.03511
3.87451
3.71668
3.56363
3.41662
3.27716
3.14587
3.02358
2.91016
2.80571
2.70941
2.62082
2.53872
2.46243
2.39068
2.32294
2.25814
2.1961
2.1361
2.0783
2.02226
1.96839
1.91638
1.86674
1.81915
1.77412
1.73121
1.69087
1.65257
1.61666
1.58254
1.55053
1.51997
1.49119
1.46351
1.4373
1.41189
1.38767
1.364
1.34133
1.31902
1.29756
1.27635
1.25591
1.23564
1.21611
1.19673
1.17811
1.15962
1.14192
1.12436
1.10762
1.091
1.07524
1.05957
1.04477
1.03001
1.01609
1.00219
0.989001
0.975849
0.963223
0.950724
0.93853
0.926462
0.914639
0.902697
0.89125
0.879561
0.86817
0.857511
0.84705
0.83647
0.826684
0.816572
0.806485
0.796447
0.788387
0.780488
0.775133
0.769338
0.765689
0.760552
0.756914
0.752197
0.748214
0.745009
0.739727
0.732964
0.730499
0.730044
0.726097
0.72765
0.725639
0.725956
3.55726
3.47482
3.38593
3.29207
3.19588
3.09925
3.00393
2.91076
2.82066
2.7338
2.65057
2.57069
2.49432
2.42102
2.35091
2.28355
2.21916
2.15735
2.09844
2.04203
1.98848
1.93736
1.88898
1.84284
1.79923
1.75755
1.7181
1.68024
1.64428
1.6096
1.57655
1.5445
1.5139
1.48411
1.45564
1.42785
1.4013
1.37533
1.35055
1.32626
1.30313
1.28039
1.25877
1.23746
1.21724
1.19724
1.1783
1.1595
1.14173
1.12402
1.10734
1.09062
1.07492
1.05911
1.04431
1.02932
1.01534
1.00108
0.987849
0.974248
0.961695
0.948693
0.936756
0.924298
0.91293
0.90097
0.890125
0.878622
0.868264
0.857181
0.847281
0.836576
0.827111
0.816761
0.807703
0.79768
0.789039
0.779303
0.77106
0.761594
0.753746
0.744513
0.737085
0.728128
0.721127
0.712468
0.70587
0.697463
0.691241
0.683023
0.67717
0.669164
0.663668
0.655849
0.650747
0.643251
0.638291
0.630967
0.626034
0.617823
2.88141
2.82875
2.77175
2.71085
2.64754
2.58277
2.51767
2.45276
2.38885
2.32619
2.26539
2.20646
2.1498
2.09522
2.04298
1.99274
1.94471
1.89844
1.85415
1.81139
1.77041
1.73077
1.6928
1.65608
1.62098
1.58706
1.55473
1.5235
1.49378
1.46503
1.43768
1.41112
1.38581
1.3611
1.33749
1.31431
1.29212
1.27022
1.24924
1.22846
1.20857
1.1888
1.16993
1.15115
1.13328
1.11546
1.09858
1.0817
1.06579
1.04982
1.03483
1.01972
1.00561
0.991292
0.977981
0.964378
0.951794
0.938826
0.926897
0.914491
0.90315
0.891243
0.880437
0.868981
0.858666
0.847623
0.837766
0.827102
0.817681
0.807367
0.798361
0.788367
0.77976
0.770062
0.761834
0.75241
0.744541
0.735368
0.727841
0.718908
0.711717
0.703004
0.696159
0.687652
0.68117
0.672852
0.666725
0.658586
0.652775
0.644818
0.639284
0.631501
0.626271
0.618626
0.613752
0.606059
0.601842
0.594145
0.59077
0.579565
2.49096
2.45141
2.40892
2.36363
2.31662
2.26849
2.22005
2.17154
2.12352
2.07605
2.02957
1.98399
1.93967
1.89641
1.85455
1.81383
1.77455
1.73643
1.69977
1.66423
1.63012
1.59705
1.56534
1.53456
1.50506
1.47636
1.44885
1.42202
1.39629
1.37114
1.34703
1.32341
1.30078
1.27857
1.25732
1.2364
1.21642
1.1967
1.17789
1.15926
1.14153
1.1239
1.10714
1.09042
1.07456
1.05866
1.04362
1.02848
1.01419
0.99974
0.986157
0.97234
0.959415
0.946188
0.933879
0.921201
0.909472
0.897304
0.886121
0.874426
0.863758
0.852502
0.842321
0.831474
0.821753
0.811286
0.802
0.791884
0.783012
0.77322
0.764742
0.755248
0.747146
0.737929
0.730188
0.721225
0.713832
0.705103
0.698047
0.689534
0.682803
0.674489
0.668075
0.659941
0.653839
0.645867
0.640072
0.632245
0.62675
0.619059
0.613851
0.606282
0.60135
0.593914
0.589259
0.581856
0.577489
0.570365
0.565625
0.557585
2.25424
2.22147
2.18663
2.14967
2.11137
2.0721
2.03247
1.9926
1.95297
1.91359
1.87487
1.83673
1.79951
1.76302
1.7276
1.69299
1.6595
1.62683
1.59529
1.56454
1.53491
1.50602
1.47821
1.45109
1.425
1.39952
1.37503
1.35107
1.32804
1.30546
1.28376
1.26243
1.24194
1.22173
1.20235
1.18318
1.16482
1.14662
1.12921
1.11191
1.09541
1.07896
1.06332
1.04767
1.03283
1.01792
1.00383
0.989607
0.976208
0.96262
0.949864
0.936855
0.924698
0.912221
0.900621
0.888636
0.877559
0.86603
0.855445
0.844341
0.834225
0.823517
0.813846
0.803509
0.794263
0.784273
0.775431
0.765764
0.757307
0.747939
0.739851
0.73076
0.723024
0.714188
0.706793
0.698193
0.691125
0.682744
0.675993
0.667812
0.661369
0.653371
0.647228
0.639397
0.633549
0.625869
0.62031
0.612765
0.607491
0.600071
0.595073
0.587764
0.583029
0.575843
0.571379
0.564214
0.560026
0.553128
0.548581
0.540801
2.10225
2.07292
2.0421
2.00966
1.97623
1.94203
1.90757
1.87288
1.83837
1.80401
1.77015
1.73667
1.7039
1.67167
1.64027
1.60948
1.57959
1.55032
1.52199
1.49427
1.46748
1.44127
1.41598
1.39121
1.36733
1.34393
1.32139
1.29927
1.27797
1.25704
1.23691
1.21707
1.19802
1.17921
1.16116
1.14329
1.12617
1.10917
1.09291
1.07671
1.06125
1.04579
1.03108
1.01631
1.00229
0.988168
0.974796
0.96127
0.948511
0.935542
0.923361
0.910914
0.89928
0.88732
0.876203
0.864701
0.854074
0.842999
0.832837
0.822162
0.812442
0.802138
0.792837
0.782881
0.773978
0.764345
0.755823
0.746491
0.73833
0.729277
0.721463
0.712671
0.70519
0.696638
0.689479
0.681151
0.674303
0.666181
0.659636
0.651704
0.645454
0.637696
0.631736
0.624137
0.61846
0.611005
0.605607
0.598284
0.593158
0.585952
0.581098
0.573996
0.569419
0.562377
0.55807
0.551172
0.547187
0.540209
0.537158
0.527094
1.99903
1.9718
1.9434
1.91369
1.88322
1.85212
1.82082
1.78932
1.75798
1.72674
1.69593
1.66542
1.63552
1.60604
1.57729
1.54903
1.52155
1.49459
1.46844
1.4428
1.41798
1.39364
1.37011
1.34703
1.32474
1.30284
1.28172
1.26095
1.24092
1.22119
1.2022
1.18344
1.16541
1.14756
1.13042
1.11342
1.09712
1.08091
1.0654
1.04992
1.03514
1.02035
1.00626
0.992106
0.978659
0.965101
0.952259
0.939255
0.926984
0.914498
0.902765
0.890764
0.879543
0.867998
0.857261
0.846142
0.835867
0.82515
0.815316
0.804973
0.795558
0.785568
0.77655
0.766889
0.758251
0.748897
0.740622
0.731554
0.723625
0.714823
0.707225
0.698671
0.691392
0.683069
0.676099
0.667989
0.661318
0.653406
0.647026
0.639296
0.633201
0.625638
0.619822
0.61241
0.60687
0.599597
0.594325
0.587179
0.582172
0.575138
0.570394
0.563461
0.558987
0.552109
0.547895
0.541163
0.537262
0.530448
0.527467
0.51762
1.92524
1.89931
1.87243
1.84448
1.81593
1.78686
1.75767
1.72829
1.69909
1.66995
1.64121
1.61272
1.58478
1.5572
1.53027
1.50376
1.47796
1.4526
1.42798
1.4038
1.38036
1.35735
1.33507
1.31319
1.29203
1.27122
1.25113
1.23134
1.21226
1.19343
1.17529
1.15736
1.1401
1.12301
1.10658
1.09026
1.07461
1.05902
1.04409
1.02919
1.01494
1.00067
0.98706
0.973384
0.96038
0.94726
0.934826
0.922228
0.910334
0.898226
0.886843
0.875194
0.864297
0.85308
0.842644
0.831831
0.821836
0.811402
0.801827
0.79175
0.782573
0.772829
0.764032
0.7546
0.746167
0.737028
0.728941
0.720076
0.71232
0.703711
0.696275
0.687905
0.680776
0.67263
0.665799
0.65786
0.65132
0.643573
0.637315
0.629744
0.623764
0.616355
0.610647
0.603384
0.597945
0.590815
0.58564
0.578633
0.573714
0.566818
0.562155
0.555356
0.550959
0.544209
0.540073
0.533463
0.529634
0.522952
0.520027
0.510358
1.8704
1.84528
1.81939
1.79261
1.76538
1.73771
1.70997
1.68209
1.65438
1.62675
1.59949
1.57245
1.54594
1.51974
1.49415
1.46893
1.44437
1.42021
1.39674
1.37365
1.35126
1.32925
1.30793
1.28696
1.26667
1.24669
1.22739
1.20835
1.18998
1.17184
1.15434
1.13704
1.12037
1.10384
1.08795
1.07215
1.05698
1.04187
1.02739
1.01292
0.999078
0.985206
0.971973
0.958664
0.946004
0.933224
0.921106
0.908823
0.897219
0.885403
0.874289
0.862912
0.852263
0.841299
0.831095
0.820518
0.810738
0.800526
0.791151
0.78128
0.77229
0.762742
0.754119
0.744872
0.736599
0.727637
0.719699
0.711002
0.703385
0.694936
0.687629
0.679411
0.672405
0.664402
0.657687
0.649886
0.643451
0.635841
0.629677
0.622242
0.616347
0.609071
0.603441
0.596307
0.590941
0.583934
0.57883
0.571939
0.56709
0.560304
0.555707
0.549017
0.544678
0.538039
0.533953
0.527447
0.523683
0.517082
0.514194
0.504659
1.82906
1.80443
1.77919
1.75321
1.72688
1.7002
1.67349
1.64667
1.62005
1.5935
1.56732
1.54135
1.51587
1.49069
1.46608
1.44182
1.41818
1.3949
1.37228
1.35001
1.32841
1.30715
1.28655
1.26626
1.24663
1.22729
1.20859
1.19013
1.17231
1.15469
1.13771
1.12088
1.10468
1.0886
1.07313
1.05775
1.04297
1.02824
1.01411
0.999988
0.986479
0.972929
0.96
0.94699
0.934609
0.922107
0.910246
0.898221
0.886853
0.875277
0.86438
0.853227
0.842778
0.832023
0.822002
0.811621
0.802009
0.79198
0.782759
0.773062
0.764214
0.754828
0.746334
0.737243
0.729087
0.720274
0.712441
0.703889
0.696367
0.688058
0.680837
0.672753
0.665825
0.657952
0.651308
0.643633
0.637262
0.629775
0.623667
0.616357
0.610505
0.603356
0.597762
0.590753
0.58542
0.578535
0.573456
0.566695
0.561846
0.555221
0.550581
0.544084
0.53967
0.533244
0.529108
0.522597
0.518994
0.512448
0.509566
0.500174
1.79698
1.77266
1.74785
1.72242
1.69673
1.67076
1.6448
1.61876
1.59294
1.5672
1.54182
1.51665
1.49197
1.46756
1.44372
1.42019
1.39727
1.37469
1.35274
1.33112
1.31014
1.28948
1.26945
1.24972
1.23062
1.21178
1.19357
1.17558
1.15821
1.14102
1.12444
1.10801
1.09218
1.07646
1.06133
1.04627
1.03181
1.01738
1.00354
0.989689
0.976441
0.963145
0.950454
0.937678
0.925517
0.913229
0.90157
0.889745
0.878563
0.867173
0.856446
0.845467
0.835173
0.824582
0.814702
0.804477
0.794993
0.785113
0.776007
0.766452
0.757707
0.748458
0.740058
0.731096
0.723028
0.714336
0.706586
0.698148
0.690701
0.682504
0.675348
0.667377
0.660504
0.652743
0.646147
0.638578
0.632258
0.624861
0.618816
0.611575
0.605799
0.598704
0.593186
0.586234
0.580958
0.574151
0.569099
0.562436
0.557603
0.551065
0.546456
0.540031
0.535638
0.529321
0.525121
0.519028
0.514844
0.508808
0.504672
0.497806
1.77203
1.74788
1.72333
1.69827
1.67304
1.64758
1.62218
1.59673
1.57152
1.5464
1.52166
1.49712
1.47306
1.44926
1.42601
1.40307
1.38072
1.35868
1.33726
1.31616
1.29567
1.27548
1.25591
1.23662
1.21793
1.1995
1.18166
1.16404
1.14702
1.13016
1.1139
1.09777
1.08223
1.06678
1.05192
1.03711
1.02289
1.00868
0.995061
0.981422
0.968371
0.955265
0.942756
0.930153
0.918159
0.906031
0.894525
0.882847
0.871807
0.860553
0.849958
0.839105
0.828935
0.818461
0.808698
0.79858
0.789206
0.779425
0.770422
0.760959
0.752312
0.743147
0.73484
0.725957
0.717975
0.709358
0.701687
0.693321
0.685948
0.677819
0.670732
0.662826
0.656017
0.648319
0.641783
0.634275
0.628009
0.620675
0.614676
0.607501
0.601765
0.594737
0.589255
0.582368
0.577128
0.570381
0.565367
0.55876
0.553961
0.547483
0.542901
0.536537
0.53217
0.525907
0.521743
0.515698
0.511561
0.505552
0.501434
0.494638
1.75342
1.72929
1.70485
1.68001
1.65507
1.62996
1.60494
1.57991
1.55513
1.53046
1.50618
1.4821
1.45849
1.43515
1.41235
1.38983
1.3679
1.34627
1.32524
1.3045
1.28437
1.26451
1.24527
1.22627
1.20789
1.18972
1.17214
1.15476
1.13797
1.12133
1.10528
1.08934
1.07399
1.05871
1.04402
1.02937
1.0153
1.00124
0.98776
0.974252
0.961335
0.948351
0.935967
0.923477
0.9116
0.899577
0.888183
0.876602
0.865669
0.854505
0.844013
0.833244
0.823175
0.812778
0.803113
0.793066
0.783789
0.774073
0.765166
0.755763
0.74721
0.738102
0.729885
0.721056
0.713161
0.704596
0.69701
0.688692
0.681404
0.673317
0.666318
0.658446
0.651728
0.644058
0.637611
0.630134
0.623946
0.616654
0.610715
0.603597
0.597903
0.590943
0.585496
0.578671
0.573477
0.56677
0.561825
0.555234
0.550515
0.544052
0.539539
0.533197
0.528903
0.522629
0.518605
0.512241
0.508738
0.502334
0.49952
0.490346
1.73961
1.71543
1.69102
1.66628
1.64151
1.6166
1.59183
1.56706
1.54257
1.51819
1.4942
1.4704
1.44708
1.42401
1.40146
1.37919
1.35749
1.33607
1.31524
1.29468
1.27473
1.25503
1.23594
1.21708
1.19881
1.18076
1.16329
1.14601
1.12932
1.11278
1.09682
1.08097
1.06572
1.05054
1.03594
1.02139
1.00742
0.993462
0.980091
0.96669
0.953884
0.941003
0.928725
0.916335
0.904565
0.892643
0.881358
0.86988
0.859059
0.848
0.837623
0.826959
0.817004
0.806711
0.79716
0.787217
0.77805
0.768436
0.759636
0.750331
0.74188
0.732867
0.72475
0.71601
0.708214
0.69973
0.692241
0.683998
0.676807
0.668789
0.661884
0.654077
0.64745
0.639841
0.633483
0.62606
0.619964
0.612714
0.606874
0.599785
0.594198
0.587254
0.581918
0.575105
0.570017
0.563324
0.558479
0.551897
0.54729
0.540807
0.536436
0.530044
0.525915
0.51957
0.51568
0.509463
0.505861
0.499573
0.496819
0.487714
1.72864
1.70437
1.67994
1.65523
1.63052
1.6057
1.58103
1.55635
1.53194
1.50762
1.48367
1.45989
1.43656
1.41348
1.3909
1.3686
1.34685
1.32541
1.30454
1.28399
1.264
1.24425
1.2251
1.2062
1.18791
1.16986
1.15244
1.13522
1.11862
1.1022
1.08639
1.07072
1.05565
1.04068
1.0263
1.01197
0.99824
0.98452
0.97139
0.958231
0.945664
0.933037
0.921009
0.908877
0.897351
0.88568
0.874625
0.863384
0.852777
0.841938
0.831755
0.821295
0.811516
0.80141
0.792017
0.782245
0.77322
0.763762
0.75509
0.745929
0.737594
0.728711
0.720699
0.712079
0.704377
0.696005
0.6886
0.680462
0.673345
0.665426
0.658587
0.650873
0.644306
0.636782
0.630481
0.623137
0.617092
0.609918
0.604122
0.597108
0.591557
0.584687
0.579383
0.57264
0.567583
0.560952
0.556141
0.549615
0.545038
0.538613
0.534264
0.527932
0.523823
0.517532
0.513668
0.507488
0.503931
0.497664
0.494922
0.485882
1.7202
1.69555
1.67066
1.64562
1.62048
1.5951
1.56978
1.54439
1.51927
1.49425
1.46967
1.44533
1.42155
1.3981
1.3753
1.35286
1.33112
1.30975
1.28909
1.26876
1.24918
1.22997
1.21144
1.19323
1.17566
1.15835
1.14165
1.12514
1.10922
1.09345
1.07825
1.06315
1.04862
1.03414
1.02022
1.00632
0.992969
0.979607
0.966798
0.95394
0.941642
0.929258
0.917444
0.90551
0.894157
0.882647
0.871736
0.86063
0.85014
0.839416
0.829331
0.81897
0.809272
0.799255
0.789928
0.780236
0.771266
0.761881
0.753254
0.744158
0.735861
0.727039
0.719058
0.710495
0.702817
0.694499
0.687113
0.679027
0.671923
0.664055
0.657226
0.649562
0.643001
0.635527
0.629228
0.621932
0.615888
0.60876
0.602964
0.595994
0.590441
0.583615
0.578304
0.571608
0.566539
0.559961
0.555126
0.548665
0.544046
0.537709
0.53329
0.527069
0.522865
0.516708
0.512761
0.506527
0.503072
0.496801
0.494039
0.485065
1.69549
1.66956
1.64396
1.61827
1.59299
1.56796
1.54339
1.51908
1.49529
1.47178
1.44882
1.42617
1.40409
1.38232
1.36113
1.34024
1.31993
1.29991
1.28046
1.26128
1.24267
1.22429
1.20648
1.18886
1.17181
1.15493
1.1386
1.1224
1.10675
1.09121
1.07621
1.06128
1.04689
1.03254
1.01873
1.00493
0.991671
0.978387
0.965649
0.952854
0.940613
0.928281
0.916515
0.904624
0.893311
0.881839
0.87096
0.859887
0.849425
0.838731
0.828669
0.818335
0.808657
0.798664
0.789354
0.779685
0.770728
0.761365
0.752748
0.743674
0.735383
0.726583
0.718606
0.710063
0.702388
0.69409
0.686705
0.678638
0.671534
0.663686
0.656852
0.64921
0.642641
0.635191
0.628882
0.621609
0.615558
0.608445
0.602651
0.595684
0.590143
0.583313
0.578015
0.571319
0.566252
0.55969
0.554838
0.548408
0.543766
0.537454
0.533024
0.52682
0.522595
0.516493
0.512455
0.506566
0.50256
0.496712
0.492744
0.48608
2.93985
3.13688
3.23079
3.55733
3.75509
4.2403
4.96589
6.11701
8.98252
22.968
2.63342
2.75291
2.81848
3.01904
3.22001
3.47109
3.9139
4.54244
5.51364
12.6913
2.44983
2.51124
2.54857
2.6738
2.76758
3.00097
3.18624
3.67574
4.08033
7.45714
2.3344
2.36781
2.38682
2.45947
2.50636
2.65705
2.75911
3.07305
3.29146
4.90418
2.23855
2.25794
2.26824
2.31271
2.33875
2.42881
2.4875
2.67523
2.80242
3.61358
2.16559
2.1742
2.1789
2.20473
2.21964
2.27381
2.30778
2.41773
2.49149
2.91201
2.1087
2.10963
2.10969
2.12266
2.13011
2.16205
2.18148
2.24625
2.28861
2.51322
2.06477
2.05951
2.05653
2.06003
2.06222
2.07899
2.0891
2.12643
2.15016
2.27437
2.02992
2.02093
2.01382
2.01052
2.00979
2.01572
2.01994
2.03928
2.0519
2.12198
2.00191
1.99073
1.97987
1.97355
1.96713
1.96642
1.96638
1.97402
1.97936
2.01948
1.97926
1.96693
1.95281
1.94423
1.93386
1.92913
1.92338
1.92354
1.92407
1.94535
1.96199
1.9471
1.93224
1.92014
1.90847
1.89924
1.89083
1.88521
1.88046
1.89011
1.94784
1.93168
1.91511
1.90182
1.88719
1.87696
1.86388
1.85719
1.84485
1.84859
1.93614
1.91995
1.90104
1.88766
1.87007
1.85935
1.84285
1.83469
1.81706
1.81647
1.92677
1.91103
1.88988
1.87667
1.85662
1.84552
1.82642
1.81708
1.79813
1.7916
1.9197
1.90421
1.88158
1.86811
1.8467
1.83462
1.81433
1.80312
1.78408
1.77317
1.91476
1.89823
1.87582
1.86076
1.83984
1.82557
1.80589
1.79196
1.7734
1.75959
1.9113
1.893
1.87151
1.85449
1.83441
1.81811
1.79902
1.78305
1.76465
1.74886
1.90943
1.89003
1.86873
1.85055
1.83053
1.81305
1.79384
1.77671
1.75796
1.74099
1.90031
1.87851
1.8564
1.83595
1.81495
1.79544
1.77513
1.75622
1.7363
1.71776
3.01544
3.34503
3.84327
4.70884
6.25257
9.64123
20.2986
81.1071
549.705
845.96
3.01992
3.34094
3.88489
4.7417
6.4001
10.0756
22.0943
85.3126
576.303
874.274
3.01995
3.33023
3.8954
4.86512
6.58154
10.2896
22.0319
90.1884
611.935
866.462
3.0269
3.32751
3.90608
4.85288
6.80026
10.9419
24.9973
96.5401
632.56
877.625
3.02291
3.32136
3.95457
5.04662
6.95464
11.1468
24.5457
101.524
664.141
910.976
3.07219
3.36884
3.94698
5.027
7.36783
11.9551
29.3533
111.649
680.097
932.796
3.07505
3.40369
4.10684
5.3501
7.48896
12.1979
28.8022
119.641
712.226
941.128
3.16224
3.49124
4.13311
5.38589
8.29536
13.6493
35.1444
137.723
725.106
938.291
3.19057
3.57408
4.42582
5.88104
8.58845
14.0647
37.0686
165.194
730.844
922.548
3.34027
3.74327
4.52233
6.11943
10.0115
17.3719
49.402
205.861
721.279
910.481
3.10677
3.46746
3.93327
4.99487
6.1219
10.8435
18.8334
59.7906
337.93
785.122
3.10138
3.45158
3.90747
4.80636
5.93377
10.3658
16.2616
57.3255
298.999
768.675
3.12301
3.46188
3.85563
4.76804
5.65208
10.4208
15.9965
59.9836
308.113
762.727
3.10916
3.42736
3.89339
4.59451
5.95262
8.60692
18.3984
60.2427
324.05
783.443
3.09667
3.40291
3.91244
4.57059
5.94881
8.45026
18.0266
62.2842
348.816
792.337
3.08145
3.38071
3.90894
4.57281
5.92507
8.45747
18.1334
65.3759
374.799
800.499
3.06668
3.35908
3.89749
4.58046
5.92996
8.73552
18.1784
67.5919
407.674
810.58
3.04492
3.34146
3.87273
4.61359
5.994
8.9931
18.5579
69.7494
440.346
821.012
3.01777
3.32019
3.84938
4.62411
6.06977
9.22133
18.8972
73.1514
478.553
830.15