/*--------------------------------*- C++ -*----------------------------------*\
  =========                 |
  \\      /  F ield         | OpenFOAM: The Open Source CFD Toolbox
   \\    /   O peration     | Website:  https://openfoam.org
    \\  /    A nd           | Version:  8
     \\/     M anipulation  |
\*---------------------------------------------------------------------------*/
FoamFile
{
    version     2.0;
    format      ascii;
    class       volScalarField;
    location    "4.500037302";
    object      k;
}
// * * * * * * * * * * * * * * * * * * * * * * * * * * * * * * * * * * * * * //

dimensions      [0 2 -2 0 0 0 0];

internalField   nonuniform List<scalar> 
6800
(
7.91845
19.9167
21.777
21.3222
20.1489
17.5644
12.9727
8.45771
4.54192
2.82038
7.61311
18.9769
20.7687
20.1285
18.2173
13.5057
8.02122
4.20652
2.45961
1.7258
9.72684
19.0482
19.9345
18.8547
15.2451
8.63055
4.38319
2.51563
1.66008
1.16636
10.6408
18.3975
18.884
16.9833
10.6895
5.2938
2.9103
1.79921
1.18627
0.920174
11.6202
17.9759
18.1882
14.6241
7.0732
3.50082
1.91315
1.28144
0.958478
0.788092
12.1476
17.9576
17.5814
10.8256
4.87258
2.41629
1.5347
1.10858
0.846407
0.698224
12.795
18.6413
16.6214
8.02055
3.37901
1.88317
1.23554
0.920241
0.732387
0.641918
13.0927
19.0757
14.7356
5.58536
2.69259
1.60868
1.12341
0.859747
0.696585
0.61537
13.5556
19.9885
12.4739
4.83245
2.1999
1.35997
0.971517
0.762893
0.636528
0.575498
13.7552
20.9164
10.6877
3.60091
1.89669
1.28253
0.927157
0.736293
0.619878
0.564327
40.6924
58.99
61.4214
61.2827
61.8341
63.8095
66.6468
69.5939
71.734
72.7043
39.048
56.7205
59.9617
60.8412
62.7166
66.1545
70.6578
75.392
79.4894
81.8511
36.0889
52.8053
57.2055
59.9969
64.1693
69.8402
76.0797
81.3162
85.1248
87.1258
32.5756
48.4708
54.2739
59.8067
66.8068
74.4624
79.7178
81.9657
81.8782
79.072
28.8838
44.858
53.1781
61.9029
71.3668
76.8858
76.4335
73.0851
67.852
55.7249
25.664
43.285
55.376
66.7644
71.7207
69.176
62.4266
49.5463
41.5311
29.0779
22.9376
44.1386
60.4661
64.2292
58.7388
46.1834
35.0461
26.7508
23.5579
17.7832
21.6411
46.9855
51.9421
45.1161
33.4016
26.9919
23.2882
19.3113
17.4954
13.4534
18.5793
36.5055
31.7542
27.4785
24.1494
21.7221
19.3912
16.4085
14.439
9.98757
13.5364
23.809
23.9473
23.1154
21.4004
19.793
16.9458
13.3612
9.87924
5.36968
72.8735
70.4937
67.6726
64.9913
62.607
60.5191
58.6467
56.9844
55.5164
54.2009
53.0087
51.9169
50.9081
49.9706
49.0926
48.2675
47.491
46.7595
46.0698
45.4178
44.7989
44.2085
43.6422
43.0954
42.564
42.0436
41.5309
41.0226
40.5164
40.0108
39.5052
38.9998
38.4953
37.9925
37.4925
36.9965
36.5055
36.0207
35.5429
35.0737
34.6139
34.1654
33.7292
33.3066
32.8985
32.5056
32.1282
31.7664
31.4198
31.0878
30.7696
30.464
30.1701
29.8868
29.6128
29.3473
29.0892
28.8377
28.5923
28.3522
28.1172
27.8866
27.66
27.437
27.2172
27.0001
26.7854
26.5727
26.3618
26.1523
25.944
25.7366
25.5301
25.3241
25.1186
24.9135
24.7087
24.5042
24.3
24.096
23.8926
23.6897
23.4877
23.2869
23.0876
22.8904
22.6954
22.5032
22.3142
22.1284
21.9467
21.7681
21.595
21.423
21.2608
21.0921
20.9468
20.771
20.6595
20.442
82.5723
79.6789
76.2527
72.9846
70.0621
67.5129
65.274
63.3166
61.5748
60.0086
58.5852
57.2804
56.0756
54.9587
53.9131
52.9336
52.0159
51.1547
50.3432
49.5753
48.8448
48.146
47.4734
46.8217
46.1861
45.562
44.946
44.335
43.7274
43.1222
42.5196
41.9202
41.325
40.735
40.1512
39.5747
39.0065
38.4479
37.8996
37.3633
36.8397
36.3313
35.8385
35.3624
34.9035
34.4623
34.0388
33.6328
33.2436
32.8704
32.5123
32.1682
31.8367
31.5169
31.2075
30.9074
30.6157
30.3316
30.0545
29.7838
29.519
29.2593
29.0046
28.7541
28.5075
28.2644
28.0244
27.7871
27.5521
27.3191
27.088
26.8583
26.6299
26.4026
26.1764
25.9508
25.7261
25.502
25.2786
25.0559
24.834
24.613
24.3933
24.1752
23.9591
23.7453
23.5342
23.3262
23.1218
22.9209
22.7245
22.5315
22.3446
22.1587
21.9838
21.8017
21.6451
21.4554
21.336
21.1023
88.2335
85.7951
82.2237
78.8102
75.7606
73.1004
70.7652
68.708
66.8619
65.1841
63.6435
62.224
60.9114
59.6949
58.5766
57.5417
56.5782
55.6771
54.8282
54.0225
53.2521
52.5098
51.7893
51.0839
50.3886
49.6983
49.0104
48.3224
47.6342
46.9465
46.2612
45.5796
44.9034
44.2339
43.5725
42.9204
42.2786
41.6483
41.0306
40.4273
39.8395
39.2684
38.7154
38.182
37.6686
37.1757
36.703
36.2498
35.8151
35.3978
34.9968
34.6109
34.2387
33.8789
33.53
33.1909
32.8609
32.5391
32.2254
31.9186
31.6184
31.3244
31.0361
30.7529
30.4745
30.2
29.9293
29.6616
29.3968
29.1344
28.8742
28.6159
28.3596
28.1049
27.8518
27.6001
27.3497
27.1004
26.8521
26.6047
26.3583
26.1132
25.8696
25.628
25.3888
25.1524
24.9192
24.6895
24.4638
24.2418
24.0247
23.8108
23.6037
23.397
23.2027
22.9995
22.8255
22.6136
22.4811
22.2204
79.7671
78.8681
76.7507
74.4413
72.3526
70.4764
68.7595
67.1847
65.7243
64.3588
63.0791
61.8824
60.7646
59.724
58.7524
57.8505
57.0129
56.2328
55.4987
54.7996
54.127
53.4738
52.8326
52.1973
51.5629
50.9241
50.2799
49.6284
48.9716
48.3112
47.6491
46.9876
46.3289
45.6751
45.0274
44.3875
43.7564
43.1356
42.5267
41.9317
41.3524
40.791
40.2484
39.726
39.2238
38.7419
38.2797
37.8361
37.4101
37.0003
36.6056
36.2248
35.8565
35.4992
35.1515
34.8124
34.4815
34.1584
33.8425
33.5344
33.2334
32.9386
32.6491
32.364
32.0828
31.8046
31.5291
31.2557
30.9843
30.7145
30.4464
30.1796
29.9145
29.6508
29.3884
29.127
28.8664
28.6062
28.3464
28.087
27.8281
27.57
27.3132
27.058
26.8049
26.5541
26.3062
26.0615
25.8205
25.5829
25.3499
25.1195
24.8962
24.6725
24.4625
24.2418
24.0539
23.8235
23.6814
23.4014
54.633
53.9206
53.1581
52.6215
52.326
52.1587
51.9304
51.6458
51.3085
50.9229
50.5164
50.1118
49.7147
49.3372
48.9869
48.6752
48.4024
48.1623
47.9424
47.7284
47.5096
47.2793
47.0273
46.7515
46.448
46.1139
45.7534
45.3623
44.9538
44.5311
44.0979
43.6559
43.2078
42.756
42.3017
41.8464
41.3907
40.9365
40.4861
40.0422
39.6074
39.1851
38.7767
38.3837
38.0061
37.6438
37.296
36.9613
36.6386
36.3265
36.0244
35.7314
35.4461
35.1666
34.8917
34.6207
34.3539
34.0916
33.8338
33.5805
33.3305
33.0843
32.8399
32.5981
32.3578
32.1173
31.8767
31.6359
31.3949
31.1537
30.9126
30.6713
30.4306
30.1903
29.9513
29.7131
29.4744
29.2346
28.9932
28.7504
28.5066
28.2622
28.018
27.7748
27.5329
27.293
27.0555
26.8203
26.5878
26.3571
26.1295
25.9026
25.6813
25.4577
25.2474
25.0242
24.8351
24.601
24.458
24.1765
27.9937
27.3337
26.8454
26.7413
26.7192
26.8049
26.9625
27.2039
27.4641
27.7419
28.0774
28.4658
28.8916
29.3271
29.7675
30.2494
30.7668
31.2962
31.8335
32.322
32.7481
33.1165
33.4215
33.6758
33.8783
34.0285
34.1432
34.1988
34.2404
34.2571
34.2456
34.2069
34.148
34.0752
33.9874
33.8869
33.7732
33.6483
33.5155
33.378
33.2394
33.1031
32.9713
32.8445
32.7226
32.6052
32.4918
32.381
32.2729
32.1656
32.0595
31.954
31.8478
31.7389
31.6269
31.5118
31.3949
31.2768
31.1579
31.0391
30.9175
30.7969
30.6697
30.5437
30.4113
30.2735
30.1278
29.9787
29.8279
29.6744
29.515
29.3549
29.1911
29.0273
28.8607
28.6986
28.5326
28.361
28.1832
28.0001
27.8127
27.622
27.429
27.2348
27.0396
26.8441
26.6485
26.4527
26.2569
26.0596
25.8622
25.6624
25.4655
25.2642
25.0742
24.8711
24.6991
24.4873
24.3543
24.1128
17.1904
16.4929
15.8663
15.3185
14.8786
14.4777
14.1492
13.8974
13.6214
13.5444
13.5615
13.5218
13.6425
13.6978
13.7021
13.7668
13.9487
14.2036
14.5006
14.8365
15.2118
15.6011
16.0066
16.4048
16.8076
17.1962
17.5855
17.963
18.3286
18.6929
19.0499
19.4102
19.7661
20.1189
20.4597
20.7938
21.1106
21.4121
21.6961
21.97
22.2301
22.4756
22.7112
22.934
23.1509
23.3613
23.5668
23.766
23.9604
24.1452
24.3211
24.4868
24.6416
24.7851
24.9175
25.0394
25.1526
25.2581
25.3552
25.4465
25.5241
25.6021
25.6542
25.7218
25.7312
25.7564
25.7426
25.7385
25.7487
25.7507
25.7069
25.7006
25.6526
25.6398
25.5763
25.5731
25.5352
25.4805
25.4114
25.3324
25.2451
25.1514
25.0533
24.9504
24.8447
24.7393
24.6317
24.5202
24.403
24.2775
24.1475
24.0105
23.8709
23.7239
23.5811
23.4289
23.2953
23.1392
23.0254
22.8612
12.8895
12.1916
11.5279
10.9103
10.3239
9.77536
9.25601
8.77587
8.33404
7.94131
7.59021
7.2923
7.01513
6.7635
6.54811
6.37392
6.24076
6.14875
6.08567
6.03261
6.02116
6.00213
6.01683
6.05233
6.11047
6.18593
6.27169
6.37286
6.47397
6.59477
6.72721
6.88728
7.06733
7.2755
7.4965
7.73599
7.98197
8.24195
8.51037
8.78521
9.08952
9.41276
9.76937
10.1462
10.5583
10.9868
11.439
11.8988
12.3694
12.839
13.3043
13.7627
14.2085
14.6415
15.0596
15.4627
15.8514
16.2268
16.5805
16.918
17.2337
17.5364
17.8168
18.0877
18.3415
18.5748
18.7944
19.0009
19.1927
19.378
19.5479
19.7111
19.8599
20.0038
20.1362
20.2633
20.3701
20.469
20.5482
20.618
20.6749
20.7196
20.7602
20.788
20.8076
20.8283
20.8436
20.8471
20.8379
20.8049
20.7681
20.7215
20.6652
20.5996
20.529
20.4561
20.3793
20.3173
20.2312
20.1986
9.39692
8.7184
8.07972
7.49074
6.94453
6.4526
5.98833
5.55737
5.15793
4.79776
4.46995
4.17797
3.91654
3.68374
3.47852
3.28983
3.12601
2.96631
2.83017
2.71227
2.61002
2.52062
2.44085
2.37288
2.31013
2.25994
2.21124
2.17812
2.14049
2.1189
2.11567
2.10618
2.13369
2.13512
2.18773
2.18606
2.20482
2.24456
2.29754
2.35255
2.4366
2.5205
2.61442
2.71764
2.85492
3.00517
3.18977
3.38607
3.60573
3.84457
4.09786
4.37519
4.65738
4.97
5.28488
5.62351
5.96186
6.31696
6.6787
7.05752
7.4425
7.83716
8.23448
8.63543
9.03417
9.43228
9.82303
10.2093
10.5864
10.9572
11.3151
11.6677
12.0031
12.3317
12.6409
12.9436
13.213
13.4844
13.7201
13.9555
14.1711
14.3694
14.5715
14.7457
14.9205
15.0903
15.2416
15.3888
15.5175
15.61
15.7255
15.823
15.8855
15.9151
15.9966
16.0194
16.0339
16.11
16.1349
16.1692
5.0119
4.62753
4.24575
3.88736
3.55895
3.24299
2.96388
2.72056
2.50699
2.32021
2.15611
2.01248
1.8869
1.77723
1.68196
1.59867
1.52633
1.46238
1.40557
1.35483
1.30904
1.26762
1.22918
1.19429
1.16037
1.1299
1.09948
1.071
1.04198
1.01401
0.990077
0.965737
0.94755
0.929842
0.914532
0.898835
0.885358
0.874441
0.864157
0.859295
0.858726
0.859863
0.860315
0.863078
0.866561
0.88068
0.900184
0.918396
0.924113
0.934835
0.957569
0.99301
1.02735
1.08398
1.13819
1.20969
1.27761
1.35827
1.44499
1.54369
1.65583
1.78315
1.92294
2.0828
2.25465
2.44324
2.65346
2.8659
3.11246
3.35475
3.62082
3.89969
4.17708
4.47839
4.77175
5.07468
5.38474
5.69064
6.00852
6.31758
6.62752
6.93517
7.23649
7.52805
7.82594
8.09234
8.38933
8.62909
8.88889
9.09534
9.33355
9.51925
9.72392
9.87956
10.0306
10.1957
10.2989
10.4691
10.5817
10.7747
1.88253
1.84571
1.79074
1.72635
1.65609
1.58211
1.50726
1.43379
1.36314
1.29641
1.23405
1.17639
1.12334
1.07481
1.0305
0.990144
0.953373
0.919858
0.889168
0.861
0.834957
0.810844
0.788241
0.767114
0.747094
0.72832
0.710205
0.693352
0.677128
0.661988
0.647463
0.633831
0.62092
0.608689
0.59719
0.586402
0.576106
0.566631
0.557563
0.549163
0.541234
0.534038
0.527332
0.521208
0.515522
0.510343
0.50598
0.501765
0.498194
0.494766
0.49259
0.490509
0.489644
0.489893
0.491013
0.493614
0.497104
0.501141
0.507516
0.513429
0.523928
0.533312
0.549677
0.562258
0.586918
0.603899
0.639631
0.664293
0.712053
0.749384
0.80617
0.865292
0.931138
1.00849
1.09225
1.17565
1.2855
1.37458
1.50773
1.61496
1.75978
1.89501
2.04968
2.2059
2.38306
2.53859
2.74653
2.90205
3.11452
3.27677
3.48658
3.66073
3.85237
4.04034
4.19116
4.40159
4.52961
4.74354
4.89961
5.1643
1.23943
1.20011
1.15894
1.11755
1.0765
1.03612
0.996675
0.958463
0.921767
0.886842
0.853868
0.822957
0.794154
0.767425
0.742718
0.719907
0.698885
0.67949
0.661578
0.645
0.6296
0.615251
0.601832
0.589236
0.577302
0.56614
0.555653
0.545693
0.536146
0.526939
0.517996
0.509329
0.500856
0.492664
0.484679
0.476973
0.469504
0.462355
0.455386
0.448772
0.442294
0.436228
0.430242
0.424783
0.419382
0.414529
0.409577
0.405162
0.400625
0.396619
0.392606
0.38885
0.385398
0.38184
0.379045
0.375918
0.373251
0.370379
0.367202
0.364332
0.361075
0.35764
0.35533
0.351496
0.349235
0.347082
0.34826
0.347639
0.349107
0.350162
0.353617
0.356791
0.361256
0.365913
0.363622
0.36669
0.371021
0.377026
0.389972
0.402266
0.422069
0.443776
0.47044
0.503062
0.540627
0.580807
0.63222
0.681545
0.741051
0.80208
0.871557
0.943818
1.02409
1.09827
1.17126
1.25652
1.30775
1.40537
1.47415
1.59008
0.890581
0.869732
0.847819
0.825195
0.802387
0.779759
0.757658
0.736254
0.715753
0.69618
0.677623
0.659994
0.643311
0.627433
0.612359
0.59795
0.584218
0.571046
0.55847
0.546402
0.53489
0.523868
0.51338
0.503373
0.493879
0.484842
0.476268
0.468115
0.46037
0.453008
0.445993
0.439314
0.43292
0.426818
0.420942
0.415325
0.409888
0.404686
0.399633
0.394801
0.390095
0.385597
0.381202
0.377006
0.372888
0.368961
0.365091
0.361406
0.357758
0.354288
0.350842
0.347566
0.34431
0.34121
0.338134
0.335204
0.332291
0.329528
0.32676
0.32415
0.321519
0.319031
0.316547
0.314152
0.311817
0.309498
0.307345
0.305128
0.30315
0.301012
0.299256
0.297287
0.295702
0.293969
0.292555
0.290978
0.289819
0.288894
0.287782
0.287248
0.286175
0.286491
0.286851
0.288895
0.290897
0.294492
0.297363
0.302478
0.306364
0.312947
0.318557
0.325924
0.33441
0.342311
0.351461
0.362494
0.36918
0.382551
0.394143
0.413667
0.692953
0.68168
0.669505
0.656494
0.642958
0.629093
0.61515
0.601232
0.587545
0.574144
0.561202
0.548727
0.536847
0.525515
0.514813
0.504641
0.495042
0.485882
0.477188
0.46882
0.460812
0.453038
0.445556
0.43826
0.431229
0.424371
0.417781
0.411373
0.405246
0.399312
0.393669
0.388219
0.383056
0.378074
0.373362
0.368809
0.364501
0.360325
0.356368
0.352514
0.348856
0.345274
0.341866
0.338511
0.33531
0.332144
0.329119
0.326112
0.323238
0.32037
0.317632
0.314891
0.312279
0.30966
0.307167
0.304667
0.302294
0.299907
0.297654
0.29537
0.293234
0.291044
0.289012
0.286908
0.284959
0.28293
0.28106
0.279089
0.277288
0.275375
0.27363
0.271741
0.270037
0.268188
0.266438
0.264707
0.262953
0.261281
0.259687
0.258084
0.256435
0.254619
0.253016
0.25151
0.250166
0.249104
0.248017
0.247225
0.246539
0.24576
0.24532
0.244915
0.244704
0.244391
0.244391
0.244338
0.243995
0.243975
0.244028
0.244657
0.574143
0.567122
0.559382
0.55101
0.542245
0.533194
0.524051
0.514853
0.505754
0.496752
0.487969
0.479363
0.471032
0.46291
0.455085
0.447476
0.440172
0.433085
0.426307
0.41974
0.41348
0.40742
0.401656
0.39607
0.390761
0.385601
0.380692
0.375902
0.371339
0.366866
0.362601
0.358402
0.354399
0.350444
0.346677
0.342944
0.339395
0.335868
0.332522
0.329186
0.326031
0.322872
0.319891
0.316895
0.314076
0.311229
0.308558
0.305847
0.303311
0.300725
0.298313
0.295839
0.293543
0.29117
0.288981
0.286701
0.284609
0.282414
0.280415
0.278297
0.276385
0.274338
0.272507
0.270525
0.26877
0.266849
0.265163
0.263299
0.261678
0.259866
0.258305
0.25654
0.255034
0.253314
0.251858
0.250181
0.248774
0.247134
0.245779
0.244172
0.242869
0.241287
0.240034
0.238485
0.237287
0.235776
0.234635
0.23316
0.232077
0.230636
0.229612
0.228189
0.22725
0.225821
0.224975
0.223565
0.222734
0.221381
0.220782
0.218762
0.500733
0.496042
0.490789
0.485014
0.47889
0.472475
0.465916
0.459226
0.452534
0.445834
0.439242
0.432726
0.426388
0.420174
0.414173
0.408309
0.402669
0.39716
0.391868
0.386694
0.381728
0.376864
0.372201
0.367626
0.363247
0.358945
0.354832
0.350785
0.346922
0.343112
0.339482
0.33589
0.332473
0.329082
0.325861
0.322652
0.31961
0.316566
0.313687
0.310793
0.308063
0.305305
0.30271
0.300075
0.297606
0.295084
0.29273
0.290314
0.288069
0.28575
0.283606
0.281377
0.279326
0.277178
0.275214
0.273141
0.271257
0.26925
0.267442
0.265495
0.263757
0.261865
0.260193
0.258353
0.256744
0.254952
0.253403
0.251654
0.250162
0.248454
0.247016
0.245346
0.243958
0.242325
0.240984
0.239385
0.238087
0.23652
0.235264
0.233727
0.232512
0.231002
0.229827
0.228342
0.227211
0.225747
0.224667
0.223213
0.222194
0.220744
0.219783
0.218349
0.217419
0.21603
0.215121
0.213766
0.212931
0.211581
0.210646
0.209094
0.454752
0.451172
0.447183
0.44277
0.438083
0.433153
0.428106
0.422937
0.417754
0.412532
0.40737
0.402223
0.397183
0.392191
0.387332
0.382538
0.377894
0.373321
0.368909
0.364566
0.360388
0.356274
0.352324
0.348431
0.344698
0.34101
0.337479
0.333983
0.33064
0.327319
0.32415
0.320991
0.317982
0.314973
0.312112
0.30924
0.306517
0.303773
0.301177
0.298551
0.296074
0.293555
0.291189
0.288769
0.286505
0.284177
0.282008
0.279765
0.277683
0.275518
0.27352
0.271428
0.269509
0.267484
0.26564
0.26368
0.261908
0.260007
0.258303
0.256458
0.254819
0.253024
0.251447
0.2497
0.248182
0.246478
0.245015
0.24335
0.24194
0.240312
0.238952
0.237357
0.236044
0.23448
0.233213
0.231677
0.230454
0.228945
0.227765
0.226281
0.225142
0.22368
0.222583
0.22114
0.220086
0.218659
0.217648
0.216234
0.215266
0.213865
0.212937
0.21155
0.210659
0.209277
0.208439
0.207076
0.206276
0.204941
0.204043
0.202515
0.424993
0.421991
0.418681
0.415027
0.411153
0.407072
0.402888
0.398584
0.394256
0.389873
0.385526
0.38117
0.376893
0.372637
0.368486
0.364372
0.360378
0.356426
0.352602
0.348821
0.34517
0.341558
0.338077
0.334628
0.331311
0.328019
0.324858
0.321714
0.318702
0.315698
0.312826
0.309953
0.307214
0.304464
0.301848
0.299212
0.296712
0.294182
0.291789
0.289357
0.287064
0.284723
0.282523
0.280265
0.278152
0.275972
0.27394
0.271831
0.269876
0.267833
0.265949
0.263969
0.262154
0.260233
0.258484
0.256618
0.254934
0.253119
0.251496
0.249731
0.248167
0.246448
0.244941
0.243264
0.241811
0.240174
0.238773
0.237172
0.23582
0.234252
0.232947
0.23141
0.230149
0.22864
0.227423
0.22594
0.224764
0.223305
0.22217
0.220732
0.219638
0.218219
0.217166
0.215764
0.21475
0.213363
0.212389
0.211016
0.210081
0.20872
0.207823
0.206474
0.205616
0.204267
0.203461
0.202131
0.201358
0.200055
0.199193
0.197701
0.404925
0.402215
0.399272
0.396047
0.392647
0.389071
0.385414
0.381649
0.377864
0.374021
0.370205
0.366367
0.362589
0.358813
0.355119
0.351441
0.347861
0.344303
0.340852
0.337426
0.334113
0.330823
0.327649
0.324496
0.32146
0.318437
0.315534
0.312637
0.309859
0.307081
0.304421
0.301753
0.299205
0.296639
0.294196
0.291727
0.289381
0.287002
0.28475
0.282455
0.280289
0.278073
0.27599
0.273848
0.271843
0.26977
0.267839
0.265831
0.263969
0.262021
0.260226
0.258336
0.256604
0.254766
0.253095
0.251307
0.249694
0.247953
0.246395
0.244698
0.243194
0.241536
0.240083
0.238463
0.237059
0.235475
0.234118
0.232566
0.231254
0.229732
0.228464
0.22697
0.225744
0.224276
0.223092
0.221648
0.220504
0.219081
0.217977
0.216575
0.215509
0.214126
0.213098
0.211732
0.210741
0.209391
0.208437
0.2071
0.206184
0.204857
0.203982
0.202659
0.201827
0.200512
0.199709
0.198403
0.197666
0.196347
0.19577
0.193838
0.39079
0.38825
0.385521
0.382553
0.379444
0.376181
0.372853
0.369425
0.365982
0.36248
0.359004
0.3555
0.35205
0.348593
0.34521
0.341832
0.338541
0.335262
0.33208
0.328911
0.325843
0.322789
0.319838
0.316898
0.314064
0.311236
0.308515
0.305795
0.303183
0.300564
0.298056
0.295534
0.293123
0.290692
0.288373
0.286027
0.283796
0.281529
0.27938
0.277188
0.275117
0.272995
0.270999
0.268943
0.267017
0.265024
0.263164
0.26123
0.259434
0.257556
0.255821
0.253996
0.252319
0.250543
0.248923
0.247192
0.245628
0.24394
0.242428
0.24078
0.239318
0.237707
0.236295
0.234719
0.233353
0.23181
0.230489
0.228976
0.227697
0.226214
0.224976
0.22352
0.222321
0.22089
0.219731
0.218322
0.217202
0.215814
0.214731
0.213362
0.212317
0.210966
0.209957
0.208622
0.207649
0.206329
0.205392
0.204085
0.203185
0.201888
0.201026
0.199733
0.198915
0.197626
0.196839
0.195557
0.194835
0.193543
0.192974
0.191076
0.380443
0.377999
0.375402
0.372597
0.369678
0.366623
0.363516
0.360318
0.357111
0.353847
0.350608
0.347338
0.344118
0.340884
0.33772
0.334551
0.331465
0.328381
0.325388
0.322398
0.319506
0.316617
0.313828
0.31104
0.308354
0.305667
0.303082
0.300491
0.298004
0.295505
0.293111
0.290698
0.288393
0.286063
0.283842
0.281589
0.279448
0.277267
0.275201
0.27309
0.271095
0.269048
0.267122
0.265136
0.263274
0.261346
0.259545
0.257671
0.25593
0.254107
0.252422
0.250649
0.249018
0.24729
0.245712
0.244026
0.2425
0.240854
0.239377
0.237768
0.23634
0.234766
0.233384
0.231842
0.230505
0.228994
0.227698
0.226217
0.224961
0.223509
0.222291
0.220866
0.219685
0.218285
0.21714
0.215764
0.214655
0.2133
0.212226
0.210891
0.209852
0.208535
0.207531
0.20623
0.205261
0.203975
0.203039
0.20177
0.200862
0.199611
0.198736
0.197486
0.196669
0.195393
0.194637
0.193374
0.192607
0.191392
0.190847
0.188984
0.372698
0.370311
0.367794
0.365096
0.362305
0.359391
0.356437
0.353399
0.350356
0.347259
0.344188
0.341084
0.33803
0.334959
0.331954
0.328942
0.326007
0.32307
0.320219
0.317367
0.314607
0.311845
0.309179
0.306508
0.303936
0.301354
0.298875
0.296381
0.29399
0.291579
0.289274
0.286943
0.284719
0.282463
0.280316
0.278131
0.276058
0.273941
0.271938
0.269883
0.267947
0.265953
0.26408
0.262142
0.260331
0.258447
0.256694
0.254861
0.253163
0.251379
0.249735
0.247997
0.246404
0.244709
0.243167
0.241513
0.24002
0.238403
0.236958
0.235377
0.233977
0.23243
0.231075
0.229558
0.228246
0.226759
0.225488
0.224029
0.222797
0.221364
0.22017
0.218762
0.217604
0.216221
0.215098
0.213739
0.212648
0.211313
0.210253
0.20894
0.207911
0.206619
0.205621
0.204347
0.203382
0.202121
0.201195
0.199937
0.199057
0.197797
0.196961
0.195712
0.194895
0.193676
0.19287
0.191672
0.190925
0.189724
0.188908
0.187546
0.36682
0.36446
0.36199
0.35936
0.356655
0.353839
0.350992
0.348068
0.345143
0.342167
0.339218
0.336236
0.333303
0.330351
0.327463
0.324564
0.321741
0.318911
0.316164
0.313413
0.31075
0.308082
0.305506
0.302922
0.300434
0.297933
0.295531
0.293112
0.290793
0.288452
0.286213
0.283946
0.281785
0.279588
0.2775
0.27537
0.273352
0.271284
0.269332
0.267324
0.265436
0.263484
0.261656
0.259758
0.257988
0.25614
0.254426
0.252626
0.250965
0.249212
0.247602
0.245892
0.244332
0.242663
0.241152
0.239522
0.238057
0.236463
0.235044
0.233485
0.23211
0.230583
0.22925
0.227753
0.226462
0.224992
0.223741
0.222299
0.221086
0.219668
0.218493
0.217099
0.21596
0.214588
0.213484
0.212134
0.211064
0.209734
0.208699
0.207386
0.206385
0.205089
0.204122
0.20284
0.201908
0.200638
0.199742
0.198482
0.197621
0.19637
0.195544
0.194303
0.193509
0.192271
0.191521
0.1903
0.189581
0.188385
0.187579
0.186217
0.362269
0.35992
0.357476
0.35489
0.352241
0.349494
0.346721
0.343877
0.341036
0.338147
0.335287
0.332395
0.329551
0.326688
0.323887
0.321076
0.318336
0.31559
0.312924
0.310252
0.307664
0.305071
0.302565
0.300052
0.297629
0.295194
0.292853
0.290495
0.288232
0.285948
0.283761
0.281547
0.279434
0.277286
0.275242
0.273157
0.271179
0.269154
0.267239
0.26527
0.263416
0.261501
0.259704
0.25784
0.256099
0.254283
0.252595
0.250825
0.249189
0.247463
0.245877
0.244192
0.242654
0.241009
0.239518
0.237909
0.236464
0.23489
0.23349
0.231948
0.230592
0.229081
0.227766
0.226284
0.225009
0.223554
0.222318
0.220889
0.219691
0.218287
0.217124
0.215744
0.214616
0.213257
0.212165
0.210827
0.209768
0.208449
0.207425
0.206123
0.205132
0.203846
0.202889
0.201616
0.200695
0.199433
0.198547
0.197296
0.196443
0.195203
0.194382
0.193151
0.192367
0.191132
0.190398
0.189177
0.188471
0.187281
0.186491
0.185126
0.358674
0.356323
0.353892
0.351333
0.348725
0.346025
0.343307
0.340523
0.337747
0.334924
0.332133
0.329311
0.326537
0.323744
0.321014
0.31827
0.315598
0.312918
0.310316
0.307706
0.30518
0.302646
0.300198
0.297739
0.29537
0.292987
0.290695
0.288385
0.286168
0.283928
0.281783
0.279611
0.277535
0.275425
0.273416
0.271366
0.269419
0.267427
0.26554
0.263601
0.261773
0.259885
0.258112
0.256273
0.254553
0.252761
0.251093
0.249346
0.247727
0.246022
0.244451
0.242788
0.241264
0.239638
0.23816
0.236571
0.235137
0.233581
0.232192
0.230667
0.22932
0.227825
0.226519
0.225052
0.223786
0.222345
0.221117
0.219702
0.21851
0.21712
0.215962
0.214596
0.213472
0.212129
0.211037
0.209716
0.208657
0.207356
0.206329
0.205046
0.204051
0.202785
0.201823
0.200571
0.199643
0.198404
0.197507
0.196285
0.195414
0.194207
0.193368
0.192163
0.191378
0.190148
0.189422
0.188203
0.187465
0.186295
0.18577
0.183975
0.355908
0.353545
0.351116
0.348571
0.345988
0.343321
0.340643
0.337902
0.335174
0.332401
0.329663
0.326894
0.324175
0.321436
0.318759
0.316068
0.313449
0.310817
0.308265
0.305701
0.303221
0.300728
0.298322
0.295901
0.293569
0.29122
0.288961
0.286681
0.284494
0.282281
0.280163
0.278013
0.275961
0.273873
0.271884
0.269854
0.267926
0.265951
0.264082
0.262159
0.260346
0.258473
0.256715
0.25489
0.253184
0.251405
0.249749
0.248015
0.246408
0.244715
0.243156
0.241504
0.239991
0.238376
0.236909
0.23533
0.233906
0.232361
0.230981
0.229468
0.228129
0.226645
0.225347
0.223891
0.222632
0.221203
0.219982
0.218577
0.217393
0.216012
0.214864
0.213506
0.212391
0.211056
0.209973
0.20866
0.207608
0.206317
0.205295
0.204025
0.203032
0.201781
0.200818
0.199584
0.198653
0.197431
0.196536
0.195318
0.194468
0.193247
0.192439
0.191227
0.190438
0.189256
0.188476
0.187315
0.186592
0.185428
0.184637
0.183318
0.353867
0.351485
0.349048
0.346505
0.343933
0.341283
0.338628
0.335914
0.333216
0.330474
0.327767
0.32503
0.322342
0.319632
0.316984
0.314318
0.311723
0.309114
0.306582
0.304035
0.301572
0.299093
0.2967
0.294289
0.291968
0.289625
0.287375
0.285099
0.282919
0.28071
0.278598
0.276453
0.274408
0.272324
0.270344
0.268319
0.266401
0.264433
0.262574
0.26066
0.25886
0.256996
0.255249
0.253433
0.25174
0.24997
0.248329
0.246604
0.245013
0.243332
0.241788
0.240148
0.238651
0.23705
0.235599
0.234034
0.232626
0.231096
0.229731
0.228232
0.226908
0.225439
0.224155
0.222714
0.221468
0.220053
0.218845
0.217455
0.216283
0.214916
0.213779
0.212434
0.211332
0.210008
0.208939
0.207634
0.206599
0.205313
0.204311
0.203041
0.202072
0.200818
0.199881
0.19864
0.197738
0.196508
0.19564
0.194419
0.193585
0.192373
0.191571
0.19037
0.189599
0.188399
0.187673
0.186487
0.185791
0.18463
0.183849
0.182527
0.352258
0.349856
0.347405
0.344857
0.342285
0.339638
0.336986
0.334274
0.331576
0.328832
0.326119
0.323371
0.32067
0.317944
0.315276
0.312592
0.309975
0.307347
0.304795
0.302233
0.29975
0.297246
0.29483
0.292397
0.290057
0.2877
0.285442
0.283162
0.280985
0.278782
0.276684
0.274554
0.272531
0.270471
0.268519
0.266523
0.264637
0.262701
0.260878
0.258997
0.257234
0.255406
0.2537
0.251922
0.25027
0.248538
0.246936
0.245248
0.243694
0.242047
0.240539
0.23893
0.237467
0.235894
0.234473
0.232934
0.231554
0.230047
0.228708
0.227231
0.22593
0.224481
0.223218
0.221795
0.220569
0.219171
0.217981
0.216606
0.215451
0.214098
0.212977
0.211645
0.210557
0.209245
0.20819
0.206896
0.205874
0.204598
0.203608
0.202347
0.20139
0.200144
0.199219
0.197986
0.197093
0.195871
0.195012
0.1938
0.192974
0.191771
0.190976
0.189783
0.189019
0.187826
0.187107
0.185929
0.185238
0.184084
0.183309
0.181996
0.351025
0.34856
0.346035
0.343431
0.340785
0.338042
0.335282
0.332448
0.329628
0.32676
0.323933
0.321079
0.318289
0.315486
0.312764
0.310037
0.307402
0.304764
0.302226
0.299683
0.297248
0.294816
0.292488
0.290155
0.287923
0.285677
0.28353
0.281362
0.279293
0.277193
0.275194
0.273158
0.271223
0.269244
0.267368
0.265443
0.263623
0.261746
0.25998
0.258149
0.256433
0.254647
0.252979
0.251234
0.249613
0.247909
0.246333
0.244667
0.243136
0.241507
0.240018
0.238424
0.236977
0.235418
0.234011
0.232483
0.231117
0.229619
0.228291
0.226822
0.225531
0.224089
0.222836
0.221419
0.220201
0.218808
0.217626
0.216256
0.215108
0.213759
0.212645
0.211316
0.210235
0.208926
0.207877
0.206586
0.20557
0.204296
0.203311
0.202053
0.201101
0.199857
0.198937
0.197706
0.196818
0.195598
0.194743
0.193533
0.192711
0.191509
0.190719
0.189527
0.188767
0.187576
0.18686
0.185684
0.184995
0.183844
0.183072
0.181762
0.347428
0.344759
0.342108
0.339384
0.336692
0.333974
0.331299
0.328602
0.325957
0.323295
0.320694
0.31808
0.315534
0.312976
0.310492
0.307997
0.305579
0.303148
0.300798
0.298433
0.296151
0.29385
0.291636
0.289398
0.287249
0.285073
0.282987
0.280869
0.278844
0.276783
0.274816
0.272808
0.270898
0.26894
0.267084
0.265175
0.26337
0.261507
0.259752
0.257933
0.256226
0.254449
0.252789
0.251052
0.249438
0.24774
0.24617
0.24451
0.242983
0.241359
0.239875
0.238285
0.236843
0.235286
0.233884
0.232359
0.230996
0.229501
0.228176
0.226709
0.225422
0.223981
0.222731
0.221315
0.220101
0.218709
0.217529
0.216159
0.215014
0.213666
0.212554
0.211226
0.210147
0.208838
0.207792
0.206501
0.205487
0.204213
0.20323
0.201973
0.201021
0.199778
0.198859
0.197628
0.196742
0.195521
0.194669
0.193458
0.192638
0.191435
0.190647
0.189454
0.188697
0.187504
0.186792
0.185615
0.184932
0.183782
0.183018
0.181699
0.505912
0.520769
0.541356
0.574013
0.60579
0.656626
0.734985
0.853355
1.05527
1.89462
0.462878
0.479361
0.488311
0.516707
0.534687
0.577647
0.616
0.700355
0.782946
1.26767
0.440196
0.449752
0.4549
0.473255
0.484211
0.517041
0.538397
0.599218
0.642365
0.905145
0.425199
0.431022
0.434127
0.445151
0.451718
0.472893
0.486323
0.526958
0.553466
0.699091
0.413317
0.417203
0.419209
0.42635
0.430372
0.443487
0.451732
0.477162
0.493817
0.577003
0.403644
0.406118
0.407439
0.412263
0.414899
0.423387
0.428496
0.444158
0.45436
0.502653
0.396062
0.397441
0.398143
0.401246
0.402929
0.408539
0.411784
0.421678
0.427909
0.456216
0.390225
0.39077
0.391014
0.392817
0.393774
0.39734
0.399352
0.405649
0.409465
0.426236
0.38537
0.385298
0.385259
0.386116
0.386577
0.388688
0.38987
0.393789
0.396104
0.406218
0.381565
0.381009
0.380624
0.380748
0.380833
0.381855
0.382448
0.384714
0.386051
0.392257
0.378538
0.377638
0.376924
0.376489
0.37628
0.376467
0.376617
0.377666
0.378317
0.382085
0.376059
0.37498
0.373955
0.373231
0.372582
0.372224
0.372036
0.372186
0.372335
0.374455
0.374109
0.372733
0.371618
0.370529
0.369705
0.368901
0.368343
0.367897
0.367638
0.368586
0.372479
0.371
0.36964
0.368458
0.367262
0.366373
0.365289
0.364714
0.363678
0.364054
0.371157
0.36969
0.368046
0.366856
0.36532
0.36437
0.362906
0.362166
0.360547
0.360483
0.370111
0.368708
0.366804
0.365639
0.363825
0.362832
0.361079
0.360205
0.358435
0.35775
0.369291
0.367898
0.365852
0.364636
0.362705
0.361584
0.359734
0.358642
0.356863
0.355747
0.368723
0.36717
0.365165
0.363743
0.361868
0.360499
0.358704
0.35733
0.355581
0.354176
0.368399
0.36671
0.364721
0.363143
0.361275
0.35974
0.357931
0.35639
0.354596
0.353024
0.367034
0.365016
0.362912
0.361013
0.359006
0.357178
0.355213
0.353413
0.35145
0.349648
0.496471
0.538581
0.594407
0.691567
0.841333
1.14091
1.87503
4.70105
20.7032
13.0046
0.497094
0.53959
0.596895
0.690408
0.851504
1.1438
1.95381
4.7876
21.3079
13.0838
0.49939
0.538806
0.604318
0.701633
0.889131
1.21615
1.99664
5.07046
21.8213
13.0915
0.499045
0.53678
0.603555
0.699747
0.886777
1.2114
2.13568