/*--------------------------------*- C++ -*----------------------------------*\
  =========                 |
  \\      /  F ield         | OpenFOAM: The Open Source CFD Toolbox
   \\    /   O peration     | Website:  https://openfoam.org
    \\  /    A nd           | Version:  8
     \\/     M anipulation  |
\*---------------------------------------------------------------------------*/
FoamFile
{
    version     2.0;
    format      ascii;
    class       volScalarField;
    location    "4.500037302";
    object      nut;
}
// * * * * * * * * * * * * * * * * * * * * * * * * * * * * * * * * * * * * * //

dimensions      [0 2 -1 0 0 0 0];

internalField   nonuniform List<scalar> 
6800
(
0.0112767
0.0303815
0.0381274
0.0428612
0.0497664
0.05539
0.0493084
0.0421637
0.0243416
0.0177564
0.0107994
0.0305537
0.039233
0.0443577
0.054553
0.0519075
0.0379602
0.021748
0.0155296
0.0140501
0.0137657
0.0336928
0.0401436
0.0488806
0.0556864
0.0372574
0.0208725
0.01535
0.0137551
0.0118901
0.0150197
0.0355405
0.0418658
0.0518567
0.0432908
0.0249192
0.0189433
0.0153739
0.0121442
0.0110898
0.016351
0.0364986
0.0434491
0.0532294
0.0310976
0.0205514
0.0138821
0.0118611
0.0108425
0.0100838
0.0170309
0.0383231
0.0475746
0.0451979
0.0253046
0.0154883
0.0137451
0.012791
0.0110585
0.0096326
0.0178889
0.0420938
0.0526482
0.0330848
0.0172026
0.0146098
0.0124405
0.0105284
0.00929356
0.00878757
0.0182689
0.0454152
0.0501635
0.0243527
0.0186125
0.0148819
0.0121878
0.0109951
0.00981966
0.00901458
0.0189129
0.0500107
0.0445719
0.0240104
0.0151893
0.0126268
0.0112039
0.00979333
0.0086438
0.00816683
0.0191598
0.0550105
0.0402765
0.0193861
0.0169218
0.0139896
0.0110383
0.00977115
0.0089345
0.00842078
0.0580371
0.248796
0.34396
0.370453
0.378363
0.379508
0.383418
0.389324
0.395824
0.398751
0.0556874
0.239714
0.33258
0.359756
0.36451
0.362412
0.362633
0.365049
0.36797
0.37067
0.0514604
0.220515
0.309203
0.338328
0.339916
0.335438
0.332538
0.329871
0.326393
0.32697
0.0464432
0.198531
0.281401
0.30863
0.307222
0.301377
0.292003
0.285396
0.273366
0.258811
0.0411747
0.176669
0.252321
0.268642
0.262011
0.250361
0.235592
0.219761
0.194539
0.157381
0.0365837
0.157401
0.213599
0.21423
0.199463
0.184623
0.159097
0.119165
0.0981475
0.0722228
0.0327027
0.132992
0.164501
0.147486
0.129213
0.0930122
0.0711812
0.0610415
0.0601773
0.0520675
0.0308407
0.104619
0.0941273
0.0779934
0.0581029
0.0547812
0.0547384
0.0520079
0.0520973
0.0467938
0.0265281
0.0549263
0.0460157
0.0471606
0.0479088
0.0507343
0.0523432
0.0504786
0.0492575
0.0415138
0.019426
0.0322419
0.0376119
0.0432821
0.0468338
0.0516397
0.0524086
0.0475947
0.0449122
0.0286568
0.400812
0.401965
0.39946
0.396142
0.392912
0.390035
0.38751
0.385365
0.383587
0.382105
0.380851
0.379753
0.378771
0.377907
0.377123
0.376424
0.375823
0.375317
0.374913
0.374609
0.374395
0.374254
0.374172
0.374125
0.374096
0.374062
0.374006
0.373906
0.373753
0.373532
0.373248
0.3729
0.372497
0.37204
0.371538
0.370994
0.370414
0.369805
0.369172
0.368527
0.367875
0.367236
0.366621
0.366045
0.365515
0.365044
0.364633
0.364289
0.36401
0.363796
0.363642
0.363546
0.363501
0.363504
0.363546
0.363623
0.363729
0.363859
0.364012
0.364184
0.364373
0.364576
0.364791
0.365012
0.365239
0.365465
0.365689
0.365903
0.366108
0.366297
0.366469
0.366619
0.366746
0.366845
0.366918
0.366957
0.366965
0.366935
0.36687
0.366765
0.366622
0.366442
0.366225
0.365978
0.3657
0.365404
0.365084
0.364763
0.364421
0.364102
0.36375
0.36346
0.363105
0.362874
0.362514
0.362359
0.362013
0.361925
0.361554
0.361927
0.37331
0.374555
0.37323
0.370903
0.368552
0.366494
0.364769
0.363396
0.362301
0.361437
0.360749
0.360148
0.359613
0.359199
0.35883
0.358534
0.358343
0.358263
0.358282
0.358389
0.358571
0.358807
0.359083
0.359374
0.359663
0.359924
0.360145
0.360308
0.360404
0.360424
0.360383
0.360284
0.360127
0.359914
0.359649
0.359334
0.358975
0.35858
0.358154
0.357711
0.357257
0.356826
0.356418
0.356047
0.355718
0.355442
0.35522
0.355058
0.354954
0.354909
0.354918
0.35498
0.355088
0.355239
0.355425
0.355641
0.355881
0.356143
0.356425
0.356725
0.357037
0.35736
0.357692
0.358028
0.358367
0.358702
0.359033
0.359352
0.35966
0.35995
0.360222
0.360469
0.360693
0.360886
0.36105
0.361177
0.36127
0.361321
0.361334
0.361305
0.361234
0.361123
0.360973
0.360791
0.360575
0.36034
0.360077
0.359813
0.359522
0.359256
0.358951
0.358711
0.358399
0.358219
0.357898
0.357798
0.357489
0.35746
0.357133
0.357574
0.333326
0.332496
0.330712
0.328409
0.326355
0.324884
0.323907
0.323353
0.32307
0.32298
0.323002
0.323174
0.323484
0.323914
0.324572
0.325396
0.326344
0.3274
0.328531
0.329713
0.330923
0.332131
0.333316
0.334449
0.335512
0.336478
0.337343
0.33809
0.338723
0.339252
0.339729
0.340132
0.340458
0.340706
0.34088
0.340986
0.341026
0.341012
0.340951
0.34086
0.340753
0.340637
0.340529
0.340451
0.340408
0.340415
0.34047
0.340578
0.340735
0.340942
0.341195
0.341494
0.341831
0.342205
0.342601
0.34301
0.343433
0.343872
0.344331
0.344799
0.345276
0.345762
0.346259
0.346759
0.34726
0.347757
0.348245
0.348717
0.349174
0.34961
0.350025
0.350412
0.350774
0.351105
0.351406
0.351671
0.3519
0.352086
0.352228
0.352323
0.35237
0.352373
0.352334
0.352259
0.352153
0.352027
0.351873
0.351719
0.351533
0.351372
0.351161
0.351016
0.350782
0.350685
0.350425
0.3504
0.350138
0.350185
0.349897
0.350428
0.262694
0.264932
0.268077
0.26992
0.271882
0.274022
0.276084
0.27804
0.279854
0.281531
0.283107
0.284634
0.286152
0.287706
0.28928
0.290947
0.292716
0.294586
0.296524
0.298482
0.300425
0.302318
0.304136
0.305854
0.307456
0.308917
0.310241
0.311413
0.312461
0.313365
0.314102
0.314713
0.315226
0.315656
0.316013
0.316305
0.316536
0.316718
0.316863
0.31699
0.317113
0.317254
0.317421
0.31763
0.317883
0.318188
0.318543
0.318951
0.319408
0.319913
0.320464
0.321058
0.321689
0.322348
0.323032
0.323742
0.324472
0.325227
0.325996
0.326801
0.327634
0.328487
0.329346
0.330204
0.331053
0.331885
0.332693
0.333478
0.334243
0.334978
0.335682
0.336348
0.336983
0.337582
0.338145
0.338663
0.339136
0.339555
0.339919
0.340225
0.340476
0.340674
0.340821
0.340929
0.340992
0.341027
0.34102
0.341006
0.340946
0.340905
0.340796
0.340751
0.340595
0.340584
0.340387
0.340441
0.340232
0.340359
0.340146
0.340806
0.156786
0.160706
0.164927
0.169955
0.175799
0.182037
0.187658
0.192758
0.197372
0.201517
0.205361
0.209027
0.212549
0.216005
0.21942
0.222951
0.226613
0.230378
0.234224
0.23803
0.2417
0.245193
0.248473
0.25154
0.254386
0.256993
0.2594
0.261562
0.263582
0.265493
0.267313
0.269024
0.270636
0.272156
0.273583
0.27492
0.276161
0.277316
0.278402
0.279439
0.280451
0.281466
0.282498
0.283557
0.284645
0.285768
0.286918
0.288096
0.289301
0.290526
0.291774
0.293043
0.294322
0.295597
0.296862
0.298117
0.299369
0.300626
0.301893
0.303169
0.304442
0.305724
0.306985
0.308244
0.309483
0.310675
0.311826
0.312924
0.313965
0.314956
0.315905
0.316807
0.31768
0.31852
0.319346
0.320147
0.320901
0.321595
0.32222
0.322775
0.323265
0.323695
0.324073
0.324414
0.324714
0.324996
0.325242
0.325487
0.325675
0.325875
0.325978
0.326135
0.326141
0.326289
0.326211
0.326394
0.326281
0.326529
0.326401
0.327221
0.0739683
0.077868
0.0815002
0.0861819
0.0901239
0.0941219
0.0980565
0.102231
0.106277
0.11035
0.114666
0.119233
0.12401
0.128809
0.133492
0.13853
0.143855
0.149345
0.155037
0.160397
0.165272
0.169801
0.174074
0.178125
0.181972
0.185561
0.189048
0.192183
0.195355
0.198441
0.20138
0.204156
0.206832
0.209453
0.211989
0.214449
0.216804
0.219065
0.22125
0.223381
0.225489
0.227588
0.229701
0.231807
0.233935
0.236085
0.238243
0.240413
0.242604
0.244789
0.246976
0.249149
0.251295
0.253402
0.255471
0.257507
0.259529
0.261543
0.263554
0.265576
0.267563
0.269578
0.271497
0.273453
0.275314
0.277097
0.278763
0.280386
0.282
0.28358
0.285071
0.286553
0.287978
0.289402
0.290775
0.292243
0.293642
0.294941
0.296125
0.297207
0.298201
0.29912
0.299973
0.300783
0.301537
0.302261
0.302928
0.303578
0.304139
0.304681
0.305077
0.305498
0.305717
0.30607
0.306153
0.30652
0.306529
0.307007
0.306914
0.308201
0.0527142
0.0534249
0.0540789
0.0546554
0.0553972
0.0560184
0.0567174
0.0576401
0.0580697
0.0597107
0.0619324
0.0633455
0.0660278
0.0679439
0.0690725
0.0704598
0.0727756
0.0756877
0.0787946
0.0821179
0.0857002
0.089313
0.0929996
0.0964901
0.100022
0.103399
0.106816
0.110177
0.11346
0.116808
0.120149
0.123588
0.127089
0.13064
0.134168
0.137709
0.141165
0.144544
0.147835
0.151115
0.154333
0.157461
0.16057
0.163548
0.166735
0.169997
0.173284
0.176613
0.179994
0.183312
0.186606
0.189821
0.19297
0.196061
0.199114
0.202132
0.205133
0.208125
0.211086
0.214051
0.216899
0.219838
0.222477
0.225464
0.227562
0.23005
0.231977
0.23413
0.23667
0.239161
0.240914
0.243461
0.245293
0.247892
0.249548
0.252444
0.254702
0.256713
0.258519
0.26021
0.261797
0.263309
0.264776
0.266178
0.267547
0.268956
0.270326
0.271661
0.272844
0.273923
0.27482
0.275699
0.276309
0.277025
0.27738
0.278087
0.27828
0.279184
0.279044
0.280918
0.0467352
0.0463952
0.0459288
0.0453682
0.0446905
0.0440052
0.0432515
0.0425455
0.0418424
0.0413437
0.0408701
0.04051
0.040015
0.0394639
0.0390222
0.0387913
0.0387985
0.039055
0.0394401
0.0397232
0.0403445
0.0406653
0.0412934
0.0420062
0.0429322
0.0438923
0.0449209
0.0459961
0.0469758
0.0481451
0.0494088
0.0508855
0.0525275
0.0544551
0.0564873
0.0586721
0.060899
0.063242
0.0656863
0.0681426
0.0710045
0.074019
0.0774551
0.0811146
0.0851114
0.0892071
0.0934955
0.0978422
0.102314
0.106803
0.111284
0.115732
0.120096
0.124384
0.128596
0.13273
0.136812
0.140847
0.144714
0.148491
0.152114
0.15575
0.159265
0.162804
0.166314
0.169591
0.172971
0.176098
0.179364
0.182712
0.186109
0.18939
0.192334
0.195604
0.198498
0.201747
0.204108
0.206734
0.209196
0.211666
0.21404
0.21631
0.218633
0.220804
0.222932
0.225165
0.227421
0.229495
0.231376
0.232865
0.234301
0.23571
0.23681
0.237962
0.238715
0.239852
0.240291
0.241894
0.241631
0.244555
0.0405144
0.0392432
0.0380142
0.0368438
0.0356934
0.0347011
0.033612
0.0324879
0.0313332
0.030242
0.0291854
0.0282209
0.0273548
0.0265796
0.0259097
0.0251618
0.0244949
0.0236432
0.0229471
0.0223499
0.0218498
0.0214088
0.0210233
0.0207001
0.0204036
0.0201852
0.0199702
0.0198666
0.0197099
0.0196265
0.0200002
0.0198554
0.0203524
0.0204167
0.0210679
0.020986
0.0211586
0.021602
0.0221464
0.0226692
0.0236242
0.0244792
0.0251882
0.0261624
0.0280196
0.0296939
0.0316911
0.0337333
0.0359611
0.0383873
0.0409446
0.0437567
0.0465868
0.0497963
0.0530071
0.0565166
0.0599705
0.0636409
0.0673938
0.0714119
0.0755271
0.079732
0.0839725
0.0882295
0.0925276
0.0967777
0.101054
0.105249
0.109448
0.1136
0.117719
0.121832
0.125811
0.1298
0.133634
0.137474
0.140896
0.144448
0.147584
0.150883
0.15404
0.157041
0.160317
0.163198
0.166312
0.169376
0.172498
0.175057
0.17798
0.179972
0.18282
0.185618
0.187719
0.189161
0.19185
0.193246
0.194447
0.197256
0.19878
0.200518
0.0276827
0.026698
0.0255247
0.0242876
0.0230734
0.0216924
0.0204823
0.0194576
0.0185697
0.0178031
0.0171297
0.0165408
0.0160284
0.01558
0.0152008
0.0148751
0.0146027
0.0143584
0.0141372
0.0139317
0.0137392
0.0135558
0.0133747
0.0132068
0.0130229
0.012865
0.0126907
0.0125151
0.012328
0.01211
0.0120053
0.0118366
0.0117907
0.0117668
0.0117133
0.0116651
0.0115657
0.0115628
0.0114808
0.0115334
0.0116228
0.0116738
0.0116544
0.0117325
0.0116444
0.0120435
0.0123268
0.0127477
0.0123896
0.0126244
0.0129515
0.0134978
0.0139667
0.0147994
0.0155659
0.0165521
0.0174051
0.0183828
0.0194
0.0205444
0.02187
0.0233712
0.0250578
0.0269507
0.0290702
0.0312795
0.0338998
0.0363792
0.0394298
0.0423041
0.0455147
0.0489156
0.052221
0.0559024
0.0594922
0.063107
0.067065
0.0707724
0.0749111
0.0788134
0.0827605
0.0867626
0.0906987
0.0944493
0.0986827
0.102043
0.10661
0.109798
0.113695
0.116663
0.120308
0.123079
0.126507
0.128724
0.131111
0.133732
0.135491
0.138378
0.140384
0.143635
0.0141445
0.0141926
0.0141061
0.0139627
0.0137759
0.0135456
0.01329
0.0130249
0.0127604
0.0125054
0.0122626
0.0120361
0.0118247
0.0116299
0.0114498
0.0112847
0.0111326
0.0109931
0.0108632
0.010742
0.0106271
0.0105187
0.0104133
0.0103129
0.0102147
0.0101231
0.0100291
0.00994692
0.00986632
0.00979554
0.00972886
0.00966959
0.00961723
0.0095693
0.00952715
0.00949147
0.00945163
0.0094251
0.00939103
0.00936315
0.00933382
0.00931307
0.0092922
0.009278
0.0092563
0.00924276
0.00923462
0.00922381
0.00921516
0.00919829
0.00921767
0.00920996
0.00925062
0.00928342
0.0093212
0.00940646
0.00949154
0.00956308
0.00967878
0.00972745
0.00989387
0.00996033
0.010237
0.0102925
0.0107462
0.0108557
0.0114504
0.0116952
0.0124452
0.0128655
0.0137164
0.0144857
0.0154828
0.0165148
0.0178704
0.0189139
0.0207748
0.0218662
0.0241125
0.0255466
0.0279435
0.0298956
0.0324756
0.0347682
0.0378581
0.0400456
0.0438201
0.0460121
0.0498891
0.0522488
0.0561034
0.0587336
0.0622402
0.065309
0.0677541
0.0714632
0.0734074
0.0771525
0.0808371
0.0826959
0.0113549
0.0112681
0.0111567
0.0110409
0.0109236
0.0108049
0.0106859
0.0105692
0.0104568
0.0103491
0.0102463
0.0101486
0.0100557
0.0099675
0.00988379
0.00980418
0.00972849
0.00965629
0.00958699
0.00952063
0.00945638
0.00939439
0.0093348
0.00927761
0.00922137
0.00917179
0.0091293
0.00909041
0.00905432
0.00901885
0.00898366
0.00894837
0.00891228
0.00887697
0.00884165
0.00880683
0.00877286
0.00874044
0.00870594
0.00867498
0.00864057
0.00861319
0.00857983
0.00855872
0.00852898
0.00851384
0.00848283
0.0084677
0.00843517
0.00842028
0.00839372
0.00837179
0.00836001
0.00833203
0.00834064
0.00831905
0.00833783
0.00832768
0.00832628
0.00833125
0.00830222
0.00831937
0.00830423
0.0082768
0.00831658
0.00823339
0.00831157
0.00824559
0.00828205
0.00831707
0.00833074
0.00839112
0.00862868
0.00876264
0.00855425
0.00851667
0.00846242
0.00835291
0.00840062
0.00833737
0.00850124
0.00862163
0.00889733
0.00928349
0.00978777
0.0103717
0.0111945
0.0120695
0.0130721
0.0143063
0.0155807
0.0171759
0.0187893
0.0203982
0.0218797
0.0237966
0.0245182
0.0265843
0.0284827
0.0298703
0.00986999
0.00983746
0.00980381
0.00976683
0.00972676
0.0096846
0.00964136
0.0095933
0.00954032
0.0094828
0.00942336
0.00936195
0.00930102
0.00923984
0.00918042
0.00912147
0.0090647
0.00900862
0.00895494
0.00890226
0.00885227
0.00880378
0.0087582
0.00871465
0.0086742
0.0086359
0.00860002
0.0085661
0.00853395
0.00850349
0.00847389
0.00844548
0.0084169
0.00838908
0.00836023
0.00833208
0.00830261
0.00827408
0.00824457
0.00821647
0.00818788
0.00816117
0.00813443
0.00811
0.00808581
0.00806432
0.00804308
0.0080248
0.00800657
0.00799122
0.00797578
0.00796274
0.00794988
0.00793839
0.0079277
0.00791742
0.00790807
0.00789902
0.00789001
0.00788212
0.00787296
0.00786548
0.00785679
0.00784852
0.00784112
0.00783096
0.00782663
0.00781308
0.00781436
0.00779158
0.0077977
0.00777517
0.00777898
0.00776901
0.00775788
0.00775007
0.00773427
0.00774515
0.00772235
0.00773167
0.00772733
0.00771292
0.00766243
0.00764897
0.00763648
0.00768455
0.00768549
0.00778742
0.00783258
0.00797611
0.00808267
0.00824219
0.00843677
0.00860883
0.00880061
0.00903806
0.00913715
0.00940059
0.00973059
0.00992311
0.00899337
0.00896773
0.00893759
0.00890234
0.00886525
0.00882708
0.00878998
0.00875329
0.00871829
0.00868337
0.00864936
0.00861418
0.0085787
0.00854076
0.00850158
0.00845928
0.00841566
0.0083693
0.00832255
0.00827432
0.00822722
0.00818015
0.0081357
0.00809253
0.00805283
0.00801487
0.00798046
0.00794753
0.00791764
0.00788858
0.00786181
0.00783515
0.0078101
0.00778463
0.0077604
0.00773554
0.00771187
0.00768767
0.0076649
0.00764185
0.00762055
0.00759925
0.00757996
0.00756088
0.00754398
0.00752739
0.00751311
0.00749906
0.0074874
0.00747577
0.0074665
0.00745704
0.00744973
0.0074421
0.00743628
0.00743
0.00742528
0.00741977
0.00741584
0.00741051
0.00740713
0.0074015
0.00739846
0.00739231
0.00738944
0.00738273
0.00738095
0.00737348
0.00737322
0.00736656
0.00736751
0.00736227
0.00736359
0.0073596
0.00735922
0.00735415
0.00734665
0.00734527
0.00734183
0.00734126
0.00733842
0.00732599
0.00730802
0.00729437
0.00726644
0.00725916
0.00723022
0.00723269
0.00722714
0.0072266
0.00723906
0.00724622
0.00728538
0.0073338
0.00735857
0.00735995
0.00737924
0.00736226
0.00738587
0.00742076
0.00834002
0.00833037
0.00831729
0.00830027
0.00828024
0.00825575
0.00822808
0.00819602
0.0081615
0.00812375
0.00808515
0.00804492
0.00800555
0.00796596
0.00792852
0.00789173
0.00785778
0.0078247
0.00779455
0.00776498
0.00773802
0.00771111
0.00768641
0.00766123
0.00763798
0.00761395
0.00759176
0.00756868
0.00754757
0.00752558
0.00750574
0.00748506
0.00746673
0.00744755
0.00743085
0.00741321
0.00739814
0.00738198
0.0073684
0.00735356
0.0073413
0.00732759
0.00731645
0.00730369
0.00729349
0.00728152
0.0072721
0.00726076
0.00725197
0.00724112
0.00723284
0.00722239
0.00721454
0.00720438
0.00719695
0.00718705
0.00718008
0.00717045
0.007164
0.00715466
0.00714881
0.00713982
0.00713461
0.007126
0.0071214
0.00711318
0.00710917
0.00710133
0.00709783
0.00709038
0.00708728
0.00708022
0.00707741
0.00707075
0.0070681
0.00706189
0.00705919
0.00705343
0.00705089
0.00704548
0.00704309
0.00703785
0.00703511
0.00703003
0.00702713
0.00702224
0.00701945
0.00701501
0.00701256
0.00700907
0.00700704
0.00700326
0.00700324
0.0069979
0.007
0.00699312
0.00699514
0.00699065
0.00700762
0.00697146
0.0078316
0.00782863
0.00782127
0.00780988
0.00779601
0.00777885
0.00775994
0.00773822
0.00771538
0.00769031
0.00766489
0.00763787
0.00761123
0.00758353
0.00755686
0.00752957
0.00750384
0.00747784
0.00745379
0.00742962
0.00740761
0.0073854
0.0073653
0.00734471
0.00732601
0.00730639
0.0072884
0.00726912
0.00725137
0.00723216
0.00721462
0.0071957
0.00717883
0.00716079
0.00714523
0.00712872
0.00711507
0.00710053
0.00708907
0.00707661
0.00706727
0.00705667
0.00704912
0.00703997
0.00703373
0.00702554
0.00702014
0.00701248
0.00700751
0.00700005
0.00699523
0.00698773
0.00698289
0.00697525
0.00697035
0.00696255
0.00695764
0.00694975
0.00694495
0.00693706
0.00693249
0.00692472
0.00692049
0.00691289
0.00690908
0.00690169
0.0068983
0.00689113
0.00688813
0.00688119
0.00687849
0.00687183
0.0068693
0.00686297
0.00686053
0.00685458
0.00685214
0.00684658
0.00684412
0.00683894
0.00683637
0.00683152
0.00682866
0.00682413
0.00682098
0.00681659
0.00681358
0.00680879
0.0068068
0.00680119
0.00680042
0.00679471
0.00679322
0.00678956
0.00678605
0.00678586
0.00678014
0.00678115
0.00675978
0.00678927
0.0074718
0.00747328
0.0074712
0.00746483
0.0074559
0.00744367
0.00742988
0.00741355
0.00739651
0.00737768
0.00735894
0.00733901
0.00731976
0.00729968
0.00728067
0.00726099
0.0072426
0.00722355
0.00720593
0.00718757
0.00717073
0.00715309
0.00713705
0.00712017
0.00710501
0.00708897
0.00707479
0.00705969
0.00704656
0.00703241
0.00702031
0.00700704
0.00699587
0.00698336
0.00697298
0.00696107
0.00695135
0.00693995
0.0069308
0.00691985
0.00691126
0.00690073
0.00689268
0.00688257
0.00687506
0.00686537
0.00685838
0.00684909
0.0068426
0.00683371
0.00682771
0.00681919
0.00681368
0.00680553
0.00680049
0.0067927
0.00678813
0.00678068
0.00677656
0.00676941
0.00676571
0.00675883
0.00675552
0.00674886
0.00674591
0.00673943
0.00673678
0.00673046
0.00672806
0.00672187
0.00671967
0.00671361
0.00671154
0.00670563
0.00670366
0.00669792
0.00669599
0.00669043
0.00668853
0.00668315
0.00668129
0.00667607
0.00667424
0.00666917
0.00666739
0.00666243
0.00666073
0.00665588
0.00665423
0.0066495
0.00664783
0.00664346
0.00664167
0.00663688
0.00663584
0.00663264
0.00663125
0.00662743
0.00662456
0.0066198
0.0072112
0.00721455
0.00721495
0.00721148
0.00720585
0.00719735
0.00718764
0.00717567
0.00716315
0.00714891
0.00713473
0.00711927
0.00710438
0.00708854
0.00707362
0.00705792
0.00704338
0.00702811
0.00701413
0.00699937
0.00698597
0.0069717
0.00695884
0.00694501
0.00693266
0.00691926
0.00690745
0.00689453
0.00688335
0.00687104
0.00686062
0.00684903
0.0068395
0.0068287
0.00682007
0.00681004
0.00680226
0.00679291
0.00678585
0.00677703
0.00677052
0.00676206
0.00675595
0.00674771
0.00674188
0.00673377
0.00672815
0.00672013
0.00671471
0.0067068
0.00670161
0.00669384
0.00668894
0.00668137
0.00667681
0.00666949
0.00666531
0.00665825
0.00665448
0.00664768
0.0066443
0.00663775
0.00663473
0.00662839
0.0066257
0.00661954
0.00661712
0.00661111
0.00660892
0.00660304
0.00660103
0.00659526
0.00659339
0.00658772
0.00658595
0.00658039
0.0065787
0.00657325
0.00657162
0.00656629
0.0065647
0.00655948
0.00655794
0.00655283
0.00655132
0.00654633
0.00654483
0.00654002
0.00653846
0.00653384
0.0065322
0.00652788
0.00652626
0.00652132
0.00652048
0.00651723
0.00651589
0.00651204
0.00650954
0.00650466
0.00701952
0.00702388
0.00702592
0.00702446
0.00702119
0.00701528
0.00700838
0.00699941
0.00699004
0.00697904
0.00696815
0.00695598
0.00694428
0.00693152
0.00691952
0.00690658
0.00689461
0.00688178
0.00687008
0.00685755
0.00684629
0.00683419
0.00682347
0.00681187
0.00680174
0.00679067
0.00678114
0.00677056
0.0067616
0.00675148
0.00674303
0.00673331
0.00672535
0.00671598
0.00670848
0.00669945
0.00669239
0.00668369
0.00667707
0.0066687
0.00666252
0.00665449
0.00664873
0.00664102
0.00663567
0.00662827
0.0066233
0.00661618
0.00661157
0.0066047
0.00660043
0.00659377
0.00658982
0.00658334
0.00657968
0.00657336
0.00656997
0.00656378
0.00656066
0.00655457
0.00655171
0.00654571
0.00654307
0.00653717
0.00653473
0.00652891
0.00652666
0.00652092
0.00651883
0.00651317
0.00651123
0.00650565
0.00650384
0.00649833
0.00649664
0.0064912
0.00648961
0.00648427
0.00648275
0.00647751
0.00647602
0.00647092
0.00646941
0.0064645
0.00646291
0.00645821
0.00645654
0.00645199
0.00645033
0.00644586
0.00644429
0.00643971
0.00643823
0.00643423
0.00643202
0.00642762
0.00642643
0.00642286
0.00642142
0.00641556
0.00687562
0.00688022
0.00688299
0.00688261
0.00688077
0.00687651
0.00687147
0.00686447
0.0068572
0.00684834
0.00683965
0.00682966
0.00682019
0.00680961
0.00679981
0.00678902
0.0067792
0.00676846
0.00675881
0.00674826
0.00673891
0.00672864
0.00671966
0.00670972
0.00670116
0.0066916
0.00668348
0.0066743
0.00666664
0.00665784
0.00665062
0.00664216
0.00663537
0.00662723
0.00662083
0.00661296
0.00660692
0.00659929
0.00659359
0.00658618
0.00658079
0.0065736
0.00656851
0.00656153
0.00655673
0.00654997
0.00654545
0.00653891
0.00653468
0.00652835
0.0065244
0.00651826
0.00651458
0.00650861
0.0065052
0.00649935
0.0064962
0.00649044
0.00648756
0.00648187
0.00647922
0.00647358
0.00647116
0.00646557
0.00646333
0.0064578
0.00645571
0.00645027
0.00644829
0.00644294
0.00644105
0.00643579
0.00643399
0.00642881
0.0064271
0.00642198
0.00642035
0.00641531
0.00641373
0.00640879
0.00640722
0.00640242
0.00640083
0.00639618
0.00639453
0.00639007
0.00638832
0.00638404
0.00638224
0.00637809
0.00637635
0.00637204
0.00637053
0.00636658
0.00636456
0.00636006
0.00635902
0.00635555
0.00635399
0.00634809
0.00676608
0.00677061
0.00677374
0.00677403
0.00677315
0.00677002
0.00676634
0.0067608
0.00675514
0.00674792
0.00674097
0.00673268
0.00672495
0.00671603
0.00670791
0.00669869
0.00669045
0.00668116
0.00667301
0.00666382
0.00665588
0.0066469
0.00663925
0.00663054
0.00662323
0.00661481
0.00660785
0.00659972
0.00659312
0.00658527
0.00657902
0.00657144
0.00656553
0.00655819
0.00655261
0.0065455
0.00654023
0.00653333
0.00652836
0.00652167
0.00651698
0.00651047
0.00650605
0.00649972
0.00649553
0.00648938
0.0064854
0.00647942
0.00647564
0.00646981
0.00646623
0.00646053
0.00645714
0.00645156
0.00644838
0.00644288
0.00643992
0.00643447
0.00643174
0.00642633
0.00642382
0.00641843
0.00641613
0.00641076
0.00640864
0.00640333
0.00640132
0.0063961
0.00639416
0.00638907
0.00638714
0.00638221
0.00638026
0.0063755
0.00637352
0.00636891
0.00636691
0.00636247
0.00636041
0.00635616
0.00635401
0.00634995
0.00634774
0.00634383
0.00634155
0.00633788
0.00633534
0.00633217
0.0063291
0.00632654
0.00632325
0.00632036
0.00631823
0.00631388
0.00631311
0.0063086
0.00630389
0.0063042
0.00630359
0.00629822
0.00668377
0.00668828
0.00669154
0.00669221
0.00669195
0.00668959
0.00668682
0.00668227
0.00667769
0.00667158
0.00666579
0.00665867
0.00665215
0.00664442
0.00663751
0.00662947
0.00662243
0.00661428
0.00660729
0.00659917
0.00659234
0.00658435
0.00657775
0.00656994
0.00656361
0.006556
0.00654996
0.00654257
0.00653681
0.00652963
0.00652416
0.00651717
0.00651199
0.00650518
0.00650027
0.00649362
0.00648897
0.00648247
0.00647807
0.00647173
0.00646757
0.00646136
0.00645743
0.00645135
0.00644764
0.00644169
0.00643817
0.00643235
0.00642902
0.00642332
0.00642016
0.00641457
0.00641159
0.00640608
0.00640328
0.00639785
0.00639523
0.00638986
0.00638742
0.00638209
0.00637984
0.00637454
0.00637246
0.00636718
0.00636527
0.00636
0.00635824
0.006353
0.00635135
0.00634616
0.00634459
0.00633949
0.00633793
0.00633298
0.00633134
0.00632664
0.00632483
0.00632043
0.00631842
0.00631434
0.00631209
0.00630836
0.00630585
0.00630247
0.00629976
0.00629654
0.00629396
0.00629044
0.00628847
0.00628435
0.00628285
0.00627899
0.00627628
0.00627454
0.00627002
0.00626874
0.00626467
0.00626511
0.00624618
0.00627278
0.00662098
0.00662526
0.00662848
0.00662934
0.00662943
0.00662759
0.00662543
0.00662161
0.00661779
0.00661252
0.00660757
0.00660133
0.00659567
0.00658882
0.00658276
0.00657557
0.00656934
0.00656202
0.00655579
0.00654845
0.00654233
0.00653507
0.00652914
0.006522
0.00651629
0.00650931
0.00650386
0.00649703
0.00649184
0.00648517
0.00648025
0.00647373
0.00646907
0.00646268
0.00645828
0.00645201
0.00644784
0.00644168
0.00643775
0.00643168
0.00642797
0.00642199
0.0064185
0.00641261
0.0064093
0.0064035
0.00640038
0.00639466
0.00639173
0.00638607
0.00638332
0.00637774
0.00637516
0.00636965
0.00636724
0.00636178
0.00635954
0.00635413
0.00635205
0.00634667
0.00634476
0.00633939
0.00633765
0.00633226
0.00633071
0.00632529
0.00632391
0.00631846
0.00631723
0.00631178
0.00631065
0.00630523
0.00630416
0.00629882
0.00629777
0.00629251
0.0062915
0.00628628
0.00628535
0.00628013
0.00627929
0.00627411
0.00627328
0.00626821
0.00626733
0.00626239
0.00626153
0.00625655
0.00625595
0.00625066
0.00625044
0.00624504
0.00624475
0.0062394
0.00623926
0.00623666
0.00623261
0.00623283
0.00621457
0.00623962
0.00657299
0.00657699
0.00658008
0.00658098
0.00658126
0.00657972
0.00657793
0.00657454
0.0065712
0.00656646
0.00656205
0.00655638
0.00655129
0.00654504
0.00653955
0.00653296
0.00652729
0.00652055
0.00651486
0.00650809
0.00650248
0.00649576
0.00649029
0.00648368
0.0064784
0.00647192
0.00646685
0.0064605
0.00645566
0.00644945
0.00644484
0.00643874
0.00643436
0.00642838
0.00642423
0.00641833
0.0064144
0.00640859
0.00640487
0.00639912
0.00639561
0.00638993
0.0063866
0.006381
0.00637785
0.00637231
0.00636933
0.00636385
0.00636104
0.00635562
0.00635297
0.00634759
0.00634513
0.00633977
0.00633751
0.00633214
0.00633009
0.0063247
0.00632286
0.00631743
0.00631581
0.00631033
0.0063089
0.00630339
0.00630212
0.00629659
0.00629547
0.00628992
0.00628893
0.00628337
0.00628249
0.00627693
0.00627614
0.0062706
0.00626987
0.0062644
0.00626366
0.00625833
0.00625751
0.00625237
0.00625145
0.00624646
0.00624554
0.00624054
0.00623981
0.00623463
0.00623419
0.00622883
0.00622857
0.00622316
0.00622301
0.00621755
0.00621774
0.00621138
0.00621309
0.00620567
0.00620947
0.00620409
0.00620224
0.00619609
0.00653388
0.00653763
0.00654059
0.00654148
0.00654187
0.00654049
0.00653896
0.00653586
0.00653288
0.0065285
0.00652452
0.00651926
0.00651462
0.0065088
0.00650378
0.00649762
0.00649242
0.00648611
0.00648087
0.00647453
0.00646935
0.00646305
0.006458
0.00645179
0.0064469
0.0064408
0.0064361
0.00643012
0.00642562
0.00641976
0.00641544
0.00640969
0.00640557
0.00639991
0.00639598
0.00639039
0.00638664
0.00638112
0.00637754
0.00637208
0.00636867
0.00636327
0.00636002
0.00635468
0.00635157
0.0063463
0.00634334
0.00633812
0.0063353
0.00633015
0.00632747
0.00632237
0.00631983
0.00631477
0.0063124
0.00630733
0.00630515
0.00630006
0.00629807
0.00629293
0.00629114
0.00628595
0.00628435
0.0062791
0.00627768
0.00627239
0.0062711
0.00626581
0.0062646
0.00625935
0.00625818
0.006253
0.00625185
0.00624675
0.00624559
0.00624062
0.0062394
0.00623461
0.00623326
0.00622871
0.00622722
0.00622286
0.00622131
0.00621702
0.00621554
0.00621126
0.00620979
0.00620569
0.00620401
0.00620017
0.00619857
0.00619413
0.00619408
0.00618752
0.00618937
0.00618162
0.0061828
0.00617848
0.00619412
0.00615847
0.00650179
0.00650528
0.00650814
0.006509
0.00650951
0.00650828
0.00650701
0.00650417
0.00650154
0.00649749
0.00649391
0.00648903
0.00648482
0.00647939
0.00647481
0.00646905
0.00646428
0.00645834
0.00645352
0.00644752
0.00644273
0.00643673
0.00643204
0.00642609
0.00642153
0.00641565
0.00641123
0.00640543
0.00640117
0.00639546
0.00639135
0.00638572
0.00638176
0.0063762
0.00637239
0.0063669
0.00636324
0.00635781
0.0063543
0.00634891
0.00634555
0.00634022
0.006337
0.00633172
0.00632864
0.00632342
0.00632047
0.00631531
0.00631249
0.00630739
0.00630469
0.00629966
0.00629709
0.00629212
0.00628967
0.00628475
0.00628243
0.00627753
0.00627536
0.00627047
0.00626845
0.00626354
0.00626169
0.00625673
0.00625505
0.00625005
0.00624852
0.0062435
0.00624208
0.00623707
0.00623572
0.00623076
0.00622943
0.00622459
0.00622319
0.00621854
0.00621704
0.00621258
0.00621098
0.00620671
0.00620499
0.00620096
0.00619905
0.00619533
0.00619321
0.00618966
0.00618767
0.00618375
0.00618255
0.00617769
0.00617739
0.00617239
0.00617123
0.00616808
0.00616478
0.00616473
0.00615932
0.00616027
0.00614226
0.0061681
0.00647845
0.00648163
0.00648429
0.00648505
0.00648557
0.0064844
0.00648325
0.00648056
0.00647813
0.00647428
0.00647092
0.00646624
0.00646225
0.006457
0.00645261
0.00644698
0.00644235
0.00643649
0.00643177
0.0064258
0.00642107
0.00641504
0.00641036
0.00640433
0.00639973
0.00639373
0.00638925
0.0063833
0.00637896
0.00637308
0.0063689
0.00636309
0.00635908
0.00635335
0.00634951
0.00634386
0.00634019
0.00633462
0.00633113
0.00632563
0.00632231
0.00631689
0.0063137
0.00630834
0.00630531
0.00630003
0.00629714
0.00629195
0.00628921
0.00628411
0.00628151
0.0062765
0.00627403
0.0062691
0.00626676
0.00626191
0.00625969
0.00625489
0.0062528
0.00624803
0.00624608
0.00624131
0.0062395
0.00623472
0.00623305
0.00622826
0.0062267
0.00622192
0.00622045
0.00621569
0.00621429
0.00620957
0.00620821
0.00620355
0.00620222
0.00619763
0.00619632
0.00619181
0.0061905
0.00618609
0.00618475
0.00618046
0.00617909
0.00617491
0.00617353