/*--------------------------------*- C++ -*----------------------------------*\
  =========                 |
  \\      /  F ield         | OpenFOAM: The Open Source CFD Toolbox
   \\    /   O peration     | Website:  https://openfoam.org
    \\  /    A nd           | Version:  8
     \\/     M anipulation  |
\*---------------------------------------------------------------------------*/
FoamFile
{
    version     2.0;
    format      ascii;
    class       surfaceScalarField;
    location    "4.500037302";
    object      phi;
}
// * * * * * * * * * * * * * * * * * * * * * * * * * * * * * * * * * * * * * //

dimensions      [1 0 -1 0 0 0 0];

internalField   nonuniform List<scalar> 
13330
(
0.188758
-0.0897577
-0.0989215
0.415833
-0.639948
0.41291
0.620156
-0.877208
0.672912
0.802009
-1.01441
0.832566
0.964278
-1.09906
0.936807
1.1099
-1.15076
1.00514
1.24214
-1.18215
1.04991
1.36418
-1.20101
1.07897
1.4794
-1.21225
1.09704
-1.21956
1.10673
1.59221
0.239581
-0.329302
0.454295
-0.854631
0.641695
-1.06459
0.806793
-1.1795
0.951393
-1.24366
1.07932
-1.27869
1.19435
-1.29717
1.29941
-1.30608
1.39676
-1.30961
-1.31044
1.48764
0.243074
-0.572358
0.45606
-1.0676
0.630135
-1.23865
0.778849
-1.3282
0.906364
-1.37117
1.01776
-1.39009
1.11701
-1.39641
1.20713
-1.3962
1.29036
-1.39283
-1.38811
1.36803
0.235924
-0.80827
0.437395
-1.26905
0.595715
-1.39696
0.727692
-1.46017
0.838827
-1.4823
0.934822
-1.48608
1.01994
-1.48153
1.09741
-1.47366
1.16943
-1.46485
-1.45599
1.23731
0.222467
-1.03073
0.405526
-1.45209
0.545874
-1.53729
0.661027
-1.57532
0.756257
-1.57752
0.838047
-1.56787
0.91076
-1.55425
0.977394
-1.5403
1.03983
-1.52729
-1.51523
1.09907
0.204132
-1.23485
0.365045
-1.61298
0.486394
-1.65862
0.584681
-1.6736
0.664669
-1.65751
0.73348
-1.63667
0.795013
-1.61578
0.851785
-1.59707
0.905269
-1.58077
-1.56606
0.956103
0.182584
-1.41742
0.319492
-1.74987
0.421626
-1.76074
0.503036
-1.755
0.568586
-1.72306
0.625275
-1.69336
0.676244
-1.66675
0.723477
-1.6443
0.768053
-1.62535
-1.60829
0.810288
0.158869
-1.57628
0.271338
-1.86231
0.354653
-1.84403
0.419229
-1.81956
0.470989
-1.77482
0.516016
-1.73839
0.55659
-1.70732
0.59416
-1.68187
0.629532
-1.66072
-1.64154
0.662775
0.134225
-1.71049
0.222333
-1.95038
0.287197
-1.90885
0.335227
-1.86759
0.373804
-1.81339
0.407279
-1.77187
0.437265
-1.7373
0.464799
-1.70941
0.490535
-1.68645
-1.66537
0.514363
0.10932
-1.81978
0.173658
-2.01468
0.220378
-1.95555
0.252427
-1.89962
0.278151
-1.83913
0.299894
-1.79362
0.318925
-1.75635
0.336018
-1.72649
0.351659
-1.7021
0.365691
-1.67939
-0.0953609
0.0953524
-0.172187
0.0768237
-0.236943
0.0647577
-0.291972
0.0550268
-0.336516
0.044549
-0.368876
0.0323578
-0.387132
0.0182614
-0.390112
0.00297628
-0.378398
-0.0117185
-0.0229776
-0.35543
-0.0812902
0.176622
-0.14924
0.144765
-0.20473
0.12025
-0.249161
0.0994631
-0.281977
0.07737
-0.300983
0.0513728
-0.303131
0.020415
-0.286965
-0.013198
-0.254581
-0.0441265
-0.0674136
-0.210177
-0.0622096
0.238816
-0.112406
0.194967
-0.149906
0.157754
-0.173725
0.123291
-0.182155
0.0858083
-0.171783
0.0410125
-0.137998
-0.0133642
-0.0845367
-0.0666737
-0.0164607
-0.112227
-0.145391
0.0614751
-0.0399599
0.278764
-0.0683295
0.223332
-0.0812689
0.170702
-0.0741713
0.116205
-0.0412143
0.0528605
0.0221364
-0.0223233
0.1074
-0.0986248
0.202789
-0.162071
0.304786
-0.214254
-0.251979
0.411344
-0.0187643
0.297519
-0.0227271
0.227311
-0.00270862
0.150693
0.0522315
0.0612795
0.146235
-0.0411343
0.264554
-0.140631
0.391184
-0.225252
0.522843
-0.293743
0.656833
-0.34826
-0.388216
0.793039
-0.00118644
0.29873
0.0227133
0.203422
0.0897177
0.0837093
0.207599
-0.0565867
0.355522
-0.189049
0.512753
-0.297854
0.672896
-0.385394
0.833568
-0.454421
0.992212
-0.506928
-0.544693
1.14866
0.0107561
0.28797
0.0711902
0.143028
0.204522
-0.0496006
0.377588
-0.229637
0.559427
-0.370882
0.741666
-0.480087
0.919321
-0.563047
1.08998
-0.625096
1.25368
-0.670639
-0.702991
1.41196
0.016199
0.271814
0.14506
0.0141979
0.339399
-0.243922
0.540876
-0.431104
0.737071
-0.567072
0.923014
-0.666025
1.09769
-0.737726
1.26208
-0.789482
1.41792
-0.826507
-0.852118
1.56703
0.0547801
0.21707
0.253037
-0.184028
0.466953
-0.457823
0.672221
-0.636363
0.863411
-0.758257
1.04
-0.842616
1.20341
-0.901128
1.35552
-0.941599
1.49833
-0.969322
-0.987756
1.63394
0.118162
0.347055
0.562147
0.758356
0.936905
1.09944
1.24822
1.38559
1.5133
1.63227
-0.282826
-0.0726247
-0.2139
-0.0689402
-0.15073
-0.0631823
-0.0926454
-0.0580964
-0.0383683
-0.0542894
0.0129977
-0.0513784
0.0614009
-0.0484156
0.107001
-0.0456125
0.150368
-0.0433793
0.191855
-0.0414987
0.231691
-0.0398472
0.270041
-0.0383608
0.30703
-0.0369988
0.342755
-0.0357338
0.377295
-0.0345483
0.410719
-0.0334304
0.443085
-0.0323711
0.474442
-0.0313616
0.504833
-0.0303938
0.534293
-0.0294613
0.56285
-0.0285581
0.590528
-0.027678
0.617345
-0.0268158
0.643315
-0.025968
0.66845
-0.0251325
0.692761
-0.0243084
0.71626
-0.0234959
0.738959
-0.022696
0.760873
-0.0219107
0.782018
-0.0211427
0.802415
-0.0203942
0.822085
-0.0196672
0.841051
-0.0189629
0.859335
-0.018282
0.876961
-0.0176248
0.893954
-0.0169912
0.910337
-0.0163815
0.926132
-0.0157946
0.941363
-0.0152297
0.95605
-0.014687
0.970216
-0.014166
0.983883
-0.0136667
0.997072
-0.0131885
1.0098
-0.0127301
1.02209
-0.0122921
1.03396
-0.0118718
1.04543
-0.0114682
1.05651
-0.0110828
1.06723
-0.0107161
1.0776
-0.0103676
1.08763
-0.0100344
1.09735
-0.00971555
1.10676
-0.00941022
1.11587
-0.00911753
1.12471
-0.00883663
1.13328
-0.00856672
1.14159
-0.00830706
1.14964
-0.00805711
1.15746
-0.00781647
1.16505
-0.00758473
1.17241
-0.00736153
1.17956
-0.0071465
1.1865
-0.00693929
1.19324
-0.00673955
1.19979
-0.00654693
1.20615
-0.00636089
1.21233
-0.00618087
1.21834
-0.00600642
1.22418
-0.00583719
1.22985
-0.00567269
1.23536
-0.005513
1.24072
-0.00535805
1.24593
-0.00520747
1.251
-0.00506145
1.25592
-0.00492001
1.2607
-0.00478286
1.26535
-0.00465044
1.26988
-0.00452246
1.27428
-0.00439813
1.27856
-0.0042774
1.28272
-0.00416063
1.28677
-0.00404751
1.29071
-0.00393757
1.29454
-0.00383185
1.29827
-0.00372865
1.3019
-0.00362766
1.30543
-0.00353113
1.30887
-0.00344029
1.31222
-0.00335109
1.31548
-0.00326232
1.31866
-0.0031796
1.32176
-0.00309936
1.32478
-0.00301893
1.32772
-0.00293951
1.33058
-0.00286055
1.33336
-0.00277833
1.33605
-0.00268747
1.33864
-0.00258744
1.34112
-0.00247722
-0.00224514
-0.142729
-0.140125
-0.0825494
-0.129158
-0.0271105
-0.118654
0.0248223
-0.110061
0.0733218
-0.102821
0.11884
-0.0969293
0.162284
-0.0918907
0.204027
-0.0873872
0.244104
-0.0834864
0.282642
-0.0800665
0.319764
-0.0769966
0.355576
-0.074199
0.390171
-0.0716173
0.423621
-0.0692042
0.455981
-0.0669267
0.4873
-0.0647646
0.517621
-0.0627044
0.546986
-0.0607353
0.575433
-0.0588474
0.602997
-0.0570288
0.629704
-0.055266
0.655574
-0.0535471
0.680625
-0.0518635
0.704872
-0.05021
0.728329
-0.048584
0.751012
-0.0469842
0.772934
-0.045411
0.79411
-0.0438652
0.814556
-0.0423497
0.834289
-0.040869
0.853328
-0.0394266
0.871691
-0.0380248
0.889399
-0.0366657
0.906473
-0.0353512
0.922935
-0.0340825
0.938807
-0.03286
0.954111
-0.0316833
0.96887
-0.0305509
0.983103
-0.0294617
0.996831
-0.0284145
1.01007
-0.0274087
1.02285
-0.0264437
1.03518
-0.0255179
1.04708
-0.0246306
1.05857
-0.0237807
1.06966
-0.0229654
1.08038
-0.022185
1.09073
-0.0214404
1.10074
-0.0207298
1.11043
-0.0200519
1.1198
-0.0194043
1.12887
-0.0187851
1.13765
-0.0181926
1.14616
-0.0176251
1.1544
-0.0170807
1.16239
-0.0165577
1.17014
-0.0160549
1.17766
-0.0155712
1.18495
-0.0151056
1.19202
-0.0146574
1.19889
-0.0142259
1.20556
-0.0138104
1.21203
-0.0134102
1.21832
-0.0130247
1.22443
-0.0126534
1.23036
-0.0122951
1.23613
-0.0119483
1.24174
-0.0116122
1.24719
-0.0112863
1.25249
-0.01097
1.25765
-0.0106631
1.26266
-0.010365
1.26753
-0.0100754
1.27226
-0.00979418
1.27687
-0.00952178
1.28135
-0.00925848
1.28571
-0.00900433
1.28994
-0.00875869
1.29407
-0.00852073
1.29809
-0.00829007
1.30199
-0.00806647
1.3058
-0.0078494
1.3095
-0.00763859
1.31311
-0.00743462
1.31662
-0.00723622
1.32004
-0.00704391
1.32337
-0.00685807
1.32661
-0.00667995
1.32977
-0.00650841
1.33285
-0.00634104
1.33585
-0.00618084
1.33878
-0.00602669
1.34163
-0.00587344
1.34441
-0.00571984
1.34712
-0.00556604
1.34975
-0.00540851
1.3523
-0.00523721
1.35476
-0.00504253
1.35709
-0.00481331
-0.0045321
0.108898
-0.187601
0.150589
-0.170884
0.191294
-0.159387
0.231192
-0.149987
0.269888
-0.141546
0.307271
-0.13434
0.343531
-0.12818
0.378814
-0.122699
0.413071
-0.11777
0.446277
-0.113299
0.478454
-0.109197
0.509641
-0.105409
0.539882
-0.101878
0.569212
-0.0985521
0.597654
-0.0953836
0.625227
-0.0923509
0.651957
-0.0894439
0.677865
-0.0866509
0.702974
-0.083962
0.727305
-0.0813621
0.750869
-0.0788314
0.773678
-0.0763551
0.795742
-0.0739249
0.817073
-0.0715369
0.837684
-0.0691905
0.85759
-0.0668856
0.876809
-0.0646243
0.895356
-0.062407
0.913249
-0.0602374
0.930507
-0.058122
0.947149
-0.0560638
0.963195
-0.0540655
0.978663
-0.0521298
0.993575
-0.0502594
1.00795
-0.0484556
1.02181
-0.0467187
1.03518
-0.0450475
1.04807
-0.0434401
1.0605
-0.0418945
1.0725
-0.0404089
1.08407
-0.0389816
1.09524
-0.0376117
1.10602
-0.0362973
1.11642
-0.0350356
1.12647
-0.0338264
1.13617
-0.0326692
1.14555
-0.0315619
1.15461
-0.0305039
1.16337
-0.0294935
1.17185
-0.0285286
1.18005
-0.0276066
1.18799
-0.0267251
1.19568
-0.0258815
1.20313
-0.0250735
1.21035
-0.0242984
1.21735
-0.0235539
1.22413
-0.0228384
1.23071
-0.0221503
1.2371
-0.0214884
1.24329
-0.0208516
1.24931
-0.0202387
1.25515
-0.0196487
1.26082
-0.0190804
1.26633
-0.0185329
1.27169
-0.0180062
1.27689
-0.0174978
1.28195
-0.0170054
1.28687
-0.0165281
1.29165
-0.0160655
1.2963
-0.0156166
1.30082
-0.0151814
1.30522
-0.0147591
1.30949
-0.014349
1.31365
-0.0139509
1.3177
-0.0135656
1.32164
-0.0131942
1.32547
-0.0128361
1.32921
-0.0124902
1.33284
-0.0121554
1.33639
-0.0118309
1.33984
-0.0115162
1.3432
-0.0112106
1.34648
-0.0109138
1.34968
-0.0106259
1.35279
-0.010346
1.35582
-0.0100752
1.35878
-0.00981483
1.36166
-0.00956348
1.36448
-0.00932092
1.36723
-0.00908659
1.36991
-0.00886094
1.37253
-0.00864427
1.37508
-0.008429
1.37758
-0.00821421
1.38001
-0.00799846
1.38238
-0.00777531
1.38468
-0.00753534
1.3869
-0.0072637
1.38903
-0.00694523
-0.00658335
0.430672
-0.206977
0.451176
-0.19142
0.474962
-0.1832
0.50094
-0.175992
0.52788
-0.168514
0.555085
-0.161573
0.582244
-0.155366
0.6092
-0.149682
0.635796
-0.144392
0.661915
-0.139442
0.687494
-0.134799
0.712507
-0.130441
0.736939
-0.126329
0.760779
-0.122407
0.784007
-0.118625
0.806615
-0.11497
0.828599
-0.111437
0.849956
-0.108013
0.870682
-0.104692
0.890776
-0.101458
0.910231
-0.098287
0.929046
-0.0951692
0.947226
-0.0921019
0.964779
-0.0890861
0.981718
-0.0861251
0.998058
-0.0832211
1.01382
-0.0803791
1.02901
-0.077599
1.04367
-0.0748849
1.0578
-0.0722447
1.07142
-0.0696803
1.08455
-0.0671935
1.09721
-0.0647864
1.10941
-0.062462
1.12118
-0.0602214
1.13253
-0.0580646
1.14348
-0.0559901
1.15403
-0.0539953
1.16422
-0.0520776
1.17404
-0.0502346
1.18353
-0.0484645
1.19268
-0.0467653
1.20152
-0.0451344
1.21005
-0.0435689
1.21829
-0.042068
1.22625
-0.0406316
1.23395
-0.0392573
1.24139
-0.0379434
1.24858
-0.0366883
1.25554
-0.0354891
1.26228
-0.0343427
1.2688
-0.0332462
1.27512
-0.0321965
1.28124
-0.0311904
1.28716
-0.0302252
1.29291
-0.0292983
1.29848
-0.0284077
1.30388
-0.0275518
1.30912
-0.026729
1.31421
-0.0259379
1.31915
-0.0251763
1.32395
-0.0244433
1.32861
-0.0237367
1.33313
-0.0230561
1.33753
-0.0224024
1.34181
-0.021771
1.34596
-0.0211582
1.35
-0.0205645
1.35393
-0.0199894
1.35774
-0.0194318
1.36146
-0.0188927
1.36507
-0.0183704
1.36859
-0.017864
1.37201
-0.0173729
1.37535
-0.0168983
1.3786
-0.0164428
1.38177
-0.016004
1.38486
-0.0155802
1.38788
-0.0151699
1.39082
-0.0147721
1.3937
-0.0143862
1.3965
-0.0140116
1.39924
-0.0136481
1.40191
-0.013295
1.40452
-0.0129524
1.40706
-0.0126207
1.40955
-0.0123007
1.41198
-0.0119936
1.41436
-0.0116984
1.41669
-0.0114134
1.41897
-0.0111367
1.4212
-0.0108699
1.42338
-0.0106095
1.42552
-0.0103496
1.4276
-0.0100856
1.42964
-0.00981329
1.43163
-0.00952161
1.43356
-0.0091935
1.43542
-0.00880992
-0.00838231
0.791261
-0.205244
0.794716
-0.194906
0.802868
-0.191378
0.814333
-0.187482
0.828076
-0.182283
0.843308
-0.176831
0.85951
-0.171594
0.876371
-0.166567
0.893645
-0.161688
0.911144
-0.156961
0.928734
-0.152407
0.946301
-0.148025
0.963759
-0.143801
0.98103
-0.139689
0.998046
-0.135652
1.01476
-0.131687
1.03112
-0.127805
1.04709
-0.123992
1.06264
-0.120246
1.07774
-0.116553
1.09236
-0.112906
1.10649
-0.109307
1.12016
-0.105763
1.13335
-0.10228
1.14609
-0.0988626
1.15839
-0.0955149
1.17026
-0.0922445
1.18172
-0.0890531
1.19278
-0.0859425
1.20346
-0.0829188
1.21376
-0.0799824
1.22371
-0.0771356
1.2333
-0.0743805
1.24256
-0.0717203
1.2515
-0.0691558
1.26013
-0.0666864
1.26845
-0.0643109
1.27648
-0.0620262
1.28423
-0.0598298
1.29172
-0.0577182
1.29894
-0.0556906
1.30592
-0.0537442
1.31266
-0.051875
1.31918
-0.0500799
1.32547
-0.0483591
1.33155
-0.0467128
1.33743
-0.0451377
1.34312
-0.0436315
1.34862
-0.0421924
1.35395
-0.0408166
1.35911
-0.0395002
1.36411
-0.0382399
1.36894
-0.0370321
1.37363
-0.0358738
1.37817
-0.0347624
1.38256
-0.0336955
1.38683
-0.0326711
1.39097
-0.0316872
1.39498
-0.0307417
1.39888
-0.0298328
1.40266
-0.0289575
1.40633
-0.028115
1.4099
-0.0273022
1.41336
-0.0265187
1.41673
-0.0257679
1.42
-0.0250419
1.42318
-0.0243361
1.42627
-0.0236538
1.42928
-0.0229949
1.43221
-0.0223569
1.43506
-0.021743
1.43784
-0.0211493
1.44056
-0.0205755
1.4432
-0.0200202
1.44579
-0.0194841
1.44832
-0.0189723
1.4508
-0.0184784
1.45322
-0.0180003
1.45559
-0.017537
1.45791
-0.0170876
1.46018
-0.016652
1.4624
-0.0162295
1.46457
-0.0158203
1.4667
-0.0154234
1.46879
-0.0150377
1.47084
-0.014665
1.47284
-0.0143061
1.47481
-0.0139618
1.47675
-0.0136315
1.47865
-0.0133126
1.48052
-0.0130011
1.48235
-0.0127005
1.48415
-0.0124075
1.48592
-0.0121181
1.48766
-0.0118246
1.48937
-0.0115203
1.49104
-0.0111964
1.49269
-0.0108373
1.49429
-0.0104151
-0.00994539
1.13842
-0.195046
1.13414
-0.190653
1.13336
-0.190618
1.13483
-0.188983
1.13832
-0.18579
1.14352
-0.182062
1.1501
-0.178193
1.15775
-0.174237
1.16625
-0.170209
1.17542
-0.166152
1.18508
-0.162083
1.19505
-0.158013
1.2052
-0.153962
1.21542
-0.14992
1.22565
-0.145883
1.23582
-0.141866
1.24589
-0.13788
1.25581
-0.133919
1.26554
-0.129981
1.27506
-0.126075
1.28436
-0.122207
1.29343
-0.118379
1.30226
-0.114596
1.31085
-0.110867
1.31919
-0.107201
1.32728
-0.103606
1.33513
-0.100092
1.34275
-0.0966627
1.35012
-0.0933154
1.35727
-0.090058
1.36418
-0.0868952
1.37088
-0.0838296
1.37736
-0.0808609
1.38364
-0.0779921
1.38971
-0.0752242
1.39558
-0.0725556
1.40126
-0.0699853
1.40674
-0.0675111
1.41205
-0.0651317
1.41717
-0.0628428
1.42213
-0.0606444
1.42692
-0.0585332
1.43155
-0.0565047
1.43603
-0.0545582
1.44037
-0.0526952
1.44457
-0.050914
1.44864
-0.0492103
1.45259
-0.0475808
1.45642
-0.0460215
1.46014
-0.0445281
1.46373
-0.0430965
1.46722
-0.0417244
1.4706
-0.0404084
1.47387
-0.0391462
1.47705
-0.0379357
1.48013
-0.0367744
1.48312
-0.0356596
1.48602
-0.0345892
1.48884
-0.0335603
1.49158
-0.0325708
1.49424
-0.0316171
1.49683
-0.0306988
1.49934
-0.0298126
1.50178
-0.0289566
1.50415
-0.0281354
1.50645
-0.0273429
1.50869
-0.0265765
1.51088
-0.0258393
1.51301
-0.0251291
1.5151
-0.0244441
1.51715
-0.0237878
1.51916
-0.0231537
1.52113
-0.0225434
1.52306
-0.0219549
1.52497
-0.0213871
1.52684
-0.0208444
1.52868
-0.0203167
1.53049
-0.0198051
1.53226
-0.0193099
1.53401
-0.0188305
1.53572
-0.0183675
1.53742
-0.0179193
1.53908
-0.0174871
1.54073
-0.0170691
1.54236
-0.0166625
1.54397
-0.01627
1.54556
-0.0158934
1.54713
-0.0155328
1.54868
-0.0151849
1.55022
-0.0148453
1.55174
-0.0145149
1.55324
-0.0141978
1.55472
-0.0138895
1.55619
-0.0135872
1.55765
-0.0132792
1.55909
-0.0129612
1.56052
-0.0126261
1.56195
-0.0122622
1.56336
-0.0118308
-0.0113484
1.39729
-0.180416
1.38888
-0.182274
1.38383
-0.185585
1.38092
-0.18609
1.37997
-0.184858
1.38078
-0.182892
1.38302
-0.180452
1.3864
-0.177636
1.39068
-0.174502
1.39563
-0.171114
1.40107
-0.167534
1.40684
-0.163798
1.41284
-0.15997
1.41899
-0.156081
1.42523
-0.152131
1.43148
-0.148124
1.43768
-0.144086
1.44379
-0.140032
1.44978
-0.135981
1.45565
-0.131948
1.46138
-0.127941
1.46697
-0.123966
1.4724
-0.120034
1.47769
-0.116155
1.48283
-0.112337
1.48781
-0.108589
1.49264
-0.104916
1.4973
-0.101327
1.50181
-0.0978224
1.50616
-0.0944092
1.51037
-0.0910969
1.51443
-0.0878874
1.51835
-0.084777
1.52213
-0.0817712
1.52578
-0.0788711
1.5293
-0.0760726
1.53269
-0.0733751
1.53596
-0.0707787
1.53911
-0.0682841
1.54216
-0.0658864
1.54511
-0.0635883
1.54796
-0.0613877
1.55074
-0.0592767
1.55344
-0.0572543
1.55606
-0.0553197
1.55862
-0.0534675
1.5611
-0.0516956
1.56352
-0.049999
1.56588
-0.0483713
1.56816
-0.0468098
1.57037
-0.0453104
1.57252
-0.0438721
1.57461
-0.0424917
1.57663
-0.041167
1.57859
-0.039897
1.5805
-0.0386793
1.58235
-0.0375105
1.58415
-0.0363872
1.5859
-0.0353068
1.5876
-0.0342674
1.58925
-0.0332672
1.59086
-0.0323059
1.59243
-0.0313804
1.59396
-0.0304872
1.59546
-0.0296325
1.59693
-0.0288124
1.59837
-0.0280224
1.5998
-0.0272634
1.60121
-0.026535
1.6026
-0.0258343
1.60398
-0.0251627
1.60534
-0.0245154
1.60669
-0.0238932
1.60803
-0.0232926
1.60935
-0.0227107
1.61066
-0.0221532
1.61196
-0.021613
1.61325
-0.0210928
1.61453
-0.0205914
1.61581
-0.0201078
1.61709
-0.0196428
1.61836
-0.0191936
1.61964
-0.0187623
1.62092
-0.0183463
1.6222
-0.0179425
1.62349
-0.0175533
1.62477
-0.0171799
1.62606
-0.016821
1.62735
-0.0164733
1.62864
-0.0161316
1.62993
-0.0157991
1.63121
-0.0154826
1.6325
-0.0151776
1.6338
-0.0148809
1.6351
-0.0145744
1.6364
-0.0142633
1.63772
-0.013942
1.63905
-0.0135954
1.6404
-0.0131851
-0.0127247
1.54806
-0.161474
1.535
-0.169241
1.52581
-0.17641
1.51937
-0.179673
1.5153
-0.180802
1.51328
-0.180888
1.51299
-0.180176
1.51411
-0.178769
1.51637
-0.176772
1.51954
-0.174301
1.52344
-0.171455
1.52795
-0.168312
1.53291
-0.16495
1.53823
-0.161411
1.5438
-0.157706
1.54952
-0.153858
1.55533
-0.149902
1.56115
-0.145868
1.56696
-0.14179
1.57269
-0.137691
1.57833
-0.133589
1.58387
-0.129502
1.58927
-0.125442
1.59453
-0.121422
1.59965
-0.117451
1.60459
-0.113539
1.60937
-0.109694
1.61397
-0.105928
1.6184
-0.102243
1.62264
-0.0986457
1.62669
-0.0951442
1.63054
-0.0917374
1.63419
-0.088427
1.63765
-0.0852224
1.6409
-0.0821244
1.64397
-0.079133
1.64685
-0.0762516
1.64955
-0.073481
1.65209
-0.0708207
1.65448
-0.068266
1.65671
-0.065818
1.6588
-0.0634731
1.66075
-0.0612279
1.66258
-0.0590825
1.6643
-0.0570325
1.66591
-0.0550718
1.66741
-0.0532003
1.66883
-0.0514121
1.67016
-0.0497005
1.67142
-0.0480652
1.67261
-0.0465023
1.67375
-0.0450097
1.67484
-0.0435821
1.67589
-0.0422176
1.67691
-0.0409136
1.6779
-0.0396655
1.67886
-0.03847
1.6798
-0.0373237
1.68072
-0.0362251
1.68162
-0.035172
1.68252
-0.0341621
1.68341
-0.0331936
1.68429
-0.0322636
1.68518
-0.0313702
1.68607
-0.0305185
1.68696
-0.0297022
1.68785
-0.0289165
1.68875
-0.0281621
1.68966
-0.027438
1.69057
-0.0267421
1.69148
-0.0260756
1.6924
-0.0254346
1.69333
-0.0248172
1.69426
-0.0242202
1.69519
-0.0236431
1.69613
-0.0230929
1.69708
-0.0225646
1.69805
-0.0220579
1.69903
-0.0215722
1.70003
-0.0211069
1.70105
-0.0206612
1.70209
-0.020233
1.70316
-0.019824
1.70424
-0.0194304
1.70535
-0.0190504
1.70648
-0.0186821
1.70763
-0.0183298
1.7088
-0.0179921
1.71
-0.0176669
1.71122
-0.0173507
1.71246
-0.0170423
1.71373
-0.0167472
1.71501
-0.0164607
1.71632
-0.0161848
1.71765
-0.0159037
1.71901
-0.0156239
1.7204
-0.0153327
1.72183
-0.0150249
1.72331
-0.0146661
-0.014262
1.6127
-0.140255
1.59668
-0.153232
1.58448
-0.164218
1.57551
-0.170711
1.56922
-0.174527
1.56513
-0.1768
1.56284
-0.177899
1.56207
-0.178006
1.56257
-0.177281
1.56414
-0.175876
1.5666
-0.173925
1.56981
-0.171531
1.57363
-0.168783
1.57795
-0.165741
1.58269
-0.162447
1.58776
-0.158942
1.59312
-0.155268
1.5987
-0.151463
1.60447
-0.147564
1.61037
-0.143598
1.61636
-0.139591
1.62242
-0.135564
1.62851
-0.131535
1.6346
-0.127518
1.64067
-0.123529
1.64671
-0.119581
1.6527
-0.115683
1.65862
-0.111848
1.66446
-0.108083
1.6702
-0.104388
1.67583
-0.100771
1.68134
-0.097244
1.68671
-0.0938031
1.69195
-0.0904537
1.69703
-0.0872053
1.70196
-0.0840592
1.70673
-0.0810158
1.71133
-0.078076
1.71575
-0.0752413
1.71999
-0.0725024
1.72404
-0.0698624
1.72789
-0.0673269
1.73155
-0.0648844
1.735
-0.0625295
1.73824
-0.0602697
1.74128
-0.0581037
1.7441
-0.0560251
1.74672
-0.0540305
1.74915
-0.0521205
1.75138
-0.0502971
1.75344
-0.0485573
1.75533
-0.0468995
1.75707
-0.0453184
1.75866
-0.0438115
1.76012
-0.042375
1.76146
-0.0410048
1.76269
-0.0396986
1.76383
-0.038454
1.76487
-0.0372695
1.76584
-0.0361425
1.76675
-0.0350704
1.76761
-0.0340506
1.76843
-0.0330807
1.76922
-0.0321582
1.76999
-0.0312845
1.77074
-0.0304545
1.77149
-0.0296644
1.77224
-0.0289106
1.77299
-0.0281911
1.77376
-0.0275055
1.77454
-0.026852
1.77533
-0.0262274
1.77614
-0.0256288
1.77698
-0.0250549
1.77784
-0.0245067
1.77874
-0.0239863
1.77966
-0.02349
1.78062
-0.0230157
1.78161
-0.0225635
1.78264
-0.0221319
1.7837
-0.0217198
1.78479
-0.0213261
1.78592
-0.0209511
1.78708
-0.0205919
1.78828
-0.0202468
1.78951
-0.0199125
1.79078
-0.0195953
1.79208
-0.0192936
1.79342
-0.0190062
1.79479
-0.0187289
1.79621
-0.0184585
1.79767
-0.0182028
1.79916
-0.0179557
1.8007
-0.0177212
1.80228
-0.0174826
1.80391
-0.0172533
1.8056
-0.0170207
1.80736
-0.0167861
1.8092
-0.0165123
-0.0162017
1.60991
-0.117921
1.59177
-0.135102
1.57661
-0.149061
1.56496
-0.159062
1.55639
-0.16597
1.55032
-0.17074
1.54632
-0.173899
1.54404
-0.175736
1.54321
-0.176469
1.54362
-0.176294
1.54506
-0.175379
1.54738
-0.17386
1.55044
-0.171848
1.55411
-0.16943
1.55832
-0.16667
1.563
-0.163627
1.56807
-0.16035
1.57348
-0.156886
1.57918
-0.153274
1.58512
-0.14955
1.59126
-0.145744
1.59757
-0.141881
1.60401
-0.137985
1.61056
-0.134074
1.6172
-0.130165
1.62389
-0.126275
1.63062
-0.122416
1.63737
-0.118602
1.64413
-0.11484
1.65088
-0.111137
1.65761
-0.107502
1.66431
-0.103944
1.67098
-0.100462
1.67759
-0.0970643
1.68415
-0.0937583
1.69064
-0.0905459
1.69705
-0.0874279
1.70338
-0.0844058
1.70963
-0.0814813
1.71578
-0.07865
1.72183
-0.075914
1.72779
-0.0732745
1.73363
-0.0707235
1.73936
-0.0682585
1.74498
-0.0658832
1.75047
-0.0635932
1.75583
-0.0613886
1.76108
-0.0592699
1.76619
-0.0572319
1.77117
-0.0552745
1.77601
-0.0533955
1.7807
-0.0515945
1.78525
-0.0498666
1.78965
-0.0482095
1.7939
-0.046621
1.798
-0.045099
1.80194
-0.043642
1.80574
-0.0422461
1.80938
-0.0409096
1.81287
-0.0396301
1.8162
-0.0384061
1.81939
-0.037236
1.82243
-0.0361187
1.82533
-0.0350526
1.82808
-0.0340384
1.8307
-0.0330726
1.83319
-0.032154
1.83556
-0.031279
1.83782
-0.0304469
1.83997
-0.0296569
1.84203
-0.0289064
1.844
-0.0281954
1.84589
-0.0275207
1.84772
-0.0268821
1.8495
-0.0262807
1.85123
-0.0257153
1.85292
-0.0251847
1.85459
-0.0246856
1.85625
-0.0242169
1.85789
-0.0237772
1.85954
-0.023364
1.86119
-0.0229757
1.86285
-0.0226116
1.86452
-0.0222674
1.86622
-0.0219433
1.86794
-0.0216353
1.8697
-0.0213489
1.87149
-0.0210825
1.87331
-0.0208324
1.87517
-0.0205925
1.87708
-0.020364
1.87903
-0.0201549
1.88104
-0.0199605
1.8831
-0.0197819
1.88522
-0.0196027
1.8874
-0.0194399
1.88967
-0.0192855
1.89203
-0.019146
1.89451
-0.0189988
-0.0188441
1.99285
-0.0998451
-2.01094
1.97333
-0.115581
1.95458
-0.130311
1.93716
-0.141651
1.92132
-0.150125
1.90704
-0.156462
1.89424
-0.161109
1.88284
-0.164337
1.87272
-0.166356
1.86379
-0.167358
1.85591
-0.167512
1.84901
-0.166958
1.84297
-0.165813
1.8377
-0.164172
1.83314
-0.162113
1.82921
-0.159701
1.82584
-0.156994
1.82299
-0.154044
1.82061
-0.150895
1.81864
-0.147588
1.81704
-0.144155
1.81579
-0.140629
1.81483
-0.137033
1.81414
-0.133391
1.8137
-0.129724
1.81346
-0.126048
1.81343
-0.122379
1.81355
-0.118733
1.81383
-0.115119
1.81424
-0.111548
1.81477
-0.108027
1.81539
-0.104565
1.8161
-0.101169
1.81688
-0.097845
1.81772
-0.0945993
1.81862
-0.091436
1.81955
-0.0883573
1.82051
-0.0853655
1.82149
-0.0824619
1.82249
-0.0796455
1.8235
-0.0769175
1.8245
-0.074278
1.8255
-0.0717236
1.8265
-0.0692528
1.82749
-0.0668664
1.82846
-0.0645621
1.82941
-0.0623405
1.83034
-0.0602013
1.83125
-0.0581399
1.83214
-0.0561555
1.83299
-0.0542467
1.83381
-0.0524115
1.83459
-0.0506469
1.83533
-0.0489514
1.83603
-0.0473225
1.83669
-0.0457584
1.83731
-0.0442573
1.83788
-0.0428162
1.83841
-0.0414325
1.83888
-0.0401037
1.8393
-0.0388281
1.83967
-0.0376039
1.83999
-0.0364297
1.84024
-0.0353036
1.84043
-0.0342251
1.84055
-0.0331912
1.84059
-0.0322012
1.84057
-0.0312524
1.84047
-0.0303439
1.84029
-0.0294747
1.84002
-0.0286423
1.83968
-0.0278475
1.83924
-0.0270868
1.83872
-0.0263608
1.83811
-0.0256711
1.83741
-0.0250147
1.83662
-0.0243932
1.83574
-0.0238028
1.83477
-0.0232444
1.83371
-0.0227175
1.83257
-0.0222195
1.83134
-0.0217513
1.83004
-0.0213106
1.82867
-0.0208958
1.82723
-0.0205088
1.82574
-0.0201435
1.8242
-0.0198096
1.82262
-0.0195035
1.82101
-0.0192219
1.81938
-0.0189627
1.81774
-0.0187252
1.8161
-0.0185143
1.81447
-0.0183274
1.81285
-0.0181633
1.81126
-0.0180099
1.8097
-0.0178822
1.80818
-0.0177693
1.80673
-0.0176987
1.80541
-0.0176763
-0.017764
2.01207
-0.0818981
-2.03003
1.99464
-0.0981536
1.97762
-0.113291
1.96175
-0.12578
1.9472
-0.135575
1.93393
-0.143196
1.92188
-0.14906
1.91097
-0.153436
1.90114
-0.156532
1.89231
-0.158536
1.88441
-0.159616
1.87736
-0.159914
1.87109
-0.15955
1.86553
-0.158622
1.86063
-0.157216
1.85632
-0.155401
1.85256
-0.15324
1.84929
-0.150788
1.84648
-0.148094
1.84409
-0.1452
1.84207
-0.142143
1.84039
-0.138957
1.83902
-0.135669
1.83793
-0.132306
1.8371
-0.128889
1.83648
-0.125439
1.83608
-0.121973
1.83585
-0.118507
1.83578
-0.115054
1.83586
-0.111626
1.83607
-0.108233
1.83639
-0.104883
1.83681
-0.101586
1.83731
-0.0983478
1.83789
-0.0951761
1.83853
-0.0920754
1.83923
-0.0890494
1.83997
-0.086101
1.84074
-0.0832321
1.84154
-0.0804436
1.84236
-0.0777365
1.8432
-0.0751113
1.84404
-0.0725668
1.84489
-0.0701024
1.84575
-0.0677181
1.8466
-0.065413
1.84745
-0.0631871
1.84829
-0.0610396
1.84912
-0.0589683
1.84994
-0.0569721
1.85074
-0.0550491
1.85153
-0.0531976
1.8523
-0.0514159
1.85305
-0.0497017
1.85378
-0.0480528
1.85449
-0.0464678
1.85518
-0.0449449
1.85585
-0.0434815
1.85649
-0.0420754
1.85712
-0.0407244
1.85772
-0.0394266
1.85829
-0.0381797
1.85885
-0.0369826
1.85938
-0.0358336
1.85989
-0.034731
1.86037
-0.0336728
1.86083
-0.0326574
1.86126
-0.0316837
1.86167
-0.0307496
1.86205
-0.0298539
1.8624
-0.0289956
1.86273
-0.0281736
1.86303
-0.0273853
1.8633
-0.0266313
1.86354
-0.0259118
1.86375
-0.025224
1.86393
-0.0245689
1.86407
-0.023944
1.86417
-0.0233492
1.86424
-0.0227832
1.86427
-0.0222445
1.86425
-0.0217327
1.86418
-0.021246
1.86407
-0.0207843
1.86391
-0.0203477
1.8637
-0.0199332
1.86344
-0.0195462
1.86312
-0.0191845
1.86275
-0.0188468
1.86231
-0.0185321
1.86183
-0.0182407
1.86129
-0.017976
1.8607
-0.0177376
1.86006
-0.0175251
1.85938
-0.0173328
1.85867
-0.0171717
1.85794
-0.0170369
1.8572
-0.0169562
1.85647
-0.0169483
-0.0171228
2.02344
-0.0644959
-2.04084
2.00714
-0.0818555
1.99139
-0.097535
1.9765
-0.11089
1.96267
-0.12175
1.94993
-0.130456
1.93825
-0.137378
1.92759
-0.142776
1.91791
-0.146851
1.90916
-0.149783
1.90127
-0.151732
1.89419
-0.152838
1.88786
-0.153222
1.88222
-0.152984
1.87721
-0.152211
1.87279
-0.150979
1.86889
-0.149352
1.86549
-0.14739
1.86253
-0.145143
1.85998
-0.142656
1.8578
-0.139971
1.85596
-0.137121
1.85443
-0.13414
1.85317
-0.131054
1.85217
-0.127887
1.85139
-0.124663
1.85081
-0.121401
1.85042
-0.118117
1.85019
-0.114827
1.85011
-0.111545
1.85016
-0.108281
1.85033
-0.105047
1.85059
-0.101851
1.85095
-0.0987024
1.85138
-0.095608
1.85188
-0.0925738
1.85244
-0.0896045
1.85304
-0.0867035
1.85368
-0.0838739
1.85436
-0.0811175
1.85506
-0.0784361
1.85578
-0.0758306
1.85652
-0.0733008
1.85726
-0.0708471
1.85802
-0.0684695
1.85877
-0.0661678
1.85953
-0.0639418
1.86028
-0.061791
1.86103
-0.0597143
1.86177
-0.0577101
1.8625
-0.0557775
1.86322
-0.0539148
1.86392
-0.0521202
1.86461
-0.0503919
1.86529
-0.0487287
1.86595
-0.0471279
1.8666
-0.0455883
1.86722
-0.044108
1.86783
-0.0426843
1.86843
-0.0413158
1.869
-0.0400004
1.86956
-0.0387368
1.8701
-0.0375225
1.87062
-0.0363557
1.87113
-0.0352361
1.87162
-0.034162
1.87209
-0.033131
1.87255
-0.0321415
1.873
-0.0311926
1.87342
-0.0302819
1.87384
-0.0294084
1.87424
-0.0285715
1.87462
-0.0277703
1.87499
-0.0270039
1.87535
-0.0262711
1.8757
-0.0255718
1.87604
-0.0249047
1.87636
-0.0242681
1.87668
-0.0236613
1.87698
-0.0230835
1.87727
-0.0225331
1.87754
-0.0220095
1.87781
-0.0215115
1.87806
-0.0210383
1.87831
-0.0205899
1.87854
-0.0201651
1.87876
-0.0197658
1.87896
-0.0193915
1.87916
-0.0190409
1.87934
-0.0187137
1.87951
-0.0184101
1.87966
-0.0181324
1.87981
-0.0178802
1.87993
-0.0176536
1.88005
-0.0174528
1.88016
-0.0172828
1.88027
-0.0171455
1.88037
-0.0170572
1.88046
-0.017032
-0.0171125
2.02865
-0.0479855
-2.04516
2.01328
-0.0664791
1.99858
-0.082834
1.98463
-0.0969396
1.97159
-0.108716
1.95953
-0.118392
1.94842
-0.126271
1.93824
-0.132599
1.92896
-0.137568
1.92052
-0.141351
1.91289
-0.144101
1.906
-0.145957
1.89981
-0.147038
1.89427
-0.147445
1.88932
-0.147269
1.88492
-0.146586
1.88103
-0.145466
1.8776
-0.143969
1.8746
-0.14215
1.872
-0.140054
1.86975
-0.137726
1.86782
-0.135203
1.8662
-0.132519
1.86484
-0.129702
1.86373
-0.126781
1.86284
-0.123778
1.86216
-0.120716
1.86165
-0.117612
1.86131
-0.114484
1.86111
-0.111347
1.86104
-0.108212
1.86109
-0.105093
1.86124
-0.101999
1.86147
-0.0989407
1.86179
-0.095925
1.86218
-0.092959
1.86263
-0.0900482
1.86312
-0.0871971
1.86366
-0.0844094
1.86423
-0.0816878
1.86483
-0.0790347
1.86546
-0.0764517
1.8661
-0.0739397
1.86675
-0.0714994
1.86741
-0.0691312
1.86808
-0.0668354
1.86876
-0.0646121
1.86943
-0.062461
1.8701
-0.0603814
1.87076
-0.0583722
1.87142
-0.0564327
1.87206
-0.0545613
1.8727
-0.0527567
1.87333
-0.0510174
1.87394
-0.0493417
1.87454
-0.0477284
1.87513
-0.046175
1.87571
-0.0446799
1.87626
-0.0432414
1.87681
-0.0418576
1.87733
-0.0405269
1.87785
-0.0392482
1.87835
-0.0380194
1.87883
-0.0368387
1.8793
-0.0357051
1.87976
-0.0346168
1.8802
-0.033572
1.88063
-0.0325692
1.88104
-0.0316071
1.88144
-0.0306839
1.88183
-0.0297987
1.88221
-0.0289506
1.88258