/*--------------------------------*- C++ -*----------------------------------*\
  =========                 |
  \\      /  F ield         | OpenFOAM: The Open Source CFD Toolbox
   \\    /   O peration     | Website:  https://openfoam.org
    \\  /    A nd           | Version:  8
     \\/     M anipulation  |
\*---------------------------------------------------------------------------*/
FoamFile
{
    version     2.0;
    format      ascii;
    class       volScalarField;
    location    "4.500037302";
    object      rho;
}
// * * * * * * * * * * * * * * * * * * * * * * * * * * * * * * * * * * * * * //

dimensions      [1 -3 0 0 0 0 0];

internalField   nonuniform List<scalar> 
6800
(
0.590265
0.590437
0.590486
0.590545
0.59065
0.590823
0.590969
0.591078
0.591161
0.591208
0.59025
0.590395
0.590425
0.590543
0.590759
0.590899
0.591004
0.591094
0.591166
0.591239
0.58982
0.590223
0.590338
0.590587
0.59075
0.590873
0.590987
0.59108
0.591168
0.591236
0.589246
0.590019
0.590271
0.590487
0.590676
0.590826
0.590944
0.59104
0.591127
0.591204
0.588676
0.589794
0.590038
0.590354
0.590577
0.590733
0.590861
0.590973
0.591076
0.59117
0.588024
0.589482
0.589812
0.590191
0.590435
0.590625
0.590774
0.590909
0.591027
0.591131
0.587448
0.589203
0.589541
0.590011
0.590299
0.590516
0.590685
0.590839
0.590975
0.591097
0.586901
0.5889
0.589312
0.589858
0.590173
0.590415
0.590611
0.590791
0.590942
0.591074
0.586499
0.588685
0.589115
0.589729
0.590065
0.590337
0.590559
0.590757
0.59092
0.591064
0.586206
0.588497
0.588992
0.589649
0.589998
0.590296
0.590537
0.590748
0.590921
0.591072
0.590376
0.590275
0.590219
0.590211
0.590224
0.590252
0.590295
0.590348
0.590414
0.590489
0.59034
0.590255
0.590205
0.590197
0.590209
0.590238
0.590282
0.590341
0.590414
0.590498
0.590274
0.590213
0.590178
0.590174
0.59019
0.590224
0.590276
0.590347
0.590435
0.590535
0.590193
0.590161
0.590148
0.590156
0.590181
0.590225
0.590294
0.590387
0.590495
0.590613
0.590115
0.590124
0.590132
0.590158
0.590201
0.59027
0.590364
0.590465
0.590582
0.590699
0.590071
0.590103
0.590147
0.590206
0.590285
0.590382
0.590478
0.590566
0.590678
0.590776
0.590027
0.590113
0.590207
0.590321
0.590438
0.590523
0.590596
0.590665
0.590762
0.590847
0.590012
0.590156
0.590312
0.590505
0.590576
0.590622
0.590673
0.590743
0.59083
0.590962
0.589993
0.590209
0.590503
0.590602
0.590627
0.590657
0.590728
0.590835
0.590961
0.591117
0.59003
0.590339
0.590546
0.590583
0.590621
0.590699
0.590839
0.590982
0.591113
0.591223
0.590583
0.590682
0.590763
0.590832
0.590894
0.59095
0.591001
0.59105
0.591094
0.591135
0.591174
0.59121
0.591245
0.591278
0.59131
0.59134
0.59137
0.591398
0.591426
0.591452
0.591478
0.591504
0.591528
0.591551
0.591572
0.591592
0.591611
0.591627
0.591641
0.591654
0.591664
0.591673
0.59168
0.591685
0.591689
0.591691
0.591693
0.591694
0.591695
0.591694
0.591694
0.591693
0.591693
0.591693
0.591691
0.591692
0.59169
0.591688
0.591684
0.591682
0.591683
0.591685
0.591688
0.591693
0.591699
0.591706
0.591714
0.591723
0.591732
0.591741
0.59175
0.59176
0.591769
0.591778
0.591786
0.591794
0.591802
0.591809
0.591815
0.591821
0.591826
0.59183
0.591834
0.591837
0.59184
0.591842
0.591844
0.591846
0.591847
0.591848
0.59185
0.591851
0.591852
0.591852
0.591854
0.591854
0.591854
0.591852
0.591853
0.591851
0.591847
0.591846
0.591845
0.591841
0.591837
0.591835
0.591833
0.591829
0.591825
0.591824
0.59059
0.59069
0.59077
0.590839
0.590899
0.590954
0.591005
0.591051
0.591095
0.591135
0.591174
0.59121
0.591245
0.591278
0.59131
0.591341
0.591371
0.5914
0.591429
0.591456
0.591483
0.591508
0.591532
0.591554
0.591575
0.591595
0.591612
0.591627
0.591641
0.591652
0.591662
0.59167
0.591676
0.591681
0.591685
0.591687
0.591689
0.59169
0.59169
0.59169
0.591689
0.591689
0.591689
0.591689
0.591688
0.591688
0.591685
0.591683
0.591681
0.591681
0.591683
0.591685
0.591689
0.591695
0.591701
0.591708
0.591716
0.591724
0.591733
0.591742
0.591751
0.59176
0.591769
0.591778
0.591786
0.591793
0.591801
0.591807
0.591813
0.591818
0.591823
0.591827
0.59183
0.591833
0.591836
0.591838
0.59184
0.591842
0.591843
0.591844
0.591846
0.591847
0.591848
0.591848
0.59185
0.59185
0.591851
0.591849
0.591849
0.591847
0.591845
0.591841
0.591842
0.591838
0.591833
0.59183
0.591828
0.591825
0.591822
0.591821
0.590621
0.590718
0.590796
0.590862
0.590921
0.590973
0.591021
0.591066
0.591107
0.591146
0.591184
0.591219
0.591253
0.591286
0.591319
0.59135
0.59138
0.59141
0.591438
0.591465
0.591491
0.591515
0.591538
0.59156
0.591579
0.591597
0.591613
0.591627
0.591639
0.59165
0.591658
0.591666
0.591672
0.591676
0.59168
0.591682
0.591684
0.591685
0.591685
0.591685
0.591685
0.591685
0.591685
0.591687
0.591684
0.591682
0.591681
0.591681
0.591681
0.591682
0.591684
0.591688
0.591692
0.591698
0.591704
0.591711
0.591719
0.591727
0.591735
0.591744
0.591752
0.59176
0.591769
0.591776
0.591784
0.591791
0.591797
0.591803
0.591808
0.591813
0.591817
0.591821
0.591824
0.591827
0.591829
0.591831
0.591833
0.591834
0.591836
0.591837
0.591838
0.591839
0.59184
0.591841
0.591842
0.591842
0.591842
0.591843
0.591843
0.591841
0.59184
0.591837
0.591837
0.591833
0.591831
0.591829
0.591825
0.591822
0.591819
0.591818
0.59067
0.590753
0.590828
0.590891
0.590947
0.590998
0.591045
0.591088
0.591129
0.591168
0.591205
0.59124
0.591274
0.591306
0.591338
0.591369
0.591398
0.591427
0.591454
0.59148
0.591505
0.591528
0.591549
0.591568
0.591586
0.591602
0.591617
0.591629
0.59164
0.59165
0.591658
0.591665
0.59167
0.591675
0.591678
0.591681
0.591683
0.591684
0.591685
0.591685
0.591686
0.591686
0.591686
0.591686
0.591686
0.591685
0.591685
0.591686
0.591687
0.591689
0.591692
0.591695
0.5917
0.591705
0.591711
0.591717
0.591724
0.591731
0.591739
0.591746
0.591754
0.591761
0.591768
0.591775
0.591782
0.591788
0.591793
0.591798
0.591803
0.591807
0.59181
0.591814
0.591816
0.591819
0.591821
0.591822
0.591824
0.591825
0.591827
0.591828
0.591829
0.59183
0.591831
0.591832
0.591833
0.591835
0.591835
0.591834
0.591834
0.591833
0.591834
0.591831
0.591829
0.591828
0.591826
0.591825
0.591821
0.591818
0.591815
0.591815
0.590715
0.590783
0.590859
0.590923
0.590979
0.59103
0.591079
0.591124
0.591167
0.591207
0.591246
0.591282
0.591316
0.591349
0.59138
0.59141
0.591439
0.591466
0.591491
0.591515
0.591537
0.591558
0.591577
0.591594
0.591609
0.591623
0.591635
0.591646
0.591656
0.591664
0.591671
0.591677
0.591682
0.591686
0.591689
0.591692
0.591694
0.591696
0.591697
0.591698
0.591698
0.591699
0.591699
0.5917
0.5917
0.591701
0.591701
0.591703
0.591704
0.591707
0.591709
0.591713
0.591717
0.591721
0.591726
0.591732
0.591737
0.591743
0.591749
0.591755
0.591761
0.591767
0.591773
0.591779
0.591784
0.591789
0.591793
0.591797
0.591801
0.591804
0.591807
0.591809
0.591812
0.591813
0.591815
0.591816
0.591818
0.591819
0.59182
0.591821
0.591822
0.591823
0.591824
0.591825
0.591826
0.591827
0.591828
0.591828
0.591829
0.591828
0.591829
0.591828
0.591826
0.591823
0.591823
0.591821
0.591818
0.591814
0.591813
0.591812
0.590758
0.590825
0.590911
0.590984
0.591045
0.5911
0.591153
0.591201
0.591248
0.59129
0.591331
0.591368
0.591402
0.591434
0.591464
0.591492
0.591518
0.591543
0.591565
0.591585
0.591604
0.591621
0.591636
0.59165
0.591663
0.591674
0.591684
0.591692
0.5917
0.591707
0.591712
0.591717
0.591721
0.591724
0.591727
0.591729
0.591731
0.591733
0.591734
0.591735
0.591735
0.591736
0.591736
0.591737
0.591737
0.591737
0.591738
0.591739
0.59174
0.591741
0.591743
0.591745
0.591747
0.59175
0.591754
0.591757
0.591761
0.591765
0.591769
0.591774
0.591778
0.591782
0.591786
0.59179
0.591794
0.591798
0.591801
0.591804
0.591806
0.591809
0.591811
0.591812
0.591814
0.591815
0.591816
0.591817
0.591818
0.591819
0.591819
0.59182
0.591821
0.591821
0.591822
0.591823
0.591824
0.591825
0.591825
0.591826
0.591828
0.591827
0.591826
0.591827
0.591825
0.591824
0.591823
0.591822
0.591818
0.591815
0.591814
0.591812
0.590817
0.590893
0.590995
0.591082
0.591154
0.591219
0.59128
0.591337
0.59139
0.591437
0.59148
0.59152
0.591556
0.591589
0.591619
0.591645
0.591668
0.591689
0.591707
0.591723
0.591737
0.591749
0.59176
0.591769
0.591777
0.591784
0.59179
0.591795
0.591799
0.591802
0.591805
0.591807
0.591808
0.591809
0.59181
0.59181
0.59181
0.59181
0.59181
0.59181
0.591809
0.591808
0.591807
0.591807
0.591806
0.591805
0.591805
0.591804
0.591804
0.591803
0.591803
0.591803
0.591803
0.591803
0.591804
0.591805
0.591806
0.591808
0.59181
0.591812
0.591813
0.591815
0.591817
0.591819
0.591821
0.591823
0.591824
0.591825
0.591827
0.591828
0.591828
0.591829
0.591829
0.59183
0.59183
0.59183
0.59183
0.59183
0.59183
0.59183
0.59183
0.591831
0.591831
0.591831
0.591831
0.591832
0.591832
0.591833
0.591833
0.591833
0.591832
0.591833
0.59183
0.59183
0.591829
0.591826
0.591824
0.591823
0.59182
0.591819
0.590934
0.591007
0.591117
0.591213
0.591293
0.591364
0.591429
0.59149
0.591545
0.591595
0.591641
0.591682
0.59172
0.591755
0.591785
0.591813
0.591837
0.591858
0.591876
0.591892
0.591905
0.591917
0.591926
0.591934
0.591941
0.591947
0.591951
0.591954
0.591957
0.591959
0.59196
0.59196
0.591959
0.591958
0.591956
0.591954
0.591951
0.591948
0.591946
0.591942
0.591938
0.591934
0.59193
0.591926
0.591921
0.591917
0.591914
0.591911
0.591908
0.591904
0.591899
0.591896
0.591892
0.591888
0.591885
0.591883
0.591881
0.591879
0.591877
0.591876
0.591875
0.591874
0.591873
0.591872
0.591872
0.591871
0.59187
0.59187
0.591869
0.591868
0.591867
0.591866
0.591865
0.591864
0.591863
0.591862
0.591861
0.59186
0.591859
0.591858
0.591857
0.591856
0.591855
0.591854
0.591854
0.591853
0.591852
0.591852
0.591851
0.591851
0.59185
0.591848
0.591848
0.591846
0.591845
0.591844
0.591842
0.591839
0.591837
0.591836
0.591093
0.591155
0.591254
0.591348
0.591428
0.591499
0.591564
0.591623
0.591677
0.591727
0.591771
0.591812
0.591848
0.591881
0.59191
0.591935
0.591958
0.591978
0.591996
0.592011
0.592024
0.592037
0.592047
0.592057
0.592065
0.592073
0.592079
0.592085
0.59209
0.592094
0.592098
0.592101
0.592103
0.592105
0.592105
0.592106
0.592104
0.592102
0.5921
0.592099
0.592095
0.592091
0.592089
0.592085
0.592079
0.592075
0.592072
0.592068
0.592062
0.592055
0.592048
0.592041
0.592034
0.592027
0.59202
0.592013
0.592006
0.592
0.591994
0.591987
0.591982
0.591976
0.591971
0.591966
0.591962
0.591958
0.591954
0.59195
0.591946
0.591942
0.591939
0.591935
0.591932
0.591928
0.591925
0.591922
0.591919
0.591916
0.591913
0.59191
0.591907
0.591904
0.591901
0.591899
0.591896
0.591894
0.591891
0.591889
0.591887
0.591885
0.591882
0.59188
0.591879
0.591878
0.591876
0.591875
0.591873
0.591872
0.59187
0.591868
0.591223
0.591271
0.591353
0.591436
0.591511
0.591578
0.591639
0.591696
0.591747
0.591794
0.591836
0.591875
0.59191
0.591941
0.59197
0.591995
0.592017
0.592037
0.592055
0.592071
0.592085
0.592097
0.592108
0.592118
0.592127
0.592135
0.592141
0.592148
0.592153
0.592158
0.592161
0.592165
0.592168
0.592171
0.592174
0.592176
0.592178
0.592179
0.59218
0.59218
0.59218
0.59218
0.592178
0.592177
0.592175
0.592173
0.592171
0.592168
0.592166
0.592163
0.592159
0.592156
0.592152
0.592147
0.592143
0.592138
0.592133
0.592128
0.592123
0.592118
0.592113
0.592108
0.592102
0.592097
0.592091
0.592085
0.59208
0.592074
0.592068
0.592061
0.592055
0.592049
0.592042
0.592036
0.59203
0.592023
0.592017
0.592011
0.592005
0.591999
0.591994
0.591988
0.591983
0.591978
0.591973
0.591968
0.591964
0.59196
0.591956
0.591952
0.591948
0.591945
0.591942
0.591938
0.591935
0.591933
0.591931
0.591929
0.591927
0.591924
0.591321
0.591383
0.591453
0.591525
0.591594
0.591656
0.591714
0.591767
0.591815
0.591859
0.591899
0.591935
0.591967
0.591996
0.592022
0.592045
0.592066
0.592084
0.5921
0.592115
0.592128
0.592139
0.59215
0.592159
0.592167
0.592174
0.592181
0.592186
0.592191
0.592196
0.5922
0.592203
0.592206
0.592208
0.59221
0.592211
0.592213
0.592213
0.592214
0.592214
0.592214
0.592214
0.592213
0.592212
0.592211
0.59221
0.592208
0.592206
0.592205
0.592203
0.592201
0.5922
0.592198
0.592196
0.592194
0.592192
0.59219
0.592188
0.592185
0.592183
0.59218
0.592178
0.592175
0.592173
0.59217
0.592167
0.592164
0.592161
0.592158
0.592155
0.592151
0.592148
0.592144
0.59214
0.592135
0.592131
0.592126
0.592121
0.592116
0.592111
0.592105
0.5921
0.592094
0.592088
0.592082
0.592077
0.59207
0.592065
0.592059
0.592053
0.592048
0.592042
0.592037
0.592032
0.592027
0.592023
0.592018
0.59201
0.592007
0.592004
0.591388
0.591455
0.591526
0.591594
0.591658
0.591717
0.591771
0.59182
0.591865
0.591905
0.591942
0.591975
0.592005
0.592031
0.592055
0.592076
0.592095
0.592112
0.592127
0.59214
0.592152
0.592162
0.592172
0.59218
0.592187
0.592194
0.5922
0.592205
0.592209
0.592213
0.592216
0.592219
0.592221
0.592223
0.592224
0.592225
0.592226
0.592227
0.592228
0.592228
0.592228
0.592228
0.592227
0.592226
0.592225
0.592224
0.592223
0.592221
0.59222
0.592218
0.592217
0.592215
0.592214
0.592213
0.592211
0.59221
0.592208
0.592207
0.592205
0.592204
0.592202
0.592201
0.5922
0.592199
0.592197
0.592196
0.592195
0.592193
0.592192
0.59219
0.592189
0.592187
0.592185
0.592183
0.592181
0.592179
0.592177
0.592175
0.592173
0.592171
0.592169
0.592166
0.592164
0.592161
0.592158
0.592155
0.592152
0.592149
0.592146
0.592142
0.592138
0.592134
0.59213
0.592126
0.592121
0.592117
0.592113
0.592108
0.592104
0.592099
0.591441
0.591503
0.59157
0.591633
0.591691
0.591746
0.591796
0.591843
0.591886
0.591925
0.59196
0.591992
0.59202
0.592046
0.592068
0.592089
0.592107
0.592123
0.592137
0.59215
0.592161
0.592172
0.592181
0.592189
0.592197
0.592203
0.592209
0.592214
0.592219
0.592222
0.592225
0.592228
0.59223
0.592232
0.592233
0.592234
0.592235
0.592236
0.592236
0.592236
0.592236
0.592235
0.592234
0.592234
0.592233
0.592231
0.59223
0.592229
0.592228
0.592227
0.592225
0.592224
0.592223
0.592221
0.59222
0.592219
0.592218
0.592217
0.592216
0.592215
0.592214
0.592212
0.592212
0.59221
0.592208
0.592206
0.592205
0.592204
0.592202
0.592202
0.592201
0.592199
0.592197
0.592196
0.592194
0.592192
0.592191
0.59219
0.592189
0.592188
0.592187
0.592186
0.592186
0.592185
0.592184
0.592182
0.592181
0.592179
0.592178
0.592176
0.592174
0.592173
0.592171
0.592169
0.592167
0.592166
0.592164
0.592162
0.59216
0.592157
0.591491
0.591548
0.591612
0.591671
0.591725
0.591776
0.591824
0.591868
0.591908
0.591945
0.591978
0.592008
0.592035
0.592059
0.592081
0.5921
0.592117
0.592132
0.592146
0.592158
0.592169
0.592179
0.592188
0.592196
0.592203
0.592209
0.592215
0.59222
0.592224
0.592228
0.592231
0.592233
0.592235
0.592237
0.592238
0.592239
0.59224
0.59224
0.592241
0.59224
0.59224
0.59224
0.592239
0.592238
0.592237
0.592236
0.592235
0.592234
0.592233
0.592231
0.59223
0.592229
0.592227
0.592226
0.592225
0.592224
0.592223
0.592222
0.592221
0.59222
0.592218
0.592217
0.592215
0.592214
0.592213
0.592212
0.59221
0.592209
0.592208
0.592207
0.592206
0.592205
0.592204
0.592203
0.592202
0.592201
0.5922
0.5922
0.592199
0.592198
0.592197
0.592196
0.592195
0.592195
0.592194
0.592193
0.592192
0.592191
0.59219
0.592189
0.592187
0.592186
0.592184
0.592183
0.592181
0.59218
0.592179
0.592178
0.592177
0.592176
0.591541
0.591592
0.591652
0.591707
0.591756
0.591803
0.591847
0.591888
0.591925
0.59196
0.591991
0.59202
0.592045
0.592068
0.592089
0.592107
0.592124
0.592139
0.592152
0.592164
0.592175
0.592185
0.592193
0.592201
0.592208
0.592214
0.59222
0.592225
0.592229
0.592232
0.592235
0.592237
0.592239
0.592241
0.592242
0.592243
0.592244
0.592244
0.592244
0.592244
0.592244
0.592243
0.592242
0.592241
0.59224
0.592239
0.592238
0.592237
0.592235
0.592234
0.592233
0.592232
0.59223
0.592229
0.592228
0.592227
0.592226
0.592224
0.592223
0.592222
0.592221
0.59222
0.592218
0.592217
0.592216
0.592215
0.592214
0.592213
0.592212
0.592211
0.59221
0.592209
0.592207
0.592207
0.592206
0.592205
0.592204
0.592204
0.592203
0.592202
0.592201
0.592201
0.5922
0.592199
0.592198
0.592197
0.592196
0.592195
0.592194
0.592193
0.592191
0.592191
0.592189
0.592188
0.592187
0.592186
0.592186
0.592185
0.592184
0.592184
0.591591
0.591636
0.59169
0.591741
0.591786
0.591829
0.59187
0.591908
0.591943
0.591975
0.592005
0.592032
0.592056
0.592078
0.592097
0.592115
0.592131
0.592145
0.592157
0.592169
0.592179
0.592188
0.592197
0.592204
0.592211
0.592217
0.592222
0.592226
0.59223
0.592234
0.592236
0.592238
0.59224
0.592242
0.592244
0.592245
0.592245
0.592246
0.592246
0.592246
0.592245
0.592245
0.592244
0.592243
0.592242
0.59224
0.592239
0.592238
0.592237
0.592236
0.592234
0.592233
0.592232
0.59223
0.592229
0.592228
0.592226
0.592225
0.592224
0.592223
0.592222
0.592221
0.59222
0.592219
0.592217
0.592217
0.592216
0.592215
0.592214
0.592213
0.592212
0.592211
0.592211
0.59221
0.592209
0.592209
0.592208
0.592207
0.592207
0.592206
0.592206
0.592205
0.592204
0.592204
0.592203
0.592202
0.592201
0.5922
0.592199
0.592198
0.592196
0.592196
0.592194
0.592193
0.592192
0.592191
0.592191
0.59219
0.592189
0.592189
0.591641
0.591681
0.59173
0.591776
0.591817
0.591856
0.591893
0.591927
0.59196
0.59199
0.592018
0.592043
0.592066
0.592086
0.592105
0.592121
0.592136
0.59215
0.592162
0.592173
0.592183
0.592191
0.592199
0.592207
0.592213
0.592219
0.592224
0.592228
0.592232
0.592235
0.592238
0.592239
0.592241
0.592243
0.592244
0.592245
0.592246
0.592246
0.592246
0.592246
0.592246
0.592245
0.592245
0.592244
0.592243
0.592242
0.592241
0.59224
0.592239
0.592238
0.592237
0.592236
0.592235
0.592233
0.592231
0.59223
0.592228
0.592226
0.592225
0.592224
0.592224
0.592223
0.592222
0.59222
0.592219
0.592218
0.592217
0.592215
0.592214
0.592213
0.592213
0.592212
0.592211
0.592211
0.59221
0.592209
0.592209
0.592208
0.592207
0.592207
0.592206
0.592205
0.592204
0.592204
0.592203
0.592202
0.592202
0.592201
0.5922
0.5922
0.592199
0.592199
0.592198
0.592197
0.592197
0.592196
0.592196
0.592195
0.592195
0.592194
0.591691
0.591725
0.591769
0.59181
0.591847
0.591882
0.591915
0.591947
0.591977
0.592005
0.592031
0.592054
0.592076
0.592095
0.592112
0.592128
0.592142
0.592154
0.592166
0.592176
0.592185
0.592193
0.592201
0.592208
0.592214
0.592219
0.592224
0.592228
0.592231
0.592234
0.592237
0.592239
0.592241
0.592242
0.592244
0.592245
0.592245
0.592246
0.592246
0.592246
0.592246
0.592245
0.592244
0.592243
0.592242
0.592241
0.59224
0.592239
0.592238
0.592237
0.592236
0.592235
0.592234
0.592233
0.592231
0.59223
0.592228
0.592227
0.592226
0.592225
0.592225
0.592224
0.592223
0.592222
0.592221
0.59222
0.592218
0.592217
0.592216
0.592215
0.592214
0.592213
0.592213
0.592212
0.592211
0.592211
0.59221
0.59221
0.592209
0.592208
0.592208
0.592207
0.592206
0.592206
0.592205
0.592205
0.592204
0.592204
0.592203
0.592203
0.592202
0.592202
0.592201
0.592201
0.5922
0.5922
0.592199
0.592199
0.592198
0.592198
0.591739
0.591769
0.591808
0.591845
0.591878
0.59191
0.59194
0.591969
0.591996
0.592021
0.592044
0.592066
0.592085
0.592103
0.592119
0.592134
0.592147
0.592159
0.592169
0.592179
0.592188
0.592196
0.592203
0.592209
0.592215
0.59222
0.592224
0.592228
0.592231
0.592234
0.592237
0.592239
0.59224
0.592242
0.592243
0.592244
0.592244
0.592245
0.592245
0.592245
0.592244
0.592244
0.592243
0.592243
0.592242
0.592241
0.59224
0.592239
0.592238
0.592237
0.592236
0.592234
0.592233
0.592232
0.592231
0.592231
0.592229
0.592228
0.592226
0.592225
0.592224
0.592223
0.592222
0.592221
0.59222
0.592219
0.592217
0.592217
0.592216
0.592216
0.592215
0.592214
0.592214
0.592213
0.592213
0.592212
0.592211
0.592211
0.59221
0.59221
0.592209
0.592208
0.592208
0.592207
0.592207
0.592206
0.592206
0.592205
0.592205
0.592204
0.592204
0.592203
0.592203
0.592202
0.592202
0.592201
0.592201
0.5922
0.5922
0.592199
0.591787
0.591812
0.591846
0.591879
0.591908
0.591936
0.591963
0.591989
0.592014
0.592037
0.592058
0.592077
0.592095
0.592112
0.592126
0.59214
0.592152
0.592163
0.592173
0.592181
0.59219
0.592197
0.592203
0.592209
0.592214
0.592219
0.592223
0.592227
0.59223
0.592233
0.592235
0.592237
0.592239
0.59224
0.592241
0.592242
0.592242
0.592243
0.592243
0.592243
0.592242
0.592242
0.592242
0.592241
0.59224
0.59224
0.592239
0.592237
0.592237
0.592236
0.592234
0.592233
0.592232
0.592231
0.59223
0.592229
0.592228
0.592227
0.592226
0.592225
0.592223
0.592223
0.592221
0.592221
0.592219
0.592218
0.592217
0.592217
0.592216
0.592216
0.592215
0.592215
0.592214
0.592214
0.592213
0.592213
0.592212
0.592211
0.592211
0.59221
0.59221
0.592209
0.592209
0.592208
0.592208
0.592207
0.592207
0.592206
0.592206
0.592205
0.592205
0.592204
0.592204
0.592204
0.592203
0.592203
0.592202
0.592202
0.592201
0.592201
0.591832
0.591853
0.591883
0.591912
0.591938
0.591963
0.591987
0.592011
0.592032
0.592053
0.592072
0.59209
0.592106
0.59212
0.592134
0.592146
0.592157
0.592167
0.592176
0.592184
0.592192
0.592198
0.592204
0.59221
0.592215
0.592219
0.592223
0.592226
0.592229
0.592232
0.592234
0.592236
0.592237
0.592238
0.592239
0.59224
0.59224
0.59224
0.59224
0.59224
0.59224
0.59224
0.592239
0.592238
0.592238
0.592237
0.592236
0.592236
0.592234
0.592233
0.592232
0.592231
0.59223
0.592229
0.592228
0.592227
0.592226
0.592225
0.592224
0.592223
0.592222
0.592221
0.59222
0.592219
0.592218
0.592217
0.592216
0.592216
0.592215
0.592215
0.592215
0.592214
0.592214
0.592213
0.592213
0.592212
0.592212
0.592211
0.592211
0.59221
0.59221
0.592209
0.592209
0.592209
0.592208
0.592208
0.592207
0.592207
0.592206
0.592206
0.592205
0.592205
0.592205
0.592204
0.592204
0.592203
0.592203
0.592202
0.592202
0.592202
0.591876
0.591894
0.59192
0.591945
0.591968
0.591989
0.592011
0.592031
0.59205
0.592068
0.592085
0.592101
0.592116
0.592129
0.592141
0.592152
0.592162
0.592171
0.592179
0.592186
0.592193
0.592199
0.592205
0.592209
0.592214
0.592218
0.592221
0.592224
0.592227
0.592229
0.592231
0.592233
0.592234
0.592235
0.592236
0.592237
0.592237
0.592237
0.592237
0.592237
0.592237
0.592236
0.592236
0.592235
0.592235
0.592234
0.592234
0.592233
0.592232
0.592231
0.59223
0.592229
0.592228
0.592227
0.592226
0.592226
0.592225
0.592224
0.592223
0.592222
0.592221
0.59222
0.592219
0.592218
0.592217
0.592216
0.592216
0.592215
0.592215
0.592215
0.592214
0.592214
0.592213
0.592213
0.592213
0.592212
0.592212
0.592211
0.592211
0.592211
0.59221
0.59221
0.592209
0.592209
0.592209
0.592208
0.592208
0.592207
0.592207
0.592207
0.592206
0.592206
0.592206
0.592205
0.592205
0.592205
0.592204
0.592204
0.592204
0.592203
0.591918
0.591934
0.591956
0.591977
0.591997
0.592016
0.592034
0.592052
0.592069
0.592085
0.5921
0.592113
0.592126
0.592138
0.592148
0.592158
0.592167
0.592175
0.592182
0.592189
0.592195
0.5922
0.592205
0.592209
0.592213
0.592217
0.59222
0.592223
0.592225
0.592227
0.592229
0.59223
0.592231
0.592232
0.592233
0.592234
0.592234
0.592234
0.592234
0.592234
0.592234
0.592233
0.592233
0.592232
0.592232
0.592231
0.592231
0.59223
0.592229
0.592228
0.592227
0.592227
0.592226
0.592225
0.592224
0.592223
0.592223
0.592221
0.59222
0.59222
0.592219
0.592218
0.592217
0.592217
0.592216
0.592215
0.592214
0.592214
0.592214
0.592213
0.592213
0.592213
0.592212
0.592212
0.592212
0.592211
0.592211
0.592211
0.59221
0.59221
0.59221
0.592209
0.592209
0.592209
0.592208
0.592208
0.592208
0.592208
0.592207
0.592207
0.592207
0.592206
0.592206
0.592206
0.592205
0.592205
0.592205
0.592204
0.592204
0.592204
0.59196
0.591972
0.591991
0.592008
0.592025
0.592041
0.592057
0.592072
0.592087
0.5921
0.592113
0.592125
0.592136
0.592146
0.592155
0.592164
0.592171
0.592178
0.592185
0.59219
0.592196
0.5922
0.592205
0.592209
0.592212
0.592215
0.592218
0.59222
0.592222
0.592224
0.592226
0.592227
0.592228
0.592229
0.59223
0.59223
0.59223
0.592231
0.592231
0.592231
0.59223
0.59223
0.59223
0.592229
0.592229
0.592228
0.592227
0.592227
0.592226
0.592225
0.592225
0.592224
0.592223
0.592223
0.592222
0.592221
0.592221
0.59222
0.592219
0.592219
0.592218
0.592217
0.592217
0.592216
0.592215
0.592214
0.592214
0.592213
0.592213
0.592213
0.592212
0.592212
0.592212
0.592212
0.592211
0.592211
0.592211
0.592211
0.59221
0.59221
0.59221
0.592209
0.592209
0.592209
0.592209
0.592208
0.592208
0.592208
0.592208
0.592207
0.592207
0.592207
0.592207
0.592206
0.592206
0.592206
0.592206
0.592205
0.592205
0.592205
0.592
0.59201
0.592025
0.592039
0.592053
0.592067
0.59208
0.592093
0.592105
0.592116
0.592127
0.592137
0.592146
0.592155
0.592163
0.59217
0.592177
0.592183
0.592188
0.592193
0.592197
0.592201
0.592205
0.592208
0.592211
0.592214
0.592216
0.592218
0.59222
0.592221
0.592223
0.592224
0.592225
0.592226
0.592226
0.592226
0.592227
0.592227
0.592227
0.592227
0.592227
0.592226
0.592226
0.592226
0.592225
0.592225
0.592224
0.592224
0.592223
0.592223
0.592222
0.592221
0.592221
0.59222
0.59222
0.592219
0.592219
0.592218
0.592217
0.592216
0.592216
0.592215
0.592215
0.592214
0.592214
0.592213
0.592212
0.592212
0.592211
0.592211
0.592211
0.592211
0.592211
0.592211
0.592211
0.59221
0.59221
0.59221
0.59221
0.59221
0.592209
0.592209
0.592209
0.592209
0.592209
0.592209
0.592208
0.592208
0.592208
0.592208
0.592208
0.592207
0.592207
0.592207
0.592207
0.592207
0.592206
0.592206
0.592206
0.592206
0.592039
0.592046
0.592058
0.59207
0.592081
0.592091
0.592102
0.592112
0.592122
0.592131
0.59214
0.592148
0.592156
0.592163
0.592169
0.592175
0.592181
0.592186
0.59219
0.592194
0.592198
0.592201
0.592204
0.592207
0.59221
0.592212
0.592214
0.592216
0.592217
0.592219
0.59222
0.592221
0.592222
0.592222
0.592223
0.592223
0.592223
0.592224
0.592224
0.592224
0.592223
0.592223
0.592223
0.592223
0.592223
0.592222
0.592221
0.592221
0.592221
0.59222
0.59222
0.592219
0.592219
0.592218
0.592218
0.592217
0.592217
0.592216
0.592215
0.592215
0.592214
0.592214
0.592213
0.592213
0.592212
0.592212
0.592211
0.592211
0.592211
0.59221
0.59221
0.59221
0.59221
0.59221
0.59221
0.59221
0.59221
0.59221
0.59221
0.592209
0.592209
0.592209
0.592209
0.592209
0.592209
0.592208
0.592208
0.592208
0.592208
0.592208
0.592208
0.592207
0.592207
0.592207
0.592207
0.592207
0.592207
0.592206
0.592206
0.592206
0.592077
0.592083
0.592091
0.5921
0.592109
0.592117
0.592125
0.592133
0.59214
0.592147
0.592154
0.59216
0.592166
0.592172
0.592177
0.592182
0.592186
0.59219
0.592194
0.592197
0.5922
0.592203
0.592205
0.592207
0.592209
0.592211
0.592213
0.592214
0.592215
0.592216
0.592217
0.592218
0.592219
0.592219
0.59222
0.59222
0.59222
0.59222
0.59222
0.59222
0.59222
0.59222
0.59222
0.592219
0.592219
0.592219
0.592219
0.592218
0.592218
0.592217
0.592217
0.592216
0.592216
0.592215
0.592215
0.592215
0.592214
0.592214
0.592213
0.592213
0.592212
0.592212
0.592211
0.592211
0.59221
0.59221
0.592209
0.592209
0.592209
0.592209
0.592209
0.592208
0.592208
0.592208
0.592208
0.592208
0.592208
0.592208
0.592208
0.592208
0.592208
0.592208
0.592208
0.592208
0.592208
0.592208
0.592207
0.592207
0.592207
0.592207
0.592207
0.592207
0.592207
0.592207
0.592207
0.592206
0.592206
0.592206
0.592206
0.592206
0.592113
0.592118
0.592124
0.59213
0.592136
0.592142
0.592147
0.592153
0.592158
0.592163
0.592168
0.592173
0.592177
0.592181
0.592185
0.592189
0.592192
0.592195
0.592198
0.5922
0.592202
0.592204
0.592206
0.592208
0.592209
0.59221
0.592212
0.592213
0.592213
0.592214
0.592215
0.592216
0.592216
0.592216
0.592217
0.592217
0.592217
0.592217
0.592217
0.592217
0.592217
0.592217
0.592217
0.592216
0.592216
0.592216
0.592215
0.592215
0.592214
0.592214
0.592213
0.592213
0.592212
0.592212
0.592212
0.592211
0.592211
0.59221
0.59221
0.59221
0.592209
0.592209
0.592208
0.592208
0.592208
0.592207
0.592207
0.592207
0.592206
0.592206
0.592206
0.592206
0.592206
0.592206
0.592206
0.592206
0.592206
0.592206
0.592206
0.592206
0.592206
0.592206
0.592206
0.592206
0.592206
0.592206
0.592206
0.592206
0.592206
0.592206
0.592206
0.592206
0.592206
0.592206
0.592206
0.592205
0.592205
0.592205
0.592205
0.592205
0.59215
0.592152
0.592156
0.59216
0.592163
0.592167
0.59217
0.592174
0.592177
0.59218
0.592183
0.592185
0.592188
0.592191
0.592193
0.592195
0.592197
0.592199
0.592201
0.592202
0.592204
0.592205
0.592206
0.592207
0.592208
0.592209
0.592209
0.59221
0.592211
0.592211
0.592211
0.592212
0.592212
0.592212
0.592212
0.592212
0.592213
0.592213
0.592213
0.592213
0.592213
0.592213
0.592213
0.592213
0.592212
0.592212
0.592212
0.592211
0.592211
0.592211
0.59221
0.59221
0.592209
0.592209
0.592209
0.592208
0.592208
0.592208
0.592207
0.592207
0.592207
0.592207
0.592206
0.592206
0.592206
0.592206
0.592206
0.592205
0.592205
0.592205
0.592205
0.592205
0.592205
0.592205
0.592205
0.592205
0.592205
0.592205
0.592205
0.592205
0.592205
0.592205
0.592204
0.592204
0.592204
0.592204
0.592204
0.592204
0.592204
0.592204
0.592204
0.592204
0.592204
0.592204
0.592204
0.592204
0.592204
0.592204
0.592204
0.592204
0.592187
0.592188
0.59219
0.592191
0.592193
0.592194
0.592195
0.592196
0.592197
0.592198
0.592199
0.5922
0.592201
0.592202
0.592202
0.592203
0.592204
0.592204
0.592205
0.592205
0.592206
0.592206
0.592206
0.592207
0.592207
0.592207
0.592207
0.592207
0.592207
0.592208
0.592208
0.592208
0.592208
0.592208
0.592208
0.592208
0.592208
0.592208
0.592208
0.592208
0.592208
0.592208
0.592208
0.592208
0.592208
0.592208
0.592208
0.592208
0.592208
0.592207
0.592207
0.592207
0.592206
0.592206
0.592206
0.592205
0.592205
0.592205
0.592205
0.592205
0.592204
0.592204
0.592204
0.592204
0.592204
0.592204
0.592203
0.592203
0.592203
0.592203
0.592203
0.592203
0.592203
0.592203
0.592203
0.592203
0.592203
0.592203
0.592203
0.592203
0.592203
0.592203
0.592203
0.592203
0.592203
0.592203
0.592203
0.592203
0.592203
0.592203
0.592203
0.592203
0.592203
0.592203
0.592203
0.592203
0.592203
0.592203
0.592203
0.592203
0.591197
0.591186
0.591192
0.591211
0.591235
0.591266
0.59129
0.591315
0.591324
0.591273
0.591299
0.591286
0.591286
0.591295
0.591311
0.591334
0.59135
0.591366
0.591376
0.591344
0.591394
0.591378
0.591372
0.591375
0.591383
0.591397
0.591408
0.591416
0.591425
0.591409
0.591478
0.59146
0.591451
0.591449
0.591453
0.59146
0.591469
0.591474
0.591477
0.591467
0.591554
0.591535
0.591525
0.59152
0.591519
0.591522
0.591527
0.591531
0.591531
0.591524
0.591621
0.591603
0.591592
0.591585
0.591582
0.591582
0.591583
0.591586
0.591587
0.591579
0.591682
0.591665
0.591653
0.591645
0.591641
0.591639
0.591638
0.591639
0.591639
0.591634
0.591738
0.591721
0.59171
0.591702
0.591696
0.591693
0.591691
0.591691
0.59169
0.591687
0.591789
0.591774
0.591763
0.591754
0.591749
0.591745
0.591742
0.591741
0.59174
0.591737
0.591836
0.591822
0.591811
0.591803
0.591797
0.591793
0.591791