/*--------------------------------*- C++ -*----------------------------------*\
  =========                 |
  \\      /  F ield         | OpenFOAM: The Open Source CFD Toolbox
   \\    /   O peration     | Website:  https://openfoam.org
    \\  /    A nd           | Version:  8
     \\/     M anipulation  |
\*---------------------------------------------------------------------------*/
FoamFile
{
    version     2.0;
    format      ascii;
    class       volScalarField;
    location    "4.500037302";
    object      T;
}
// * * * * * * * * * * * * * * * * * * * * * * * * * * * * * * * * * * * * * //

dimensions      [0 0 0 1 0 0 0];

internalField   nonuniform List<scalar> 
6800
(
373.275
373.209
373.222
373.213
373.171
373.087
373.022
372.982
372.956
372.945
373.175
373.206
373.199
373.148
373.045
372.989
372.955
372.933
372.921
372.907
373.185
373.196
373.135
373.017
372.965
372.933
372.906
372.894
372.883
372.884
373.179
373.127
373
372.942
372.9
372.873
372.861
372.862
372.864
372.871
373.097
373.01
372.923
372.861
372.832
372.829
372.833
372.84
372.847
372.854
373.033
372.914
372.817
372.785
372.783
372.789
372.804
372.816
372.828
372.839
372.927
372.792
372.739
372.722
372.731
372.754
372.781
372.799
372.815
372.827
372.842
372.7
372.654
372.659
372.689
372.728
372.761
372.78
372.799
372.815
372.735
372.593
372.589
372.611
372.66
372.708
372.744
372.768
372.79
372.808
372.649
372.524
372.53
372.573
372.639
372.693
372.733
372.76
372.784
372.804
373.518
373.514
373.512
373.512
373.511
373.512
373.514
373.518
373.522
373.527
373.518
373.511
373.508
373.506
373.503
373.502
373.503
373.506
373.511
373.516
373.513
373.504
373.499
373.493
373.487
373.481
373.479
373.479
373.483
373.487
373.507
373.497
373.488
373.478
373.466
373.454
373.444
373.439
373.438
373.443
373.502
373.488
373.477
373.46
373.44
373.419
373.399
373.391
373.385
373.393
373.49
373.481
373.461
373.434
373.398
373.365
373.345
373.34
373.329
373.341
373.489
373.468
373.438
373.384
373.33
373.303
373.292
373.292
373.281
373.287
373.478
373.45
373.391
373.293
373.267
373.262
373.259
373.251
373.236
373.2
373.468
373.411
373.277
373.239
373.24
373.241
373.223
373.187
373.143
373.086
373.438
373.296
373.226
373.232
373.226
373.198
373.136
373.076
373.026
372.994
373.533
373.542
373.55
373.558
373.564
373.569
373.573
373.576
373.577
373.577
373.576
373.574
373.571
373.567
373.562
373.556
373.55
373.542
373.534
373.525
373.516
373.506
373.496
373.486
373.476
373.466
373.457
373.449
373.441
373.434
373.427
373.422
373.417
373.413
373.409
373.406
373.404
373.402
373.4
373.398
373.396
373.395
373.393
373.391
373.389
373.387
373.386
373.385
373.386
373.384
373.382
373.379
373.375
373.37
373.364
373.358
373.351
373.344
373.337
373.329
373.322
373.314
373.307
373.3
373.293
373.287
373.281
373.275
373.27
373.266
373.261
373.257
373.254
373.251
373.248
373.246
373.243
373.241
373.239
373.238
373.236
373.234
373.233
373.232
373.229
373.229
373.228
373.228
373.227
373.227
373.229
373.229
373.229
373.23
373.233
373.233
373.234
373.235
373.237
373.237
373.522
373.532
373.541
373.549
373.557
373.563
373.568
373.572
373.574
373.575
373.574
373.572
373.57
373.566
373.56
373.554
373.548
373.54
373.531
373.522
373.513
373.503
373.493
373.483
373.474
373.465
373.456
373.448
373.441
373.434
373.428
373.423
373.419
373.415
373.411
373.409
373.406
373.404
373.402
373.4
373.399
373.397
373.395
373.393
373.392
373.389
373.389
373.388
373.387
373.385
373.382
373.378
373.374
373.369
373.363
373.357
373.35
373.343
373.336
373.329
373.321
373.314
373.307
373.3
373.294
373.288
373.282
373.276
373.271
373.267
373.263
373.259
373.256
373.253
373.25
373.248
373.246
373.244
373.242
373.24
373.238
373.237
373.235
373.234
373.232
373.232
373.23
373.231
373.23
373.23
373.231
373.232
373.231
373.232
373.235
373.236
373.236
373.238
373.239
373.239
373.495
373.506
373.517
373.527
373.537
373.546
373.552
373.558
373.561
373.564
373.564
373.563
373.561
373.557
373.553
373.547
373.54
373.532
373.524
373.515
373.506
373.497
373.488
373.479
373.47
373.462
373.454
373.447
373.441
373.435
373.43
373.425
373.421
373.417
373.414
373.411
373.409
373.407
373.405
373.403
373.401
373.399
373.397
373.394
373.394
373.392
373.391
373.389
373.387
373.384
373.381
373.377
373.372
373.367
373.361
373.355
373.348
373.341
373.334
373.327
373.321
373.314
373.307
373.301
373.295
373.289
373.284
373.279
373.274
373.27
373.266
373.263
373.26
373.257
373.254
373.252
373.25
373.248
373.246
373.245
373.243
373.242
373.24
373.238
373.237
373.236
373.235
373.234
373.234
373.234
373.234
373.235
373.234
373.236
373.236
373.237
373.238
373.24
373.241
373.241
373.454
373.471
373.485
373.498
373.51
373.521
373.529
373.536
373.541
373.544
373.545
373.545
373.544
373.541
373.537
373.531
373.525
373.518
373.511
373.503
373.495
373.487
373.479
373.472
373.464
373.457
373.45
373.444
373.439
373.433
373.429
373.424
373.421
373.417
373.414
373.411
373.409
373.406
373.404
373.402
373.4
373.398
373.396
373.394
373.392
373.39
373.388
373.386
373.383
373.38
373.376
373.372
373.367
373.362
373.356
373.351
373.345
373.338
373.332
373.326
373.319
373.313
373.307
373.302
373.296
373.291
373.286
373.282
373.278
373.274
373.27
373.267
373.264
373.262
373.259
373.257
373.255
373.254
373.252
373.25
373.248
373.247
373.245
373.244
373.243
373.241
373.24
373.239
373.239
373.238
373.237
373.238
373.239
373.239
373.239
373.239
373.241
373.242
373.243
373.243
373.408
373.43
373.449
373.465
373.478
373.488
373.497
373.504
373.509
373.512
373.512
373.512
373.511
373.509
373.505
373.501
373.496
373.49
373.484
373.478
373.472
373.466
373.459
373.453
373.448
373.442
373.437
373.432
373.427
373.423
373.419
373.415
373.412
373.409
373.406
373.403
373.401
373.398
373.396
373.394
373.391
373.389
373.387
373.385
373.382
373.38
373.378
373.375
373.372
373.368
373.365
373.361
373.356
373.351
373.346
373.341
373.336
373.331
373.325
373.32
373.314
373.309
373.304
373.299
373.294
373.29
373.286
373.282
373.279
373.275
373.272
373.27
373.267
373.265
373.263
373.261
373.259
373.258
373.256
373.254
373.253
373.252
373.25
373.248
373.247
373.245
373.244
373.243
373.242
373.242
373.24
373.24
373.24
373.241
373.241
373.241
373.243
373.244
373.244
373.244
373.354
373.375
373.395
373.409
373.421
373.43
373.438
373.444
373.448
373.45
373.451
373.451
373.451
373.449
373.447
373.445
373.442
373.438
373.434
373.431
373.427
373.423
373.419
373.415
373.412
373.408
373.404
373.401
373.398
373.394
373.391
373.389
373.386
373.384
373.381
373.379
373.376
373.374
373.372
373.37
373.367
373.365
373.363
373.361
373.359
373.357
373.354
373.352
373.349
373.346
373.343
373.34
373.337
373.333
373.329
373.325
373.321
373.317
373.312
373.308
373.304
373.3
373.295
373.291
373.288
373.284
373.281
373.278
373.275
373.272
373.27
373.268
373.266
373.264
373.262
373.26
373.259
373.257
373.256
373.255
373.253
373.252
373.251
373.249
373.248
373.247
373.245
373.244
373.242
373.242
373.242
373.241
373.241
373.241
373.241
373.241
373.242
373.244
373.243
373.243
373.29
373.302
373.316
373.326
373.333
373.337
373.341
373.343
373.344
373.345
373.346
373.345
373.345
373.344
373.343
373.342
373.341
373.341
373.34
373.34
373.339
373.339
373.338
373.338
373.337
373.336
373.335
373.335
373.334
373.333
373.331
373.33
373.33
373.329
373.328
373.327
373.326
373.324
373.323
373.322
373.32
373.319
373.318
373.317
373.315
373.314
373.312
373.31
373.309
373.307
373.305
373.304
373.302
373.3
373.297
373.295
373.292
373.29
373.287
373.284
373.281
373.279
373.276
373.273
373.271
373.268
373.266
373.264
373.262
373.26
373.259
373.257
373.256
373.254
373.253
373.252
373.251
373.25
373.249
373.248
373.247
373.246
373.245
373.244
373.243
373.242
373.241
373.24
373.239
373.238
373.238
373.237
373.238
373.237
373.237
373.238
373.238
373.238
373.239
373.239
373.197
373.205
373.215
373.221
373.225
373.227
373.23
373.23
373.231
373.232
373.231
373.231
373.23
373.229
373.228
373.227
373.227
373.226
373.226
373.227
373.227
373.227
373.228
373.229
373.229
373.23
373.23
373.231
373.231
373.231
373.232
373.232
373.233
373.234
373.234
373.235
373.236
373.237
373.237
373.238
373.239
373.24
373.241
373.241
373.243
373.243
373.243
373.243
373.243
373.244
373.245
373.245
373.246
373.246
373.246
373.246
373.246
373.245
373.244
373.244
373.243
373.242
373.241
373.24
373.239
373.238
373.237
373.236
373.235
373.235
373.234
373.234
373.233
373.233
373.232
373.232
373.232
373.231
373.231
373.231
373.23
373.23
373.23
373.229
373.229
373.229
373.228
373.228
373.228
373.227
373.227
373.227
373.227
373.227
373.227
373.227
373.227
373.228
373.228
373.228
373.084
373.094
373.104
373.113
373.119
373.124
373.127
373.131
373.133
373.135
373.136
373.137
373.138
373.139
373.14
373.141
373.142
373.143
373.144
373.144
373.145
373.146
373.146
373.146
373.146
373.146
373.145
373.144
373.143
373.142
373.141
373.141
373.14
373.139
373.138
373.138
373.138
373.138
373.138
373.138
373.139
373.14
373.14
373.141
373.143
373.144
373.143
373.145
373.147
373.149
373.151
373.154
373.156
373.159
373.162
373.164
373.167
373.169
373.172
373.174
373.176
373.178
373.179
373.181
373.182
373.184
373.185
373.186
373.187
373.188
373.189
373.19
373.192
373.193
373.194
373.195
373.196
373.197
373.198
373.198
373.199
373.2
373.201
373.202
373.203
373.203
373.204
373.205
373.205
373.206
373.206
373.207
373.207
373.207
373.207
373.207
373.207
373.207
373.208
373.207
372.995
373.007
373.018
373.029
373.038
373.047
373.054
373.06
373.066
373.071
373.075
373.079
373.082
373.085
373.087
373.089
373.091
373.093
373.095
373.096
373.097
373.098
373.099
373.1
373.1
373.1
373.099
373.099
373.098
373.097
373.097
373.096
373.094
373.093
373.092
373.09
373.088
373.087
373.086
373.084
373.083
373.082
373.082
373.081
373.081
373.08
373.08
373.08
373.08
373.08
373.081
373.081
373.082
373.083
373.084
373.086
373.087
373.089
373.09
373.092
373.094
373.096
373.097
373.1
373.102
373.104
373.106
373.109
373.111
373.114
373.117
373.12
373.123
373.125
373.128
373.131
373.134
373.137
373.14
373.143
373.145
373.148
373.15
373.153
373.155
373.157
373.159
373.161
373.162
373.164
373.165
373.167
373.168
373.17
373.171
373.171
373.172
373.172
373.172
373.173
372.934
372.947
372.96
372.972
372.984
372.994
373.003
373.01
373.017
373.024
373.029
373.035
373.039
373.044
373.047
373.051
373.055
373.058
373.06
373.063
373.065
373.066
373.068
373.069
373.069
373.069
373.07
373.07
373.07
373.069
373.068
373.068
373.067
373.066
373.065
373.064
373.063
373.062
373.061
373.06
373.059
373.058
373.057
373.056
373.056
373.055
373.055
373.054
373.053
373.053
373.052
373.052
373.051
373.051
373.051
373.05
373.05
373.05
373.05
373.05
373.05
373.051
373.051
373.051
373.051
373.052
373.052
373.053
373.054
373.055
373.056
373.058
373.059
373.06
373.062
373.064
373.066
373.068
373.07
373.073
373.075
373.078
373.081
373.084
373.087
373.089
373.092
373.095
373.098
373.101
373.103
373.106
373.109
373.111
373.114
373.115
373.117
373.121
373.122
373.123
372.921
372.932
372.943
372.954
372.964
372.973
372.981
372.989
372.996
373.002
373.008
373.013
373.018
373.023
373.027
373.031
373.035
373.038
373.041
373.044
373.046
373.048
373.05
373.051
373.052
373.053
373.054
373.054
373.054
373.054
373.054
373.053
373.053
373.053
373.052
373.051
373.05
373.049
373.048
373.047
373.046
373.046
373.045
373.044
373.043
373.043
373.042
373.042
373.041
373.041
373.04
373.04
373.039
373.038
373.038
373.037
373.037
373.036
373.036
373.035
373.035
373.034
373.034
373.033
373.033
373.033
373.032
373.032
373.032
373.032
373.032
373.032
373.032
373.032
373.033
373.033
373.033
373.034
373.034
373.035
373.035
373.036
373.037
373.038
373.039
373.04
373.041
373.043
373.044
373.046
373.047
373.049
373.051
373.053
373.055
373.057
373.059
373.061
373.062
373.064
372.915
372.926
372.937
372.947
372.956
372.965
372.972
372.979
372.986
372.991
372.997
373.002
373.007
373.012
373.016
373.02
373.024
373.028
373.031
373.033
373.036
373.038
373.039
373.041
373.042
373.042
373.043
373.043
373.043
373.044
373.043
373.043
373.043
373.043
373.042
373.042
373.041
373.04
373.04
373.039
373.038
373.038
373.037
373.036
373.036
373.035
373.035
373.034
373.034
373.033
373.032
373.032
373.031
373.031
373.03
373.029
373.028
373.028
373.027
373.026
373.026
373.026
373.025
373.025
373.025
373.025
373.025
373.024
373.024
373.024
373.023
373.023
373.024
373.024
373.024
373.024
373.024
373.024
373.024
373.023
373.023
373.023
373.023
373.023
373.023
373.023
373.023
373.023
373.024
373.024
373.024
373.025
373.025
373.026
373.026
373.026
373.027
373.027
373.027
373.028
372.914
372.924
372.935
372.944
372.952
372.96
372.967
372.973
372.979
372.985
372.99
372.995
373
373.005
373.009
373.013
373.017
373.02
373.023
373.026
373.028
373.03
373.032
373.033
373.034
373.035
373.035
373.036
373.036
373.036
373.036
373.036
373.036
373.036
373.035
373.035
373.034
373.034
373.033
373.032
373.032
373.031
373.031
373.03
373.03
373.029
373.029
373.028
373.028
373.027
373.027
373.026
373.026
373.025
373.025
373.024
373.023
373.023
373.022
373.022
373.021
373.021
373.021
373.021
373.02
373.02
373.02
373.019
373.019
373.019
373.019
373.018
373.018
373.018
373.018
373.017
373.017
373.017
373.017
373.017
373.016
373.016
373.016
373.016
373.016
373.016
373.016
373.016
373.016
373.016
373.016
373.016
373.017
373.017
373.017
373.017
373.017
373.017
373.017
373.017
372.915
372.925
372.934
372.943
372.951
372.958
372.964
372.97
372.976
372.981
372.986
372.991
372.995
373
373.004
373.007
373.011
373.014
373.017
373.019
373.021
373.023
373.024
373.026
373.027
373.027
373.028
373.028
373.029
373.029
373.029
373.029
373.029
373.029
373.028
373.028
373.027
373.027
373.027
373.026
373.026
373.026
373.025
373.025
373.025
373.024
373.024
373.024
373.023
373.023
373.022
373.022
373.021
373.021
373.021
373.02
373.02
373.019
373.019
373.019
373.018
373.018
373.018
373.017
373.017
373.016
373.016
373.016
373.016
373.015
373.015
373.015
373.015
373.015
373.015
373.014
373.014
373.014
373.014
373.013
373.013
373.013
373.013
373.012
373.012
373.012
373.012
373.013
373.013
373.013
373.013
373.013
373.013
373.013
373.013
373.013
373.013
373.013
373.012
373.012
372.917
372.926
372.935
372.944
372.951
372.957
372.963
372.969
372.974
372.979
372.983
372.988
372.992
372.996
373
373.003
373.006
373.009
373.012
373.014
373.016
373.018
373.02
373.021
373.022
373.022
373.023
373.023
373.024
373.024
373.024
373.024
373.024
373.024
373.024
373.023
373.023
373.023
373.022
373.022
373.022
373.021
373.021
373.021
373.021
373.02
373.02
373.02
373.02
373.019
373.019
373.019
373.018
373.018
373.018
373.017
373.017
373.017
373.016
373.016
373.016
373.015
373.015
373.015
373.014
373.014
373.014
373.013
373.013
373.013
373.013
373.012
373.012
373.012
373.011
373.011
373.011
373.01
373.01
373.01
373.01
373.009
373.009
373.009
373.009
373.009
373.009
373.009
373.009
373.009
373.009
373.009
373.01
373.01
373.01
373.01
373.01
373.009
373.009
373.009
372.92
372.928
372.937
372.944
372.951
372.957
372.963
372.968
372.973
372.978
372.982
372.986
372.99
372.993
372.997
373
373.003
373.006
373.008
373.01
373.012
373.014
373.015
373.016
373.017
373.018
373.018
373.019
373.019
373.019
373.019
373.02
373.02
373.02
373.019
373.019
373.019
373.018
373.018
373.018
373.018
373.017
373.017
373.017
373.017
373.016
373.016
373.016
373.015
373.015
373.014
373.014
373.014
373.014
373.014
373.014
373.014
373.014
373.014
373.013
373.013
373.012
373.012
373.012
373.012
373.012
373.012
373.012
373.012
373.011
373.011
373.011
373.011
373.01
373.01
373.01
373.009
373.009
373.009
373.009
373.009
373.009
373.008
373.008
373.008
373.008
373.008
373.008
373.008
373.008
373.007
373.007
373.007
373.007
373.007
373.006
373.006
373.006
373.006
373.006
372.923
372.931
372.939
372.946
372.953
372.959
372.964
372.969
372.973
372.977
372.981
372.985
372.988
372.991
372.994
372.997
373
373.003
373.005
373.007
373.009
373.01
373.012
373.013
373.014
373.014
373.015
373.015
373.016
373.016
373.016
373.016
373.016
373.016
373.016
373.016
373.015
373.015
373.015
373.015
373.014
373.014
373.014
373.014
373.014
373.014
373.014
373.013
373.013
373.013
373.012
373.012
373.012
373.012
373.012
373.012
373.012
373.011
373.011
373.011
373.01
373.01
373.01
373.009
373.009
373.009
373.009
373.009
373.009
373.009
373.009
373.009
373.008
373.008
373.008
373.008
373.008
373.007
373.007
373.007
373.007
373.007
373.007
373.006
373.006
373.006
373.006
373.006
373.006
373.005
373.005
373.005
373.005
373.005
373.004
373.004
373.004
373.004
373.003
373.003
372.928
372.935
372.942
372.948
372.954
372.959
372.964
372.969
372.973
372.977
372.98
372.984
372.987
372.99
372.993
372.996
372.998
373
373.002
373.004
373.006
373.007
373.009
373.01
373.01
373.011
373.012
373.012
373.012
373.012
373.012
373.013
373.013
373.013
373.013
373.012
373.012
373.012
373.012
373.012
373.012
373.012
373.011
373.011
373.011
373.011
373.01
373.01
373.01
373.01
373.01
373.01
373.01
373.009
373.009
373.009
373.009
373.009
373.009
373.009
373.009
373.008
373.008
373.008
373.008
373.008
373.008
373.008
373.008
373.007
373.007
373.007
373.007
373.006
373.006
373.006
373.006
373.006
373.005
373.005
373.005
373.005
373.005
373.005
373.005
373.004
373.004
373.004
373.004
373.004
373.004
373.004
373.003
373.003
373.003
373.003
373.003
373.003
373.002
373.002
372.933
372.939
372.945
372.951
372.956
372.961
372.966
372.97
372.974
372.977
372.98
372.984
372.986
372.989
372.992
372.994
372.997
372.999
373.001
373.002
373.004
373.005
373.006
373.007
373.008
373.009
373.009
373.01
373.01
373.01
373.01
373.01
373.01
373.01
373.01
373.01
373.01
373.01
373.01
373.01
373.009
373.009
373.009
373.009
373.009
373.008
373.008
373.009
373.008
373.008
373.008
373.008
373.008
373.008
373.008
373.007
373.008
373.007
373.007
373.007
373.007
373.007
373.007
373.007
373.007
373.007
373.007
373.007
373.006
373.006
373.006
373.005
373.005
373.005
373.005
373.005
373.004
373.004
373.004
373.004
373.004
373.004
373.004
373.004
373.003
373.003
373.003
373.003
373.003
373.003
373.003
373.003
373.002
373.002
373.002
373.002
373.002
373.002
373.001
373.001
372.939
372.944
372.949
372.954
372.959
372.963
372.967
372.971
372.975
372.978
372.981
372.984
372.986
372.989
372.991
372.993
372.995
372.997
372.999
373.001
373.002
373.003
373.004
373.005
373.006
373.006
373.007
373.007
373.007
373.008
373.008
373.008
373.008
373.008
373.008
373.008
373.008
373.008
373.008
373.008
373.008
373.008
373.007
373.007
373.007
373.007
373.007
373.007
373.007
373.007
373.007
373.007
373.007
373.007
373.006
373.006
373.006
373.007
373.006
373.006
373.006
373.006
373.006
373.006
373.006
373.006
373.006
373.006
373.005
373.005
373.005
373.005
373.004
373.004
373.004
373.004
373.004
373.003
373.003
373.003
373.003
373.003
373.003
373.003
373.003
373.002
373.002
373.002
373.002
373.002
373.002
373.002
373.002
373.001
373.001
373.001
373.001
373.001
373.001
373.001
372.945
372.949
372.954
372.958
372.962
372.966
372.97
372.973
372.976
372.979
372.982
372.984
372.987
372.989
372.991
372.993
372.995
372.997
372.998
373
373.001
373.002
373.003
373.004
373.004
373.005
373.005
373.006
373.006
373.006
373.006
373.006
373.006
373.006
373.006
373.006
373.006
373.006
373.006
373.006
373.006
373.006
373.006
373.006
373.006
373.006
373.006
373.006
373.006
373.005
373.006
373.006
373.006
373.005
373.005
373.005
373.005
373.005
373.005
373.005
373.005
373.005
373.005
373.005
373.005
373.005
373.005
373.005
373.004
373.004
373.004
373.004
373.003
373.003
373.003
373.003
373.003
373.002
373.002
373.002
373.002
373.002
373.002
373.002
373.002
373.001
373.001
373.001
373.001
373.001
373.001
373.001
373.001
373
373
373
373
373
373
373
372.951
372.955
372.959
372.963
372.966
372.969
372.972
372.975
372.978
372.98
372.983
372.985
372.987
372.989
372.991
372.993
372.995
372.996
372.997
372.999
373
373.001
373.001
373.002
373.003
373.003
373.004
373.004
373.004
373.004
373.005
373.005
373.005
373.005
373.005
373.005
373.005
373.005
373.005
373.005
373.005
373.005
373.005
373.005
373.005
373.005
373.005
373.005
373.005
373.005
373.004
373.004
373.004
373.004
373.004
373.004
373.004
373.004
373.005
373.004
373.004
373.004
373.004
373.004
373.004
373.004
373.004
373.004
373.004
373.003
373.003
373.003
373.003
373.003
373.002
373.002
373.002
373.002
373.002
373.002
373.002
373.001
373.001
373.001
373.001
373.001
373.001
373.001
373.001
373
373
373
373
373
373
373
373
373
372.999
372.999
372.957
372.96
372.964
372.967
372.97
372.973
372.976
372.978
372.981
372.983
372.985
372.987
372.988
372.99
372.992
372.993
372.995
372.996
372.997
372.998
372.999
373
373.001
373.001
373.002
373.002
373.003
373.003
373.003
373.003
373.003
373.003
373.004
373.004
373.004
373.004
373.004
373.004
373.004
373.004
373.004
373.004
373.004
373.003
373.003
373.003
373.004
373.004
373.004
373.004
373.003
373.003
373.003
373.003
373.003
373.003
373.003
373.003
373.003
373.003
373.003
373.003
373.003
373.003
373.003
373.003
373.003
373.003
373.003
373.003
373.002
373.002
373.002
373.002
373.002
373.001
373.001
373.001
373.001
373.001
373.001
373.001
373
373
373
373
373
373
373
373
373
372.999
372.999
372.999
372.999
372.999
372.999
372.999
372.999
372.999
372.964
372.967
372.969
372.972
372.974
372.977
372.979
372.981
372.983
372.985
372.987
372.988
372.99
372.991
372.992
372.994
372.995
372.996
372.997
372.998
372.999
372.999
373
373.001
373.001
373.001
373.002
373.002
373.002
373.002
373.002
373.002
373.002
373.003
373.003
373.003
373.003
373.003
373.003
373.003
373.003
373.003
373.003
373.003
373.003
373.003
373.003
373.003
373.002
373.002
373.002
373.002
373.002
373.002
373.002
373.002
373.002
373.002
373.002
373.002
373.002
373.002
373.002
373.002
373.002
373.002
373.002
373.002
373.002
373.002
373.002
373.002
373.001
373.001
373.001
373.001
373.001
373
373
373
373
373
373
373
373
372.999
372.999
372.999
372.999
372.999
372.999
372.999
372.999
372.999
372.999
372.998
372.998
372.998
372.998
372.998
372.97
372.972
372.975
372.977
372.979
372.981
372.983
372.985
372.986
372.988
372.989
372.99
372.992
372.993
372.994
372.995
372.996
372.997
372.998
372.998
372.999
372.999
373
373
373.001
373.001
373.001
373.001
373.001
373.001
373.001
373.001
373.001
373.001
373.001
373.001
373.001
373.001
373.001
373.001
373.001
373.001
373.001
373.001
373.001
373.001
373.001
373.001
373.001
373.001
373.001
373.001
373.001
373.001
373.001
373.001
373.001
373.001
373.001
373.001
373.001
373.001
373.001
373.001
373.001
373.001
373.001
373.001
373.001
373.001
373.001
373.001
373.001
373
373
373
373
373
373
373
372.999
372.999
372.999
372.999
372.999
372.999
372.999
372.999
372.999
372.999
372.998
372.998
372.998
372.998
372.998
372.998
372.998
372.998
372.998
372.998
372.977
372.978
372.98
372.982
372.983
372.985
372.986
372.988
372.989
372.99
372.991
372.992
372.993
372.994
372.995
372.996
372.996
372.997
372.997
372.998
372.998
372.999
372.999
372.999
372.999
373
373
373
373
373
373
373
373
373
373
373
373
373
373
373
373
373
373
373
373
373
373
373
373
373
373
373
373
373
373.001
373
373
373.001
373.001
373.001
373.001
373.001
373.001
373.001
373.001
373.001
373.001
373.001
373.001
373.001
373.001
373.001
373
373
373
373
373
373
373
372.999
372.999
372.999
372.999
372.999
372.999
372.999
372.999
372.999
372.999
372.999
372.998
372.998
372.998
372.998
372.998
372.998
372.998
372.998
372.998
372.998
372.984
372.984
372.986
372.987
372.988
372.989
372.99
372.991
372.992
372.993
372.993
372.994
372.995
372.995
372.996
372.996
372.996
372.997
372.997
372.997
372.998
372.998
372.998
372.998
372.998
372.999
372.999
372.999
372.999
372.999
372.999
372.999
372.999
372.999
372.999
372.999
372.999
372.999
372.999
372.999
372.999
372.999
372.999
372.999
372.999
372.999
372.999
372.999
373
373
373
373
373
373
373
373
373
373
373
373
373.001
373.001
373.001
373.001
373.001
373.001
373.001
373.001
373.001
373.001
373.001
373.001
373.001
373
373
373
373
373
373
373
373
373
372.999
372.999
372.999
372.999
372.999
372.999
372.999
372.999
372.999
372.999
372.999
372.999
372.999
372.998
372.998
372.998
372.998
372.998
372.99
372.991
372.991
372.992
372.992
372.993
372.994
372.994
372.995
372.995
372.996
372.996
372.996
372.997
372.997
372.997
372.997
372.997
372.997
372.998
372.998
372.998
372.998
372.998
372.998
372.998
372.998
372.998
372.998
372.998
372.998
372.998
372.998
372.998
372.999
372.998
372.998
372.998
372.998
372.998
372.998
372.998
372.998
372.998
372.998
372.998
372.998
372.999
372.999
372.999
372.999
372.999
372.999
372.999
373
373
373
373
373
373
373
373
373
373
373
373
373
373
373
373
373
373
373
373
373
373
373
373
373
373
373
373
373
373
373
373
373
373
373
372.999
372.999
372.999
372.999
372.999
372.999
372.999
372.999
372.999
372.999
372.999
372.995
372.995
372.995
372.995
372.995
372.995
372.996
372.996
372.996
372.996
372.996
372.997
372.997
372.997
372.997
372.997
372.997
372.997
372.997
372.997
372.997
372.997
372.998
372.998
372.998
372.998
372.998
372.998
372.998
372.998
372.998
372.998
372.998
372.998
372.998
372.998
372.998
372.998
372.998
372.998
372.998
372.998
372.998
372.998
372.998
372.998
372.998
372.998
372.998
372.998
372.998
372.999
372.999
372.999
372.999
372.999
372.999
372.999
372.999
373
373
373
373
373
373
373
373
373
373
373
373
373
373
373
373
373
373
373
373
373
373
373
373
373
373
373
373
373
373
373
373
373
373
373
373
373
373
373
373
373
372.825
372.826
372.83
372.837
372.848
372.858
372.873
372.885
372.897
372.921
372.843
372.843
372.845
372.849
372.856
372.863
372.875
372.885
372.894
372.91
372.859
372.857
372.858
372.861
372.865
372.87
372.877
372.887
372.895
372.905
372.872
372.87
372.87
372.872
372.875
372.878
372.882
372.89
372.898
372.906
372.884
372.882
372.881
372.882
372.884
372.887
372.89
372.894
372.901
372.908
372.895
372.893
372.892
372.892
372.893
372.895
372.897
372.9
372.904
372.911
372.905
372.903
372.902
372.901
372.902
372.903
372.904
372.906
372.909
372.915
372.915
372.913
372.911
372.91
372.91
372.911
372.912
372.913
372.915
372.919
372.923
372.921
372.92
372.919
372.919
372.919
372.919
372.92
372.922
372.924
372.932
372.93
372.929
372.928
372.927
372.926
372.927
372.927
372.928
372.93
372.94
372.938
372.936
372.935
372.935
372.934
372.934
372.934
372.935
372.936
372.947
372.946
372.944
372.943
372.943
372.942
372.942
372.941
372.942
372.942
372.954
372.953
372.952
372.951
372.95
372.949
372.949
372.949
372.949
372.949
372.961
372.96
372.959
372.958
372.957
372.957
372.956
372.956
372.956
372.956
372.968
372.967
372.966
372.965
372.964
372.964
372.963
372.963
372.963
372.963
372.974
372.974
372.973
372.972
372.971
372.971
372.97
372.97
372.97
372.97
372.98
372.979
372.979
372.978
372.978
372.978
372.977
372.977
372.976
372.976
372.986
372.986
372.985
372.985
372.985
372.984
372.984
372.984
372.983
372.983
372.992
372.992
372.991
372.991
372.991
372.991
372.99
372.99
372.99
372.99
372.997
372.997
372.996
372.996
372.996
372.996
372.996
372.995
372.995
372.995
373.048
373.046
373.038
373.024
373.004
372.977
372.936
372.881
372.832
372.778
373.004
372.998
372.987
372.968
372.943
372.909
372.859
372.788
372.733
372.689
372.961
372.951
372.937
372.916
372.885
372.844
372.784
372.704
372.638
372.618
372.926
372.91
372.893
372.867
372.832
372.787
372.719
372.629
372.563
372.566
372.891
372.874
372.851
372.825
372.786
372.734
372.66
372.565
372.494
372.506
372.864
372.842
372.82
372.788
372.748
372.693
372.615
372.515
372.449
372.452
372.841
372.819
372.792
372.762
372.719
372.659
372.579
372.484
372.415
372.46
372.824
372.8
372.775
372.741
372.698
372.639
372.559
372.465
372.408
372.467
372.811
372.789
372.761
372.731
372.69
372.627
372.549
372.466
372.418
372.507
372.806
372.783
372.758
372.729
372.687
372.627
372.554
372.486
372.461
372.562
373.334
373.359
373.386
373.41
373.446
373.476
373.523
373.57
373.622
373.653
373.329
373.353
373.379
373.403
373.435
373.468
373.51
373.561
373.606
373.645
373.317
373.337
373.363
373.384
373.414
373.443
373.483
373.533
373.579
373.601
373.297
373.32
373.336
373.363
373.38
373.413
373.437
373.486
373.521
373.554
373.274
373.291
373.311
373.326
373.348
373.365
373.387
373.418
373.451
373.477
373.244
373.26
373.273
373.289
373.299
373.315
373.324
373.343
373.369
373.374
373.211
373.222
373.233
373.242
373.247
373.254
373.253
373.258
373.268
373.269
373.174
373.181
373.186
373.191
373.19
373.188
373.181
373.165
373.165
373.149
373.135
373.138
373.139
373.136
373.129
373.119
373.098
373.072
373.05
373.009
373.095
373.094
373.089
373.081
373.067
373.047
373.019
372.976
372.943
372.885
373
373
373
373
373
373
373
373
373
373
373
373
373
373
373
373
373
373
373
373
373.001
373.001
373.001
373.001
373.001
373.001
373.001
373.001
373.001
373.001
373.001
373.002
373.002
373.002
373.002
373.002
373.002
373.003
373.003
373.003
373.003
373.004
373.004
373.004
373.004
373.005
373.005
373.006
373.006
373.007
373.007
373.008
373.008
373.009
373.009
373.01
373.011
373.012
373.013
373.014
373.015
373.016
373.017
373.018
373.02
373.021
373.023
373.024
373.026
373.028
373.03
373.032
373.035
373.037
373.04
373.043
373.047
373.049
373.054
373.057
373.062
373.066
373.071
373.077
373.082
373.09
373.096
373.104
373.112
373.121
373.132
373.143
373.155
373.17
373.184
373.204
373.223
373.248
373.275
373.311
373
373
373
373
373
373
373
373
373
373
373
373
373
373
373
373
373
373
373
373
373.001
373.001
373.001
373.001
373.001
373.001
373.001
373.001
373.001
373.001
373.001
373.002
373.002
373.002
373.002
373.002
373.002
373.003
373.003
373.003
373.003
373.004
373.004
373.004
373.004
373.005
373.005
373.006
373.006
373.007
373.007
373.008
373.008
373.009
373.009
373.01
373.011
373.012
373.013
373.014
373.015
373.016
373.017
373.018
373.02
373.021
373.023
373.024
373.026
373.028
373.031
373.032
373.035
373.037
373.041
373.043
373.047
373.049
373.054
373.057
373.062
373.067
373.071
373.077
373.082
373.09
373.095
373.104
373.111
373.122
373.131
373.143
373.154
373.169
373.183
373.203
373.221
373.246
373.271
373.306
373
373
373
373
373
373
373
373
373
373
373
373
373
373
373
373
373
373
373
373
373.001
373.001