/*--------------------------------*- C++ -*----------------------------------*\
  =========                 |
  \\      /  F ield         | OpenFOAM: The Open Source CFD Toolbox
   \\    /   O peration     | Website:  https://openfoam.org
    \\  /    A nd           | Version:  8
     \\/     M anipulation  |
\*---------------------------------------------------------------------------*/
FoamFile
{
    version     2.0;
    format      ascii;
    class       volVectorField;
    location    "4.500037302";
    object      U;
}
// * * * * * * * * * * * * * * * * * * * * * * * * * * * * * * * * * * * * * //

dimensions      [0 1 -1 0 0 0 0];

internalField   nonuniform List<vector> 
6800
(
(1.29464 3.98937 -1.03048e-14)
(21.0238 -3.30423 2.85058e-15)
(31.7118 -4.5412 2.82197e-15)
(38.6821 -4.47729 -2.85768e-15)
(43.4051 -4.08575 1.9288e-15)
(46.6065 -3.59776 2.56892e-15)
(48.7856 -3.11264 -4.07502e-15)
(50.2765 -2.66843 3.69351e-15)
(51.3163 -2.25345 -2.64424e-15)
(52.0176 -1.91043 5.1955e-16)
(11.0543 1.24 1.45239e-14)
(27.9423 -5.51469 -4.02245e-15)
(37.8235 -5.36092 -9.3915e-16)
(43.812 -4.70113 2.00019e-15)
(47.5782 -3.97564 -1.9143e-15)
(49.9756 -3.2722 -4.61453e-17)
(51.5029 -2.66581 5.803e-18)
(52.4648 -2.17412 -1.12936e-15)
(53.07 -1.78314 1.9771e-16)
(53.4047 -1.55916 2.6248e-15)
(18.2379 -0.939741 2.58333e-15)
(34.2533 -7.60418 -7.23635e-16)
(43.1835 -5.89007 1.95065e-15)
(48.1224 -4.70765 -4.49225e-15)
(50.9504 -3.69699 9.16854e-16)
(52.6021 -2.82738 -2.87192e-15)
(53.539 -2.13702 2.63356e-15)
(54.0343 -1.61758 -3.16001e-16)
(54.27 -1.22875 3.44015e-15)
(54.3237 -0.995162 -5.4312e-15)
(25.8652 -2.4182 4.25348e-15)
(40.4838 -9.19221 -9.89924e-16)
(48.0638 -5.96578 -1.87093e-16)
(51.8247 -4.44767 5.97762e-16)
(53.7352 -3.21974 -1.88906e-15)
(54.6898 -2.23759 1.83885e-15)
(55.0968 -1.50923 -3.11649e-15)
(55.2045 -0.982114 4.58183e-15)
(55.1598 -0.594036 -3.22784e-15)
(55.0144 -0.346737 4.0018e-15)
(33.4682 -2.76626 4.14858e-18)
(46.462 -9.99799 1.94073e-15)
(52.4766 -5.45576 7.79333e-16)
(55.0268 -3.85473 3.56362e-15)
(56.0621 -2.49214 -1.9314e-15)
(56.3763 -1.47446 6.19481e-16)
(56.3333 -0.751548 7.83785e-16)
(56.1344 -0.23611 2.43001e-15)
(55.8779 0.139591 -3.36135e-15)
(55.5848 0.386605 1.45881e-15)
(40.6732 -1.95194 -1.95101e-15)
(52.0333 -9.92471 -9.60721e-16)
(56.3913 -4.31374 -4.96566e-17)
(57.7861 -2.88966 -1.3049e-15)
(58.004 -1.47155 -1.7036e-16)
(57.7607 -0.503189 9.9925e-16)
(57.3504 0.173243 -1.37767e-15)
(56.9099 0.651571 1.60138e-15)
(56.487 0.995475 -1.8065e-15)
(56.0737 1.22679 -3.72278e-16)
(47.2059 -0.0550569 2.77387e-16)
(57.0449 -8.9438 1.0415e-15)
(59.7592 -2.54244 7.69163e-16)
(60.1156 -1.53474 -1.13504e-15)
(59.6002 -0.136353 -1.59479e-16)
(58.8954 0.700099 1.49611e-15)
(58.1911 1.29019 -6.26052e-16)
(57.5567 1.70343 9.76186e-16)
(56.9966 1.9899 -2.0044e-15)
(56.4786 2.18861 3.44641e-20)
(52.8525 2.7686 6.96603e-16)
(61.3829 -7.1025 -1.78374e-16)
(62.5304 -0.198613 -8.32994e-16)
(61.9921 0.206811 -1.42872e-15)
(60.857 1.50937 2.51494e-15)
(59.7907 2.13772 -1.76853e-15)
(58.8539 2.60746 3.57889e-16)
(58.0627 2.9228 -1.40092e-15)
(57.3886 3.12144 -6.18887e-16)
(56.7771 3.27216 -7.9723e-16)
(57.4592 6.3391 8.39605e-17)
(64.9365 -4.47298 1.32296e-16)
(64.6495 2.61594 -6.98465e-16)
(63.3857 2.29279 5.45954e-16)
(61.7633 3.43758 4.52116e-16)
(60.4279 3.79729 -6.32624e-16)
(59.3113 4.1109 3.02109e-16)
(58.3958 4.2951 5.17096e-16)
(57.6312 4.37501 5.3135e-16)
(56.9381 4.46525 6.24137e-16)
(60.94 10.4408 -2.31936e-16)
(67.617 -1.16572 -7.27609e-17)
(66.0712 5.77376 -1.64576e-16)
(64.2691 4.66781 1.66618e-16)
(62.2928 5.60196 -5.15764e-16)
(60.7734 5.64101 -9.84297e-17)
(59.5264 5.76851 -4.55268e-17)
(58.519 5.7882 4.5351e-16)
(57.6918 5.72469 2.1474e-16)
(56.9315 5.74333 -9.85581e-16)
(-3.33094 1.68671 1.73747e-15)
(-5.31197 1.18671 -4.92108e-16)
(-7.17086 0.87638 -2.296e-16)
(-8.58275 0.644012 3.67859e-16)
(-9.47985 0.425057 -7.66813e-17)
(-9.93538 0.198493 5.2193e-16)
(-9.98674 -0.0396889 1.75959e-16)
(-9.66517 -0.278443 -2.86194e-16)
(-9.0099 -0.496001 5.72446e-16)
(-8.07237 -0.650856 -1.96033e-16)
(-3.3473 4.2863 -8.87953e-16)
(-4.9762 3.27174 8.0799e-16)
(-6.52119 2.4671 1.6435e-16)
(-7.61927 1.82145 8.59725e-16)
(-8.21119 1.20236 -3.34099e-16)
(-8.34943 0.54628 -1.0008e-16)
(-8.04914 -0.16604 -1.02517e-15)
(-7.31543 -0.89215 7.18848e-16)
(-6.22074 -1.53494 2.32286e-16)
(-4.84491 -1.9605 1.0455e-15)
(-3.47036 6.52635 -2.10616e-15)
(-4.53363 5.06184 -1.02136e-16)
(-5.47782 3.82738 1.75286e-15)
(-5.95033 2.79839 -2.79058e-15)
(-5.89572 1.80446 7.15807e-18)
(-5.32424 0.737131 -3.49353e-16)
(-4.17974 -0.44983 2.94047e-15)
(-2.52357 -1.66129 -1.88325e-15)
(-0.697223 -2.6701 4.54994e-15)
(1.46069 -3.26905 -1.93782e-15)
(-3.70794 8.16099 -2.34209e-15)
(-4.07095 6.35084 2.24469e-15)
(-4.17278 4.77082 -3.78045e-15)
(-3.71366 3.40256 4.49639e-15)
(-2.58833 2.05592 1.07746e-15)
(-0.67027 0.545026 -5.49748e-16)
(2.09807 -1.12311 -2.00312e-15)
(4.69567 -2.52084 1.34417e-15)
(7.17413 -3.58561 9.77786e-16)
(9.84057 -4.07551 -3.82415e-15)
(-4.00765 9.0692 9.26609e-15)
(-3.61374 6.99792 5.94837e-17)
(-2.60425 5.12155 1.73337e-15)
(-0.705803 3.34517 -9.83055e-15)
(2.32008 1.5261 5.45549e-15)
(6.23031 -0.344455 9.97885e-16)
(9.90166 -1.94058 7.75726e-16)
(13.2132 -3.14893 1.22864e-15)
(16.162 -4.05197 3.05088e-16)
(19.2769 -4.35952 5.47522e-15)
(-4.32114 9.29762 7.08224e-15)
(-3.06283 6.86864 2.3341e-15)
(-0.423586 4.6203 2.20397e-15)
(3.7515 2.41145 -8.80678e-15)
(9.10592 0.25585 7.41748e-15)
(14.0463 -1.45359 -4.7456e-15)
(18.4051 -2.75947 -7.24928e-15)
(22.2055 -3.66493 1.84002e-15)
(25.4195 -4.23404 -4.84839e-15)
(28.6215 -4.26046 1.7304e-15)
(-4.6379 8.92466 5.88691e-15)
(-2.18728 5.89392 4.63498e-15)
(3.07326 3.21994 -6.91877e-15)
(10.2998 0.600467 1.52056e-14)
(16.7816 -1.28615 2.71864e-15)
(22.3088 -2.57848 -7.48152e-15)
(26.9123 -3.39858 4.32109e-15)
(30.6784 -3.88856 -6.60965e-16)
(33.6833 -4.14045 2.68478e-15)
(36.4934 -3.94635 1.24381e-15)
(-5.06886 8.17042 -9.90088e-15)
(-0.435208 4.2768 -2.13394e-14)
(9.50617 0.737077 6.20536e-15)
(17.9747 -1.39036 5.20265e-16)
(24.7971 -2.62575 -3.22801e-15)
(30.1957 -3.33291 -2.68473e-15)
(34.396 -3.70789 4.14687e-16)
(37.6635 -3.84625 -1.65413e-15)
(40.1883 -3.83519 -1.75745e-15)
(42.4456 -3.49725 5.00387e-15)
(-5.09584 6.84065 1.11331e-14)
(6.09361 1.21451 6.77761e-15)
(17.2433 -1.63749 2.86017e-15)
(25.7254 -2.93203 -1.12128e-15)
(32.0932 -3.51142 2.96865e-17)
(36.8522 -3.70933 2.04411e-15)
(40.4087 -3.69835 4.61065e-15)
(43.0766 -3.56498 -2.86656e-15)
(45.0687 -3.37012 -3.12341e-15)
(46.7616 -2.95747 3.31389e-15)
(-3.91606 5.42967 -8.99324e-15)
(13.8199 -1.21333 -2.9789e-16)
(24.8241 -3.365 -3.64279e-15)
(32.6524 -3.93294 -9.6385e-17)
(38.2645 -3.96101 4.84146e-16)
(42.2758 -3.76649 -3.31969e-16)
(45.145 -3.4768 -2.27332e-16)
(47.204 -3.15172 -2.16627e-15)
(48.6729 -2.8194 -3.20535e-15)
(49.8085 -2.3864 9.39712e-16)
(-6.85591 -0.710483 1.25235e-16)
(-5.31816 -0.67876 2.02121e-17)
(-3.8944 -0.62118 -1.98538e-16)
(-2.5914 -0.569632 1.48866e-16)
(-1.38445 -0.531565 6.68833e-17)
(-0.247882 -0.503102 -3.20961e-16)
(0.84631 -0.473225 -1.65641e-16)
(1.8556 -0.444454 2.45781e-16)
(2.82238 -0.421946 -1.49269e-16)
(3.74681 -0.403401 -4.42548e-17)
(4.63457 -0.387333 1.51515e-16)
(5.49005 -0.372991 -6.12538e-17)
(6.31631 -0.359933 3.76319e-16)
(7.11562 -0.347867 -1.92489e-16)
(7.88977 -0.3366 -4.40306e-16)
(8.64031 -0.326009 5.82699e-16)
(9.36856 -0.315998 -2.48021e-16)
(10.0756 -0.30647 -1.30352e-16)
(10.7625 -0.297342 1.33664e-16)
(11.4298 -0.288551 -3.13334e-17)
(12.0784 -0.280036 -3.24262e-17)
(12.7086 -0.271735 9.23106e-17)
(13.321 -0.263597 -1.55769e-16)
(13.9158 -0.255586 4.15549e-16)
(14.4931 -0.247685 2.05941e-17)
(15.0534 -0.239889 -4.42424e-16)
(15.5967 -0.232204 3.23935e-16)
(16.1232 -0.224644 7.21208e-17)
(16.6333 -0.217233 -1.52613e-18)
(17.1272 -0.209998 -2.48467e-16)
(17.6053 -0.202962 1.51339e-16)
(18.0681 -0.196141 -2.46998e-16)
(18.5158 -0.189543 2.24439e-16)
(18.9491 -0.183172 -2.9524e-16)
(19.3684 -0.177029 4.30192e-16)
(19.7742 -0.171114 -2.6738e-16)
(20.167 -0.165425 -1.16585e-16)
(20.5472 -0.159954 3.7976e-16)
(20.9154 -0.154697 -9.39308e-17)
(21.2719 -0.149653 -7.64586e-18)
(21.6172 -0.144819 -1.84817e-16)
(21.9518 -0.140192 6.77229e-17)
(22.276 -0.135762 -3.60941e-17)
(22.5905 -0.13152 -1.92439e-17)
(22.8954 -0.127462 2.31437e-16)
(23.1914 -0.123577 -9.95519e-17)
(23.4787 -0.119863 1.56987e-16)
(23.7577 -0.116321 -2.71277e-16)
(24.0289 -0.112947 4.08597e-17)
(24.2924 -0.109731 3.12414e-17)
(24.5487 -0.106658 -1.79445e-18)
(24.7981 -0.103718 -6.78302e-17)
(25.0409 -0.100903 8.0322e-17)
(25.2773 -0.0982046 3.372e-17)
(25.5077 -0.0956152 -1.70055e-17)
(25.7322 -0.0931274 -6.8323e-17)
(25.9511 -0.0907356 1.34419e-17)
(26.1646 -0.0884345 -7.02707e-17)
(26.373 -0.0862197 4.41571e-17)
(26.5764 -0.0840872 1.073e-16)
(26.7749 -0.0820334 -9.76318e-17)
(26.9689 -0.080055 3.52024e-18)
(27.1585 -0.0781493 -3.43634e-17)
(27.3438 -0.0763125 1.00384e-17)
(27.525 -0.0745412 6.17918e-17)
(27.7022 -0.0728293 5.81395e-17)
(27.8756 -0.0711719 -1.45958e-16)
(28.0453 -0.0695675 4.32485e-17)
(28.2115 -0.068013 1.09892e-17)
(28.3742 -0.0665037 -3.68052e-17)
(28.5335 -0.065038 -6.84851e-17)
(28.6895 -0.0636151 1.44826e-16)
(28.8423 -0.0622355 -4.22247e-17)
(28.9921 -0.0608985 3.19325e-17)
(29.1388 -0.0596031 -2.8845e-17)
(29.2827 -0.0583509 -4.48129e-17)
(29.4237 -0.0571414 1.2927e-17)
(29.562 -0.0559726 4.46047e-17)
(29.6977 -0.0548394 -6.65712e-17)
(29.8308 -0.0537394 8.28417e-17)
(29.9614 -0.0526738 2.3634e-18)
(30.0897 -0.0516424 -1.31535e-17)
(30.2156 -0.0506426 -3.12762e-17)
(30.3392 -0.0496779 4.78855e-17)
(30.4606 -0.0487439 -3.98219e-17)
(30.5799 -0.0478416 3.4192e-17)
(30.6972 -0.0469745 -4.9875e-17)
(30.8126 -0.0461465 -5.99903e-18)
(30.9261 -0.0453501 3.27582e-17)
(31.0378 -0.0445748 2.08013e-18)
(31.1477 -0.0438323 -1.20913e-17)
(31.2559 -0.0431127 -5.17904e-19)
(31.3625 -0.0423948 -1.89767e-18)
(31.4675 -0.0416763 -4.40907e-18)
(31.5708 -0.0409529 2.47678e-18)
(31.6724 -0.0402045 -1.55427e-18)
(31.7722 -0.0393913 5.77818e-18)
(31.8698 -0.0384824 4.01746e-18)
(31.9653 -0.0374386 -7.40741e-19)
(32.0802 -0.0352752 1.19972e-18)
(-3.48863 -2.05563 -5.01577e-16)
(-2.21685 -1.91586 -3.55802e-16)
(-0.981385 -1.75587 -1.56791e-15)
(0.175316 -1.61859 1.30241e-15)
(1.25789 -1.50911 -1.87181e-15)
(2.26434 -1.42359 1.36477e-15)
(3.22787 -1.34583 -9.08183e-16)
(4.14955 -1.27461 -6.52318e-16)
(5.0391 -1.21505 1.43603e-15)
(5.89658 -1.16417 4.91644e-16)
(6.72379 -1.1193 2.68604e-16)
(7.52319 -1.0789 -1.02016e-15)
(8.29685 -1.04189 3.6885e-16)
(9.04636 -1.00755 -4.10459e-16)
(9.77304 -0.975392 -1.05342e-15)
(10.4779 -0.945046 2.41825e-15)
(11.1619 -0.916296 1.65747e-16)
(11.8259 -0.88894 -1.54718e-16)
(12.4707 -0.862784 -5.00041e-16)
(13.097 -0.837637 -1.55934e-16)
(13.7054 -0.813305 -1.04107e-15)
(14.2963 -0.789606 1.01096e-15)
(14.87 -0.766399 -1.27357e-15)
(15.427 -0.743586 2.42689e-15)
(15.9675 -0.721107 -1.13556e-15)
(16.4916 -0.698931 3.29534e-16)
(16.9998 -0.677059 -4.10207e-16)
(17.4923 -0.655504 4.55399e-16)
(17.9694 -0.634322 4.17978e-16)
(18.4314 -0.61359 -9.6434e-17)
(18.8788 -0.593374 -8.51432e-16)
(19.3118 -0.573719 -1.20617e-16)
(19.7309 -0.55466 4.12983e-16)
(20.1366 -0.536223 1.5578e-16)
(20.5291 -0.518423 -9.09024e-16)
(20.9091 -0.501262 7.58756e-16)
(21.277 -0.484739 2.06946e-16)
(21.6332 -0.468834 -3.16134e-16)
(21.9781 -0.453526 1.46035e-16)
(22.3122 -0.438811 -2.3172e-16)
(22.6359 -0.42468 -2.28152e-16)
(22.9495 -0.411131 7.39479e-16)
(23.2535 -0.398147 -3.83298e-16)
(23.5483 -0.385709 1.3734e-16)
(23.8342 -0.373818 -8.04455e-16)
(24.1117 -0.362412 6.02681e-16)
(24.381 -0.351482 2.42093e-16)
(24.6426 -0.341054 -5.33032e-16)
(24.8967 -0.331129 -3.35292e-16)
(25.1437 -0.321688 2.89477e-16)
(25.3839 -0.312673 1.82811e-16)
(25.6176 -0.304058 1.16982e-18)
(25.845 -0.295818 5.60253e-16)
(26.0664 -0.287927 -7.67136e-16)
(26.2821 -0.28036 5.21275e-16)
(26.4924 -0.273091 -3.97028e-16)
(26.6973 -0.266103 -1.96542e-16)
(26.8973 -0.259381 8.57991e-16)
(27.0924 -0.252913 -1.4609e-16)
(27.2828 -0.246687 -2.34737e-16)
(27.4688 -0.240695 2.06974e-16)
(27.6504 -0.234927 -2.81178e-16)
(27.8279 -0.229374 -2.11019e-16)
(28.0015 -0.224027 1.97522e-16)
(28.1712 -0.218877 -1.05011e-16)
(28.3373 -0.213909 -2.34924e-16)
(28.4998 -0.209103 4.42028e-16)
(28.6589 -0.204447 -8.05807e-17)
(28.8147 -0.199932 -1.41848e-16)
(28.9673 -0.195549 -1.97243e-16)
(29.1167 -0.191296 2.68998e-17)
(29.2632 -0.187169 1.78326e-16)
(29.4066 -0.183158 1.51589e-16)
(29.5473 -0.179269 7.3107e-17)
(29.6851 -0.175504 -2.07652e-17)
(29.8202 -0.171858 -3.19486e-16)
(29.9528 -0.168342 2.56842e-16)
(30.0828 -0.164946 1.84449e-16)
(30.2105 -0.161653 -1.60079e-16)
(30.3358 -0.158459 -2.32745e-16)
(30.4588 -0.155368 9.9507e-18)
(30.5796 -0.152371 7.87742e-17)
(30.6982 -0.149461 -3.88674e-17)
(30.8148 -0.146658 5.58812e-18)
(30.9293 -0.143926 -9.26008e-18)
(31.0419 -0.141264 9.7068e-18)
(31.1527 -0.138709 -8.99046e-17)
(31.2616 -0.136289 2.06844e-16)
(31.3687 -0.133937 -9.19095e-17)
(31.4742 -0.131616 -7.17312e-17)
(31.5781 -0.129433 4.09679e-17)
(31.6804 -0.127326 2.27279e-17)
(31.7812 -0.125221 1.77228e-17)
(31.8805 -0.123125 -2.37339e-17)
(31.9783 -0.121031 1.36136e-17)
(32.0745 -0.118865 -8.53959e-17)
(32.169 -0.116474 3.65123e-17)
(32.2615 -0.113771 -1.22893e-17)
(32.3528 -0.110634 2.45638e-18)
(32.4615 -0.10584 -1.91085e-17)
(2.62987 -3.18924 -4.93109e-15)
(3.4092 -2.90992 1.05204e-15)
(4.27942 -2.69336 2.00371e-15)
(5.14162 -2.51452 1.9644e-15)
(5.98071 -2.35831 -1.44328e-15)
(6.79459 -2.22865 -4.10509e-15)
(7.58772 -2.11907 4.25173e-15)
(8.3617 -2.02218 7.20001e-16)
(9.11757 -1.93698 -1.28453e-15)
(9.85368 -1.86122 -6.45807e-16)
(10.5693 -1.79276 7.60812e-16)
(11.265 -1.73019 3.19276e-15)
(11.9414 -1.6724 -1.22205e-15)
(12.5991 -1.6183 -2.5418e-15)
(13.2385 -1.56714 3.44551e-15)
(13.8602 -1.51859 -1.5242e-15)
(14.4644 -1.47239 -1.19281e-15)
(15.0517 -1.42829 4.0253e-16)
(15.6223 -1.38605 -6.11888e-16)
(16.1768 -1.34536 1.41768e-15)
(16.7152 -1.30589 -2.03583e-15)
(17.2379 -1.26736 1.98747e-16)
(17.7449 -1.22959 -7.53508e-16)
(18.2365 -1.19248 1.66501e-15)
(18.7129 -1.15597 -3.94948e-16)
(19.1744 -1.12004 1.19214e-15)
(19.6212 -1.08471 -4.40333e-16)
(20.0538 -1.04999 -1.1257e-15)
(20.4725 -1.01596 -5.50508e-16)
(20.8777 -0.982705 -8.49767e-17)
(21.2697 -0.950297 5.69514e-16)
(21.6491 -0.918812 7.96955e-16)
(22.0162 -0.888303 -1.37562e-15)
(22.3714 -0.858809 9.87047e-16)
(22.7152 -0.830355 3.841e-16)
(23.0479 -0.802945 -7.55938e-16)
(23.3701 -0.776564 1.57156e-15)
(23.6821 -0.751182 -1.37076e-15)
(23.9842 -0.726767 2.53653e-16)
(24.277 -0.703296 -5.08711e-16)
(24.5607 -0.680753 2.39778e-16)
(24.8357 -0.659124 -2.29881e-16)
(25.1023 -0.638378 3.61496e-16)
(25.3609 -0.61848 1.63002e-16)
(25.6118 -0.599421 -2.9964e-16)
(25.8553 -0.581171 9.02278e-16)
(26.0918 -0.563716 -5.62563e-16)
(26.3215 -0.547051 -5.58747e-16)
(26.5447 -0.531151 8.49798e-16)
(26.7617 -0.515982 -9.18656e-16)
(26.9727 -0.501498 -1.50535e-17)
(27.178 -0.487658 1.58291e-15)
(27.3778 -0.474424 -2.06632e-15)
(27.5724 -0.461754 1.69138e-15)
(27.762 -0.44961 -1.13724e-15)
(27.9468 -0.437954 1.55022e-16)
(28.127 -0.426753 7.1919e-16)
(28.3028 -0.415983 -3.78655e-16)
(28.4743 -0.405626 -1.79021e-16)
(28.6417 -0.395667 2.56449e-16)
(28.8052 -0.386085 -8.37552e-18)
(28.965 -0.376865 -2.10732e-16)
(29.1212 -0.367987 -2.43108e-16)
(29.2739 -0.35944 3.02715e-17)
(29.4233 -0.351217 2.92182e-16)
(29.5694 -0.343283 -1.4641e-16)
(29.7125 -0.335606 3.84627e-16)
(29.8526 -0.32817 -1.92448e-16)
(29.9897 -0.320964 -2.22851e-17)
(30.124 -0.313973 -4.64759e-16)
(30.2556 -0.307195 4.31815e-16)
(30.3846 -0.300615 2.23848e-16)
(30.511 -0.294226 5.6083e-17)
(30.6349 -0.288027 -2.97218e-16)
(30.7563 -0.282027 2.33422e-16)
(30.8755 -0.276239 -8.62982e-17)
(30.9924 -0.270657 -1.98473e-17)
(31.1072 -0.265266 -3.18103e-16)
(31.22 -0.26005 2.49724e-16)
(31.3307 -0.254997 7.19215e-17)
(31.4395 -0.250098 -2.34507e-16)
(31.5463 -0.245345 8.28368e-17)
(31.6514 -0.240731 8.10866e-17)
(31.7546 -0.236265 -1.74397e-16)
(31.8561 -0.231927 -3.39556e-18)
(31.956 -0.227731 3.18276e-16)
(32.0542 -0.223688 6.59166e-17)
(32.1509 -0.219799 -6.54654e-17)
(32.2461 -0.216054 -1.7171e-16)
(32.3399 -0.212429 -2.3689e-17)
(32.4324 -0.208948 -6.84027e-17)
(32.5235 -0.205602 3.31331e-17)
(32.6133 -0.202276 1.25108e-16)
(32.7018 -0.198947 -5.0128e-17)
(32.7891 -0.195599 4.28947e-17)
(32.875 -0.192139 -7.05687e-17)
(32.9595 -0.188389 7.21763e-17)
(33.0423 -0.184113 -2.94707e-17)
(33.1243 -0.179069 -1.31057e-17)
(33.2218 -0.173125 1.45045e-17)
(10.6036 -3.82778 1.81965e-15)
(10.868 -3.51605 -4.6997e-16)
(11.2766 -3.3187 3.79647e-15)
(11.7968 -3.15546 -3.14375e-15)
(12.357 -2.9987 2.58477e-15)
(12.93 -2.85908 1.12965e-15)
(13.5092 -2.73815 2.5318e-16)
(14.0902 -2.63029 3.76674e-16)
(14.669 -2.53216 -8.3941e-16)
(15.2414 -2.44192 -9.62188e-16)
(15.8051 -2.35847 -2.56458e-15)
(16.3589 -2.281 3.29754e-15)
(16.9019 -2.20852 -3.37723e-15)
(17.4337 -2.14 2.30993e-15)
(17.9536 -2.07453 -1.06547e-15)
(18.4614 -2.01178 -2.82105e-16)
(18.9567 -1.95159 1.18893e-15)
(19.4394 -1.8937 -2.59013e-16)
(19.9093 -1.8379 -4.5688e-16)
(20.3663 -1.78385 -8.66019e-16)
(20.81 -1.73113 2.37889e-15)
(21.2404 -1.67944 -5.68701e-16)
(21.6574 -1.62865 1.52609e-16)
(22.061 -1.57871 1.51285e-15)
(22.4516 -1.52962 -4.02113e-15)
(22.8294 -1.48141 2.87028e-15)
(23.1947 -1.43413 -3.16544e-15)
(23.5481 -1.38781 4.3804e-15)
(23.8898 -1.34253 -2.45678e-15)
(24.2203 -1.29845 1.60766e-15)
(24.54 -1.25563 1.24719e-15)
(24.8493 -1.21406 -3.44041e-15)
(25.1487 -1.1738 8.71314e-16)
(25.4383 -1.1349 -5.75279e-16)
(25.7186 -1.09739 1.12632e-15)
(25.99 -1.06127 -1.30109e-16)
(26.2529 -1.02652 -2.30049e-15)
(26.5074 -0.993098 2.01778e-15)
(26.754 -0.960958 -2.70543e-16)
(26.993 -0.930064 3.06297e-16)
(27.2246 -0.90039 4.52975e-16)
(27.4492 -0.871914 3.90124e-16)
(27.667 -0.844596 4.21509e-17)
(27.8783 -0.81838 -9.34522e-16)
(28.0834 -0.793258 2.63262e-17)
(28.2824 -0.769219 -1.28652e-16)
(28.4758 -0.746224 -3.96178e-16)
(28.6636 -0.724253 1.73785e-15)
(28.8462 -0.703279 -7.26302e-16)
(29.0237 -0.683257 2.60409e-16)
(29.1963 -0.664132 3.49872e-16)
(29.3643 -0.645853 -5.2938e-16)
(29.5279 -0.628363 -6.05687e-16)
(29.6871 -0.611609 1.27616e-15)
(29.8422 -0.595542 -1.20648e-15)
(29.9933 -0.58012 -1.17444e-16)
(30.1407 -0.565309 1.25852e-15)
(30.2844 -0.551078 -8.27127e-16)
(30.4246 -0.537398 2.83488e-16)
(30.5615 -0.524244 1.57804e-16)
(30.6952 -0.511591 -6.13469e-16)
(30.8258 -0.499419 7.91187e-16)
(30.9534 -0.487698 -2.68737e-16)
(31.0782 -0.476417 -7.50688e-16)
(31.2002 -0.465576 4.22438e-16)
(31.3197 -0.455112 -5.58069e-17)
(31.4365 -0.444968 9.0704e-16)
(31.5509 -0.435139 -1.55115e-15)
(31.6628 -0.425613 1.39122e-15)
(31.7724 -0.416376 -6.51791e-17)
(31.8798 -0.407435 -5.5106e-16)
(31.985 -0.398766 7.36156e-16)
(32.0882 -0.390359 -4.90561e-16)
(32.1894 -0.382208 2.40374e-16)
(32.2887 -0.374332 -4.11179e-16)
(32.3861 -0.36676 -6.31642e-17)
(32.4818 -0.359465 2.29782e-16)
(32.5759 -0.352421 -8.56754e-17)
(32.6683 -0.345605 -2.8739e-16)
(32.7592 -0.339001 2.77232e-16)
(32.8485 -0.332595 4.05321e-16)
(32.9364 -0.326381 -7.00333e-17)
(33.0228 -0.320352 2.37188e-16)
(33.1078 -0.314506 -2.90246e-16)
(33.1915 -0.308835 -2.09142e-16)
(33.2739 -0.303355 -7.68774e-17)
(33.355 -0.298079 1.76989e-17)
(33.4349 -0.293004 1.17878e-16)
(33.5138 -0.288121 2.13209e-16)
(33.5915 -0.283409 -4.35097e-16)
(33.6682 -0.278855 3.25964e-16)
(33.7438 -0.27447 -1.70314e-16)
(33.8185 -0.270151 3.52402e-17)
(33.8922 -0.265839 1.40352e-16)
(33.9649 -0.261472 -1.26578e-17)
(34.0367 -0.256953 -1.16541e-16)
(34.1073 -0.252085 9.03704e-17)
(34.1767 -0.246565 -3.72644e-17)
(34.2456 -0.240076 -2.57337e-18)
(34.3277 -0.232836 -1.35983e-17)
(19.7731 -4.00046 -6.51053e-15)
(19.6589 -3.74523 -2.70155e-15)
(19.6491 -3.62134 3.80609e-15)
(19.821 -3.51217 -9.96378e-16)
(20.0795 -3.39056 -1.10119e-15)
(20.3728 -3.27029 2.73378e-15)
(20.6918 -3.1594 -2.78511e-15)
(21.0335 -3.05661 -1.19988e-15)
(21.391 -2.95974 1.17003e-15)
(21.7583 -2.86801 1.22579e-15)
(22.1319 -2.7812 -2.53425e-15)
(22.5085 -2.69898 3.87195e-15)
(22.8856 -2.62065 -2.85473e-15)
(23.2607 -2.54515 3.93968e-15)
(23.632 -2.47179 -2.99122e-15)
(23.9985 -2.40053 -2.02259e-15)
(24.3589 -2.33136 1.04667e-15)
(24.7121 -2.26401 2.64512e-15)
(25.0574 -2.19829 1.05194e-15)
(25.3936 -2.13384 -2.38772e-15)
(25.72 -2.0704 2.16511e-15)
(26.0364 -2.00793 6.85129e-17)
(26.3429 -1.9465 -1.54388e-16)
(26.6395 -1.88614 -1.5706e-15)
(26.9265 -1.8269 1.42672e-15)
(27.2041 -1.76886 -3.28595e-16)
(27.4728 -1.7121 -3.32329e-15)
(27.7326 -1.65663 2.04176e-15)
(27.9842 -1.60252 3.85326e-16)
(28.2277 -1.54983 9.4765e-16)
(28.4634 -1.49862 -3.55815e-15)
(28.6917 -1.44897 2.37171e-16)
(28.9127 -1.40094 3.11731e-15)
(29.1267 -1.35459 -1.68703e-16)
(29.3341 -1.30994 -2.46745e-15)
(29.5349 -1.26697 -6.98022e-16)
(29.7295 -1.22566 3.48727e-15)
(29.9181 -1.18594 -9.3373e-16)
(30.1009 -1.14775 -9.81079e-16)
(30.2781 -1.11106 9.20042e-16)
(30.4499 -1.07583 7.93597e-16)
(30.6165 -1.04202 1.28178e-15)
(30.7781 -1.00957 -3.54393e-15)
(30.9349 -0.978421 2.30679e-15)
(31.0871 -0.948561 2.96913e-16)
(31.2349 -0.919983 -1.79427e-15)
(31.3784 -0.892645 6.21961e-17)
(31.5179 -0.866513 -3.64318e-16)
(31.6535 -0.841554 1.32672e-15)
(31.7854 -0.817709 8.41272e-16)
(31.9136 -0.79491 -4.93983e-16)
(32.0384 -0.773096 -6.81444e-16)
(32.1599 -0.752202 -3.2489e-17)
(32.278 -0.732172 3.04391e-16)
(32.393 -0.712955 -2.45267e-16)
(32.5051 -0.694509 9.55689e-17)
(32.6142 -0.676798 -6.09201e-16)
(32.7206 -0.659785 1.25994e-15)
(32.8243 -0.643438 -1.04403e-15)
(32.9256 -0.627727 1.26806e-15)
(33.0244 -0.612608 -1.81459e-15)
(33.1209 -0.598056 2.76424e-16)
(33.2151 -0.584029 6.22031e-16)
(33.3071 -0.570523 -1.10477e-16)
(33.3971 -0.557561 4.88461e-16)
(33.485 -0.545031 -1.27185e-15)
(33.5709 -0.532869 7.8496e-16)
(33.655 -0.521106 -5.59287e-16)
(33.7372 -0.509724 -2.58022e-16)
(33.8177 -0.4987 1.67706e-15)
(33.8966 -0.488061 -1.3768e-15)
(33.974 -0.47776 6.43739e-16)
(34.0499 -0.467788 -2.96095e-16)
(34.1245 -0.458137 7.74504e-18)
(34.1978 -0.448833 6.88484e-16)
(34.2699 -0.439925 -4.69876e-16)
(34.3408 -0.431336 -2.16226e-16)
(34.4106 -0.423033 1.88869e-16)
(34.4792 -0.414994 3.95045e-16)
(34.5468 -0.407202 -3.46852e-16)
(34.6133 -0.399645 -3.30806e-16)
(34.6787 -0.392314 7.21599e-16)
(34.7432 -0.38521 -5.02084e-16)
(34.8067 -0.37832 9.53822e-17)
(34.8693 -0.371638 -2.16937e-16)
(34.9311 -0.365186 1.86703e-16)
(34.992 -0.358974 2.23945e-16)
(35.0521 -0.353019 -8.29387e-17)
(35.1116 -0.347301 1.31219e-16)
(35.1703 -0.341786 2.98802e-16)
(35.2282 -0.336418 -3.15009e-16)
(35.2855 -0.331235 4.07747e-16)
(35.3422 -0.326176 -3.30549e-16)
(35.3982 -0.321154 1.72614e-16)
(35.4535 -0.316055 1.15082e-16)
(35.5082 -0.31077 -3.65895e-17)
(35.5623 -0.30511 4.43782e-17)
(35.6157 -0.298758 -6.62814e-17)
(35.6688 -0.291294 7.89259e-17)
(35.7325 -0.283033 3.79019e-17)
(29.0537 -3.88023 7.20454e-16)
(28.7993 -3.73092 -2.41259e-15)
(28.5634 -3.68693 -7.19863e-16)
(28.4996 -3.63256 7.20466e-15)
(28.526 -3.55555 2.62728e-18)
(28.5861 -3.47044 -3.40259e-15)
(28.6741 -3.38358 1.81648e-15)
(28.7906 -3.29684 -2.10525e-15)
(28.9314 -3.21156 5.2223e-16)
(29.0936 -3.1281 3.85436e-15)
(29.2705 -3.04635 -7.51349e-16)
(29.4587 -2.9667 -9.20925e-15)
(29.6542 -2.88882 2.84992e-15)
(29.8532 -2.8122 6.44718e-15)
(30.0541 -2.73653 -1.13313e-16)
(30.2557 -2.662 -3.34101e-15)
(30.4566 -2.58881 -2.40841e-15)
(30.6558 -2.51659 -4.14312e-16)
(30.8521 -2.44539 1.35388e-15)
(31.0446 -2.37536 2.7411e-16)
(31.2333 -2.3062 2.25925e-15)
(31.4178 -2.23778 -2.67704e-16)
(31.5979 -2.17015 -2.7682e-15)
(31.7732 -2.10345 6.99669e-16)
(31.9439 -2.0379 -6.53386e-16)
(32.1099 -1.97363 3.48754e-16)
(32.2712 -1.91088 -2.92905e-16)
(32.428 -1.84955 -7.63738e-16)
(32.5802 -1.78966 2.49548e-15)
(32.7279 -1.73144 -2.09649e-15)
(32.8712 -1.67487 1.84637e-15)
(33.0104 -1.62 2.96146e-16)
(33.1455 -1.56681 1.08978e-15)
(33.2767 -1.51539 -1.48256e-15)
(33.4041 -1.46578 -5.36188e-16)
(33.5277 -1.41796 -1.11706e-15)
(33.6476 -1.37189 2.07474e-15)
(33.7639 -1.32753 -1.83113e-15)
(33.8767 -1.28487 -7.49683e-16)
(33.986 -1.24384 1.72363e-15)
(34.0921 -1.20441 5.03023e-16)
(34.195 -1.16652 4.22314e-16)
(34.2947 -1.13011 -1.62684e-16)
(34.3915 -1.09518 -1.33655e-16)
(34.4856 -1.06175 -9.55897e-16)
(34.577 -1.02979 -2.09428e-15)
(34.6659 -0.999243 3.92557e-15)
(34.7525 -0.970053 -2.67239e-15)
(34.8367 -0.942141 -1.17884e-15)
(34.9187 -0.915438 1.98051e-15)
(34.9984 -0.889873 -1.29542e-15)
(35.0758 -0.865404 1.55864e-15)
(35.1511 -0.841971 -1.41406e-16)
(35.2243 -0.819519 4.9215e-17)
(35.2955 -0.797992 -1.33035e-15)
(35.3647 -0.777342 3.03963e-16)
(35.4321 -0.757527 -6.3371e-16)
(35.4977 -0.738502 4.15276e-16)
(35.5616 -0.720222 2.56784e-16)
(35.6239 -0.702646 -3.99117e-16)
(35.6846 -0.685717 6.47871e-16)
(35.7437 -0.669413 -1.17948e-16)
(35.8013 -0.653681 8.83792e-16)
(35.8575 -0.638499 2.76944e-16)
(35.9122 -0.623888 7.35913e-18)
(35.9654 -0.609774 -2.75166e-17)
(36.0174 -0.596142 -8.37341e-16)
(36.0683 -0.58299 1.86433e-16)
(36.1181 -0.570283 -8.50947e-17)
(36.1669 -0.558032 -3.67838e-16)
(36.215 -0.546249 -2.76384e-16)
(36.2621 -0.534876 4.7232e-16)
(36.3086 -0.52391 -7.46359e-16)
(36.3543 -0.513328 -1.49624e-16)
(36.3996 -0.503144 8.12528e-16)
(36.4442 -0.493354 -6.42091e-17)
(36.4882 -0.483864 -5.72683e-16)
(36.5315 -0.474682 -5.6641e-16)
(36.5741 -0.465802 1.41134e-15)
(36.6162 -0.457207 -4.37311e-16)
(36.6576 -0.448894 -8.29765e-18)
(36.6986 -0.440837 -8.35066e-17)
(36.739 -0.433045 -2.26259e-16)
(36.779 -0.425506 3.23892e-16)
(36.8186 -0.418202 -3.98789e-16)
(36.8578 -0.411163 3.99425e-16)
(36.8967 -0.404402 -5.47085e-17)
(36.9353 -0.397922 3.26571e-16)
(36.9735 -0.391683 -5.86898e-16)
(37.0114 -0.38563 3.59021e-18)
(37.049 -0.379733 3.57769e-17)
(37.0861 -0.374046 -5.13785e-17)
(37.123 -0.368504 -8.7658e-17)
(37.1596 -0.363042 -1.64711e-16)
(37.1959 -0.357494 1.92981e-16)
(37.232 -0.351748 -2.0246e-17)
(37.2679 -0.345652 5.7343e-17)
(37.3036 -0.33893 -1.19051e-16)
(37.3395 -0.33098 -4.88281e-17)
(37.3832 -0.322158 4.2391e-18)
(36.8617 -3.63632 -1.06553e-15)
(36.5473 -3.61319 2.94046e-16)
(36.2051 -3.6383 -4.67065e-15)
(36.019 -3.62262 2.23923e-15)
(35.9277 -3.57918 3.9154e-15)
(35.8757 -3.52478 2.14219e-15)
(35.8501 -3.46417 -5.36841e-16)
(35.8508 -3.3988 -8.48429e-15)
(35.8762 -3.32907 1.89544e-16)
(35.9213 -3.25695 5.52801e-15)
(35.9807 -3.18366 -2.78896e-16)
(36.0509 -3.10923 -1.61968e-16)
(36.1284 -3.0349 4.35834e-15)
(36.2116 -2.96058 -9.15131e-16)
(36.2987 -2.88572 -5.23948e-16)
(36.3875 -2.81044 -6.98774e-16)
(36.4766 -2.73518 -1.63776e-15)
(36.5648 -2.66018 -2.34212e-15)
(36.6514 -2.58548 -9.94682e-16)
(36.7362 -2.51119 6.24539e-15)
(36.8193 -2.43764 7.69204e-16)
(36.9002 -2.36505 -4.64071e-15)
(36.9789 -2.29362 -1.47515e-15)
(37.0554 -2.22338 -3.58666e-15)
(37.1296 -2.15443 6.21131e-15)
(37.2014 -2.08686 -2.54622e-15)
(37.2708 -2.02075 2.3106e-15)
(37.3379 -1.9563 1.34833e-15)
(37.4023 -1.89338 -3.13489e-15)
(37.4642 -1.83209 1.24445e-15)
(37.5236 -1.77258 1.86643e-16)
(37.5809 -1.71492 -1.19176e-15)
(37.636 -1.65911 2.68741e-15)
(37.6889 -1.60522 -3.14153e-15)
(37.7398 -1.55324 5.18108e-16)
(37.7888 -1.5031 7.3009e-16)
(37.8357 -1.4548 -1.19008e-16)
(37.8808 -1.40829 7.89475e-16)
(37.9241 -1.36357 -1.08271e-15)
(37.9656 -1.32055 1.1649e-15)
(38.0057 -1.27931 -1.53867e-15)
(38.0444 -1.23976 1.66962e-15)
(38.0819 -1.20179 -1.49094e-15)
(38.1184 -1.1653 7.98108e-16)
(38.1539 -1.13031 1.1655e-15)
(38.1884 -1.09681 5.45439e-16)
(38.2221 -1.0647 -1.17259e-15)
(38.2547 -1.0339 1.34569e-15)
(38.2865 -1.00437 -2.45184e-15)
(38.3171 -0.976024 1.49491e-15)
(38.3468 -0.94879 -4.32944e-16)
(38.3754 -0.922641 2.3537e-16)
(38.4029 -0.897511 -1.30601e-15)
(38.4294 -0.873377 2.72832e-15)
(38.4549 -0.850215 -1.36528e-15)
(38.4794 -0.827987 -2.18099e-15)
(38.503 -0.806643 1.6394e-15)
(38.5257 -0.786124 -5.20402e-17)
(38.5475 -0.766376 -1.15158e-15)
(38.5685 -0.74738 -1.10946e-15)
(38.5886 -0.729086 3.04951e-15)
(38.608 -0.711522 -1.95589e-15)
(38.6267 -0.694579 1.95031e-15)
(38.6448 -0.678245 -9.81997e-16)
(38.6624 -0.662731 9.55989e-17)
(38.6794 -0.647787 4.36451e-16)
(38.6962 -0.63322 -1.14756e-15)
(38.7126 -0.619251 -1.41144e-16)
(38.7288 -0.605908 8.70024e-16)
(38.7449 -0.592967 -6.11344e-16)
(38.7608 -0.580627 5.12547e-16)
(38.7765 -0.568725 5.6173e-17)
(38.7922 -0.557265 -6.82766e-16)
(38.8077 -0.54617 -7.75369e-17)
(38.8232 -0.535348 1.34242e-15)
(38.8383 -0.525095 -4.97208e-16)
(38.8533 -0.515206 -3.41154e-16)
(38.8683 -0.505662 4.863e-16)
(38.8832 -0.496443 -2.42699e-16)
(38.8981 -0.48753 3.87383e-16)
(38.913 -0.47892 4.00977e-16)
(38.928 -0.470585 -1.08672e-15)
(38.9431 -0.462552 9.77081e-17)
(38.9584 -0.454778 4.30107e-16)
(38.9737 -0.447225 -6.95302e-16)
(38.9893 -0.439941 8.76363e-16)
(39.0051 -0.432943 -3.17825e-16)
(39.021 -0.426228 -4.59578e-16)
(39.037 -0.419737 7.56654e-17)
(39.053 -0.413393 5.20254e-17)
(39.0692 -0.407243 1.03677e-16)
(39.0853 -0.401368 -1.25646e-16)
(39.1017 -0.395668 8.55689e-17)
(39.1181 -0.390088 4.12402e-18)
(39.1347 -0.384388 5.70364e-17)
(39.1515 -0.378559 -2.01663e-17)
(39.1685 -0.372451 3.51695e-17)
(39.1861 -0.365798 -2.64604e-17)
(39.2041 -0.357944 -4.67837e-17)
(39.2272 -0.349169 -4.01168e-17)
(42.6609 -3.29568 1.77487e-15)
(42.2829 -3.38994 -2.67027e-15)
(41.8524 -3.48266 4.39506e-15)
(41.5563 -3.50878 -3.0359e-15)
(41.3632 -3.50216 -4.89922e-15)
(41.2238 -3.48349 4.20089e-15)
(41.1192 -3.45504 1.81818e-15)
(41.0457 -3.41666 5.34843e-17)
(41.0009 -3.36965 -7.56419e-17)
(40.9787 -3.31545 2.84593e-15)
(40.9758 -3.25554 -2.90992e-15)
(40.988 -3.19112 -1.93688e-15)
(41.0128 -3.12341 -4.44189e-15)
(41.0481 -3.05348 3.43907e-15)
(41.0913 -2.98183 -5.45168e-16)
(41.1397 -2.90861 -1.33909e-15)
(41.1916 -2.83412 5.47787e-16)
(41.2454 -2.75875 6.82386e-15)
(41.2999 -2.68309 -6.25584e-15)
(41.3545 -2.60751 -1.13992e-15)
(41.4082 -2.5323 2.17644e-15)
(41.4607 -2.45756 6.40109e-16)
(41.5115 -2.38336 -2.08589e-15)