/*--------------------------------*- C++ -*----------------------------------*\
  =========                 |
  \\      /  F ield         | OpenFOAM: The Open Source CFD Toolbox
   \\    /   O peration     | Website:  https://openfoam.org
    \\  /    A nd           | Version:  8
     \\/     M anipulation  |
\*---------------------------------------------------------------------------*/
FoamFile
{
    version     2.0;
    format      ascii;
    class       volScalarField;
    location    "1";
    object      N;
}
// * * * * * * * * * * * * * * * * * * * * * * * * * * * * * * * * * * * * * //

dimensions      [0 -3 0 0 0 0 0];

internalField   nonuniform List<scalar> 
200
(
6.639516e+10
31440572
3354.835
0.38124795
0.10002228
0.10000122
0.10000125
0.10000128
0.10000129
0.1000013
0.1000013
0.10000131
0.10000131
0.10000132
0.10000132
0.10000132
0.10000133
0.10000133
0.10000133
0.10000134
0.10000134
0.10000134
0.10000134
0.10000135
0.10000135
0.10000135
0.10000135
0.10000135
0.10000135
0.10000135
0.10000134
0.10000134
0.10000134
0.10000134
0.10000134
0.10000134
0.10000134
0.10000133
0.10000133
0.10000133
0.10000133
0.10000133
0.10000133
0.10000132
0.10000132
0.10000132
0.10000132
0.10000132
0.10000132
0.10000131
0.10000132
0.10000131
0.10000132
0.10000131
0.10000131
0.10000131
0.10000131
0.1000013
0.10000131
0.1000013
0.10000131
0.10000129
0.10000131
0.10000129
0.10000131
0.10000128
0.1000013
0.10000128
0.1000013
0.10000127
0.1000013
0.10000126
0.10000129
0.10000125
0.10000129
0.10000123
0.10000128
0.10000122
0.10000127
0.10000121
0.10000127
0.10000119
0.10000126
0.10000117
0.10000126
0.10000116
0.10000125
0.10000114
0.10000124
0.10000112
0.10000124
0.1000011
0.10000123
0.10000108
0.10000123
0.10000106
0.10000122
0.10000104
0.10000122
0.10000102
0.10000121
0.100001
0.10000121
0.10000098
0.1000012
0.10000095
0.10000119
0.10000093
0.10000119
0.1000009
0.10000118
0.10000087
0.10000118
0.10000085
0.10000117
0.10000082
0.10000116
0.1000008
0.10000115
0.10000078
0.10000115
0.10000075
0.10000114
0.10000073
0.10000114
0.10000071
0.10000113
0.10000069
0.10000113
0.10000066
0.10000112
0.10000064
0.10000112
0.10000061
0.10000111
0.10000059
0.10000111
0.10000057
0.10000111
0.10000055
0.1000011
0.10000053
0.1000011
0.1000005
0.10000108
0.10000051
0.10000105
0.1000005
0.10000103
0.1000005
0.100001
0.10000049
0.10000097
0.10000049
0.10000091
0.1000005
0.10000089
0.10000047
0.10000084
0.10000047
0.10000081
0.10000046
0.10000078
0.10000045
0.10000075
0.10000042
0.10000072
0.10000041
0.10000067
0.10000041
0.10000067
0.10000037
0.10000064
0.10000035
0.10000062
0.10000031
0.10000062
0.10000032
0.10000058
0.10000039
0.10000047
0.10000038
0.1000004
0.10000044
0.10000031
0.10000047
0.10000018
0.10000052
0.10000012
0.10000059
0.099999948
0.10000077
0.099999683
0.10000104
0.09999928
0.10000144
0.099998854
0.10000179
0.099997845
0.099999353
)
;

boundaryField
{
    left
    {
        type            zeroGradient;
    }
    right
    {
        type            zeroGradient;
    }
    walls
    {
        type            zeroGradient;
    }
    centreline
    {
        type            zeroGradient;
    }
    frontAndBack
    {
        type            zeroGradient;
    }
}


// ************************************************************************* //
