/*--------------------------------*- C++ -*----------------------------------*\
  =========                 |
  \\      /  F ield         | OpenFOAM: The Open Source CFD Toolbox
   \\    /   O peration     | Website:  https://openfoam.org
    \\  /    A nd           | Version:  8
     \\/     M anipulation  |
\*---------------------------------------------------------------------------*/
FoamFile
{
    version     2.0;
    format      ascii;
    class       volScalarField;
    location    "1";
    object      p;
}
// * * * * * * * * * * * * * * * * * * * * * * * * * * * * * * * * * * * * * //

dimensions      [1 -1 -2 0 0 0 0];

internalField   nonuniform List<scalar> 
200
(
101326.09
101326.09
101326.09
101326.09
101326.09
101326.09
101326.09
101326.09
101326.09
101326.09
101326.09
101326.09
101326.09
101326.09
101326.09
101326.09
101326.08
101326.08
101326.08
101326.08
101326.08
101326.08
101326.08
101326.08
101326.08
101326.08
101326.08
101326.08
101326.08
101326.08
101326.08
101326.08
101326.08
101326.08
101326.08
101326.07
101326.07
101326.07
101326.07
101326.07
101326.07
101326.07
101326.07
101326.07
101326.07
101326.06
101326.06
101326.06
101326.06
101326.06
101326.06
101326.05
101326.06
101326.05
101326.06
101326.05
101326.05
101326.04
101326.05
101326.04
101326.05
101326.03
101326.05
101326.03
101326.05
101326.02
101326.05
101326.01
101326.04
101326.01
101326.04
101326
101326.04
101325.99
101326.04
101325.98
101326.04
101325.97
101326.04
101325.96
101326.04
101325.95
101326.04
101325.94
101326.04
101325.93
101326.04
101325.91
101326.04
101325.9
101326.04
101325.88
101326.04
101325.87
101326.04
101325.85
101326.04
101325.83
101326.04
101325.81
101326.04
101325.79
101326.05
101325.77
101326.05
101325.75
101326.05
101325.73
101326.06
101325.71
101326.06
101325.69
101326.06
101325.66
101326.07
101325.64
101326.07
101325.62
101326.07
101325.6
101326.07
101325.58
101326.07
101325.55
101326.07
101325.53
101326.07
101325.51
101326.07
101325.48
101326.07
101325.46
101326.07
101325.43
101326.07
101325.41
101326.06
101325.38
101326.06
101325.36
101326.06
101325.33
101326.05
101325.31
101326.05
101325.28
101326.04
101325.26
101326.04
101325.24
101326.03
101325.21
101326.02
101325.19
101326.01
101325.17
101326
101325.15
101325.98
101325.12
101325.97
101325.1
101325.95
101325.08
101325.94
101325.06
101325.92
101325.04
101325.9
101325.02
101325.89
101325
101325.88
101324.97
101325.88
101324.93
101325.88
101324.89
101325.87
101324.85
101325.86
101324.8
101325.85
101324.76
101325.83
101324.73
101325.8
101324.74
101325.73
101324.79
101325.64
101324.85
101325.53
101324.94
101325.38
101325.06
101325.2
101325.23
101324.85
101325.58
)
;

boundaryField
{
    left
    {
        type            zeroGradient;
    }
    right
    {
        type            zeroGradient;
    }
    walls
    {
        type            zeroGradient;
    }
    centreline
    {
        type            fixedValue;
        value           uniform 101325;
    }
    frontAndBack
    {
        type            zeroGradient;
    }
}


// ************************************************************************* //
