/*--------------------------------*- C++ -*----------------------------------*\
  =========                 |
  \\      /  F ield         | OpenFOAM: The Open Source CFD Toolbox
   \\    /   O peration     | Website:  https://openfoam.org
    \\  /    A nd           | Version:  8
     \\/     M anipulation  |
\*---------------------------------------------------------------------------*/
FoamFile
{
    version     2.0;
    format      ascii;
    class       surfaceScalarField;
    location    "1";
    object      phi;
}
// * * * * * * * * * * * * * * * * * * * * * * * * * * * * * * * * * * * * * //

dimensions      [1 0 -1 0 0 0 0];

internalField   nonuniform List<scalar> 
199
(
2.2590542e-05
4.169388e-05
5.9955067e-05
7.807225e-05
9.6234918e-05
0.00011449674
0.00013287557
0.00015137568
0.00016999916
0.00018874615
0.00020761718
0.00022661225
0.00024573168
0.00026497557
0.00028434423
0.00030383787
0.00032345678
0.00034320125
0.00036307159
0.00038306816
0.0004031913
0.00042344142
0.0004438189
0.0004643242
0.00048495769
0.00050571993
0.00052661119
0.00054763222
0.00056878302
0.00059006469
0.00061147671
0.00063302072
0.00065469545
0.000676503
0.00069844183
0.00072051332
0.00074271773
0.00076505249
0.00078752433
0.00081012049
0.00083286246
0.000855717
0.00087873319
0.00090184199
0.00092513838
0.00094849624
0.00097208115
0.00099568175
0.0010195662
0.0010434018
0.0010675996
0.0010916612
0.0011161894
0.0011404659
0.0011653453
0.0011898239
0.0012150797
0.0012397457
0.0012654086
0.0012902464
0.0013163541
0.0013413473
0.0013679465
0.0013930792
0.0014202274
0.0014454845
0.0014732519
0.0014986194
0.0015270898
0.0015525545
0.0015818255
0.0016073734
0.0016375547
0.0016631686
0.0016943782
0.0017200333
0.0017523903
0.0017780487
0.0018116638
0.0018372682
0.0018722338
0.0018977034
0.0019340865
0.0019593151
0.001997156
0.0020220045
0.0020613094
0.0020855708
0.0021262928
0.0021495495
0.0021916661
0.002212953
0.0022571502
0.0022763296
0.0023237428
0.0023457953
0.0023924172
0.0024195582
0.0024583117
0.002472922
0.0025205807
0.0025270361
0.0025893495
0.0026122565
0.0026623705
0.0026864794
0.0027274681
0.0027327693
0.0027890236
0.0027900914
0.0028563909
0.0028672347
0.0029167788
0.0029344622
0.0029648664
0.002995918
0.0030276405
0.0030588926
0.0030905884
0.0031216714
0.0031532101
0.0031840591
0.0032154073
0.0032459971
0.0032771408
0.0033074549
0.0033383836
0.0033684051
0.0033991075
0.0034288172
0.0034592801
0.0034886564
0.0035188652
0.0035478838
0.0035778215
0.0036064542
0.0036360993
0.0036643124
0.003693638
0.0037213924
0.0037503658
0.0037776192
0.0038062036
0.0038329142
0.0038610711
0.0038872035
0.0039148966
0.0039404305
0.0039676314
0.0039925747
0.0040192729
0.0040436796
0.0040698954
0.0040938845
0.0041196783
0.0041434422
0.0041689033
0.0041926786
0.0042178591
0.0042418141
0.0042665665
0.0042905969
0.0043144571
0.0043386791
0.0043645178
0.00435855
0.0044287446
0.004409878
0.0044584994
0.0044048106
0.0044683831
0.0044147351
0.0044743305
0.004445255
0.0044780513
0.0044540669
0.0044776224
0.0045060256
0.0045373121
0.0045758243
0.0046197035
0.0046599575
0.0047083966
0.0047377563
0.0047924963
0.004728105
0.0048710259
0.0046335412
0.0047561742
0.0045472069
0.0047550655
0.0045048505
0.0046939899
0.0046214263
0.0046951265
0.0046209679
0.0047183399
0.004582824
0.0046399111
)
;

boundaryField
{
    left
    {
        type            calculated;
        value           uniform 0;
    }
    right
    {
        type            calculated;
        value           uniform 0;
    }
    walls
    {
        type            calculated;
        value           uniform 0;
    }
    centreline
    {
        type            calculated;
        value           uniform 0.0045376962;
    }
    frontAndBack
    {
        type            calculated;
        value           uniform 0;
    }
}


// ************************************************************************* //
