/*--------------------------------*- C++ -*----------------------------------*\
  =========                 |
  \\      /  F ield         | OpenFOAM: The Open Source CFD Toolbox
   \\    /   O peration     | Website:  https://openfoam.org
    \\  /    A nd           | Version:  8
     \\/     M anipulation  |
\*---------------------------------------------------------------------------*/
FoamFile
{
    version     2.0;
    format      ascii;
    class       volScalarField;
    location    "1";
    object      T;
}
// * * * * * * * * * * * * * * * * * * * * * * * * * * * * * * * * * * * * * //

dimensions      [0 0 0 1 0 0 0];

internalField   nonuniform List<scalar> 
200
(
275.52128
369.43617
372.93442
372.99897
372.99931
372.99904
372.99888
372.99879
372.99873
372.9987
372.99868
372.99866
372.99864
372.99862
372.9986
372.99858
372.99857
372.99855
372.99854
372.99853
372.99851
372.9985
372.99849
372.99848
372.99848
372.99847
372.99847
372.99847
372.99847
372.99847
372.99847
372.99848
372.99848
372.99849
372.99849
372.99849
372.9985
372.9985
372.99851
372.99851
372.99851
372.99851
372.99852
372.99852
372.99852
372.99852
372.99852
372.99852
372.99852
372.99852
372.99852
372.99852
372.99852
372.99852
372.99852
372.99852
372.99852
372.99852
372.99852
372.99852
372.99852
372.99852
372.99852
372.99852
372.99852
372.99852
372.99852
372.99852
372.99853
372.99853
372.99854
372.99854
372.99855
372.99856
372.99857
372.99858
372.99859
372.9986
372.99861
372.99862
372.99863
372.99864
372.99866
372.99867
372.99868
372.99869
372.99871
372.99871
372.99873
372.99873
372.99876
372.99875
372.99878
372.99877
372.9988
372.99879
372.99883
372.99881
372.99885
372.99883
372.99888
372.99885
372.99891
372.99888
372.99895
372.9989
372.99898
372.99893
372.99902
372.99896
372.99906
372.99898
372.99909
372.99901
372.99913
372.99903
372.99916
372.99905
372.99918
372.99907
372.9992
372.99908
372.99922
372.9991
372.99923
372.99911
372.99924
372.99913
372.99924
372.99916
372.99924
372.99918
372.99924
372.9992
372.99925
372.99921
372.99925
372.99923
372.99924
372.99923
372.99923
372.99926
372.9992
372.99929
372.99923
372.99921
372.99929
372.99916
372.99932
372.99912
372.99941
372.99908
372.99947
372.99902
372.99962
372.99896
372.99963
372.99904
372.99973
372.99901
372.99977
372.99903
372.99978
372.99905
372.99975
372.99913
372.99975
372.99919
372.99984
372.99916
372.99972
372.99935
372.9997
372.99942
372.99966
372.99958
372.99954
372.99954
372.9995
372.9993
372.99969
372.9995
372.99955
372.9995
372.99935
372.99988
372.99901
373.00056
372.99803
373.00156
372.99719
373.00235
372.99644
373.00314
372.99588
373.00372
372.99504
373.00489
372.99459
373.00227
)
;

boundaryField
{
    left
    {
        type            zeroGradient;
    }
    right
    {
        type            zeroGradient;
    }
    walls
    {
        type            fixedValue;
        value           uniform 368;
    }
    centreline
    {
        type            fixedValue;
        value           uniform 373;
    }
    frontAndBack
    {
        type            zeroGradient;
    }
}


// ************************************************************************* //
