/*--------------------------------*- C++ -*----------------------------------*\
  =========                 |
  \\      /  F ield         | OpenFOAM: The Open Source CFD Toolbox
   \\    /   O peration     | Website:  https://openfoam.org
    \\  /    A nd           | Version:  8
     \\/     M anipulation  |
\*---------------------------------------------------------------------------*/
FoamFile
{
    version     2.0;
    format      ascii;
    class       volVectorField;
    location    "1";
    object      U;
}
// * * * * * * * * * * * * * * * * * * * * * * * * * * * * * * * * * * * * * //

dimensions      [0 1 -1 0 0 0 0];

internalField   nonuniform List<vector> 
200
(
(0 2.7717869e-05 0)
(0 5.0056228e-06 0)
(0 2.9418965e-05 0)
(0 2.1342495e-05 0)
(0 4.4482476e-05 0)
(0 3.6446447e-05 0)
(0 6.0458391e-05 0)
(0 5.1059627e-05 0)
(0 7.7142008e-05 0)
(0 6.5533218e-05 0)
(0 9.4227228e-05 0)
(0 8.0151258e-05 0)
(0 0.00011148301 0)
(0 9.5090859e-05 0)
(0 0.00012878774 0)
(0 0.00011042934 0)
(0 0.00014609948 0)
(0 0.00012618716 0)
(0 0.00016341459 0)
(0 0.00014236003 0)
(0 0.00018074666 0)
(0 0.00015892926 0)
(0 0.00019812743 0)
(0 0.0001758482 0)
(0 0.00021563454 0)
(0 0.00019299682 0)
(0 0.0002334641 0)
(0 0.00021006286 0)
(0 0.00025212094 0)
(0 0.0002262575 0)
(0 0.00027280762 0)
(0 0.00023983354 0)
(0 0.00029794866 0)
(0 0.00024761277 0)
(0 0.00033148132 0)
(0 0.00024499388 0)
(0 0.00037852589 0)
(0 0.00022649331 0)
(0 0.00044481111 0)
(0 0.00018621918 0)
(0 0.00053634634 0)
(0 0.00011807041 0)
(0 0.00065931305 0)
(0 1.5790704e-05 0)
(0 0.00082004128 0)
(0 -0.00012702198 0)
(0 0.0010250069 0)
(0 -0.00031691408 0)
(0 0.0012808299 0)
(0 -0.00056057305 0)
(0 0.00159427 0)
(0 -0.00086482115 0)
(0 0.0019722186 0)
(0 -0.0012366069 0)
(0 0.0024216899 0)
(0 -0.0016829953 0)
(0 0.0029498111 0)
(0 -0.0022111563 0)
(0 0.00356381 0)
(0 -0.0028283523 0)
(0 0.004271006 0)
(0 -0.0035419266 0)
(0 0.0050787998 0)
(0 -0.0043592939 0)
(0 0.0059946672 0)
(0 -0.0052879319 0)
(0 0.007026156 0)
(0 -0.0063353753 0)
(0 0.0081808776 0)
(0 -0.007509207 0)
(0 0.0094664979 0)
(0 -0.0088170433 0)
(0 0.010890719 0)
(0 -0.010266519 0)
(0 0.012461257 0)
(0 -0.011865268 0)
(0 0.01418582 0)
(0 -0.013620915 0)
(0 0.016072092 0)
(0 -0.015541072 0)
(0 0.018127717 0)
(0 -0.017633344 0)
(0 0.020360299 0)
(0 -0.019905342 0)
(0 0.022777412 0)
(0 -0.022364689 0)
(0 0.025386594 0)
(0 -0.025019019 0)
(0 0.02819532 0)
(0 -0.027875964 0)
(0 0.03121098 0)
(0 -0.030943094 0)
(0 0.034440901 0)
(0 -0.034227846 0)
(0 0.037892266 0)
(0 -0.037737534 0)
(0 0.041571919 0)
(0 -0.041478982 0)
(0 0.045485993 0)
(0 -0.045457547 0)
(0 0.049641845 0)
(0 -0.049680116 0)
(0 0.054044855 0)
(0 -0.054152679 0)
(0 0.058698764 0)
(0 -0.058878994 0)
(0 0.063609084 0)
(0 -0.063864302 0)
(0 0.068781777 0)
(0 -0.069114839 0)
(0 0.074220466 0)
(0 -0.074634138 0)
(0 0.079929296 0)
(0 -0.080426685 0)
(0 0.085913224 0)
(0 -0.086499182 0)
(0 0.092179718 0)
(0 -0.092853414 0)
(0 0.098727207 0)
(0 -0.09948854 0)
(0 0.1055563 0)
(0 -0.10640621 0)
(0 0.11266811 0)
(0 -0.11360729 0)
(0 0.12006311 0)
(0 -0.12109191 0)
(0 0.12774102 0)
(0 -0.12885943 0)
(0 0.13570076 0)
(0 -0.13690835 0)
(0 0.14394035 0)
(0 -0.14523626 0)
(0 0.15245686 0)
(0 -0.15383975 0)
(0 0.16124633 0)
(0 -0.16271432 0)
(0 0.17030364 0)
(0 -0.17185431 0)
(0 0.17962245 0)
(0 -0.18125278 0)
(0 0.18919511 0)
(0 -0.19090144 0)
(0 0.19901255 0)
(0 -0.2007906 0)
(0 0.20906427 0)
(0 -0.21090907 0)
(0 0.21933832 0)
(0 -0.22124425 0)
(0 0.22982136 0)
(0 -0.23178218 0)
(0 0.2404988 0)
(0 -0.24250778 0)
(0 0.25135521 0)
(0 -0.25340526 0)
(0 0.26237475 0)
(0 -0.26445869 0)
(0 0.27354198 0)
(0 -0.27565289 0)
(0 0.28484282 0)
(0 -0.28697467 0)
(0 0.29626572 0)
(0 -0.29841431 0)
(0 0.30780302 0)
(0 -0.30996721 0)
(0 0.31945095 0)
(0 -0.3216333 0)
(0 0.33121296 0)
(0 -0.33342929 0)
(0 0.3431054 0)
(0 -0.34537792 0)
(0 0.35515529 0)
(0 -0.35750805 0)
(0 0.36739156 0)
(0 -0.3698479 0)
(0 0.37985333 0)
(0 -0.38242939 0)
(0 0.39259266 0)
(0 -0.3952976 0)
(0 0.40565974 0)
(0 -0.4084872 0)
(0 0.4190825 0)
(0 -0.42201523 0)
(0 0.43285159 0)
(0 -0.4358678 0)
(0 0.44690452 0)
(0 -0.44995503 0)
(0 0.46104636 0)
(0 -0.46404884 0)
(0 0.47495491 0)
(0 -0.47786039 0)
(0 0.48855893 0)
(0 -0.49119819 0)
(0 0.5015269 0)
(0 -0.5037877 0)
(0 0.51357399 0)
(0 -0.51512227 0)
(0 0.52389147 0)
(0 -0.52278747 0)
(0 0.52819224 0)
(0 -0.52488214 0)
)
;

boundaryField
{
    left
    {
        type            noSlip;
    }
    right
    {
        type            noSlip;
    }
    walls
    {
        type            noSlip;
    }
    centreline
    {
        type            noSlip;
    }
    frontAndBack
    {
        type            noSlip;
    }
}


// ************************************************************************* //
