/*--------------------------------*- C++ -*----------------------------------*\
  =========                 |
  \\      /  F ield         | OpenFOAM: The Open Source CFD Toolbox
   \\    /   O peration     | Website:  https://openfoam.org
    \\  /    A nd           | Version:  8
     \\/     M anipulation  |
\*---------------------------------------------------------------------------*/
FoamFile
{
    version     2.0;
    format      ascii;
    class       surfaceScalarField;
    location    "0.5";
    object      phi;
}
// * * * * * * * * * * * * * * * * * * * * * * * * * * * * * * * * * * * * * //

dimensions      [1 0 -1 0 0 0 0];

internalField   nonuniform List<scalar> 
2080
(
-6.1456498e-06
-0.0083919478
-1.5724242e-05
-3.3377581e-07
-0.0084037547
-1.5724166e-05
-5.9071489e-07
-0.0083977604
-1.5725888e-05
-1.2254713e-07
-0.0083984757
-1.5725642e-05
-1.3364898e-07
-0.0083980009
-1.5725753e-05
-5.9804371e-08
-0.0083980881
-1.5725744e-05
-4.5069005e-08
-0.008398027
-1.5725749e-05
-2.5062883e-08
-0.008398037
-1.5725757e-05
-1.1449593e-08
-0.0083980288
-1.5725753e-05
-5.5858694e-13
-0.0083980287
-1.5725757e-05
1.1448607e-08
-0.0083980287
-1.5725757e-05
2.5062085e-08
-0.0083980288
-1.5725753e-05
4.5068572e-08
-0.008398037
-1.5725757e-05
5.9804151e-08
-0.008398027
-1.5725749e-05
1.3364902e-07
-0.0083980881
-1.5725744e-05
1.2254722e-07
-0.0083980009
-1.5725753e-05
5.9071481e-07
-0.0083984757
-1.5725642e-05
3.3377516e-07
-0.0083977604
-1.5725888e-05
6.1456491e-06
-0.0084037547
-1.5724166e-05
-0.0083919478
-1.5724243e-05
1.6700513e-06
-0.0084829311
6.6469636e-06
-1.3195067e-07
-0.0084912816
6.647589e-06
-2.1523766e-07
-0.0084869989
6.6479418e-06
-9.0384993e-08
-0.0084879165
6.6479492e-06
-8.9263199e-08
-0.0084873175
6.6479733e-06
-4.5564322e-08
-0.0084874508
6.6479822e-06
-2.7830944e-08
-0.0084873606
6.6479791e-06
-1.8390385e-08
-0.0084873689
6.6479859e-06
-6.2399583e-09
-0.0084873611
6.6479827e-06
-7.3994894e-13
-0.008487358
6.647985e-06
6.2386309e-09
-0.008487358
6.6479852e-06
1.8389222e-08
-0.0084873611
6.6479828e-06
2.7830262e-08
-0.0084873689
6.6479859e-06
4.556392e-08
-0.0084873606
6.6479792e-06
8.9263039e-08
-0.0084874508
6.6479823e-06
9.0384869e-08
-0.0084873175
6.6479734e-06
2.1523704e-07
-0.0084879165
6.6479492e-06
1.3194952e-07
-0.0084869989
6.6479418e-06
-1.6700525e-06
-0.0084912816
6.6475891e-06
-0.0084829311
6.6469639e-06
1.1763382e-06
-0.0084035832
3.7264985e-06
-3.974751e-07
-0.0084092032
3.7269681e-06
-3.5369013e-07
-0.0084065287
3.7270657e-06
-2.1166599e-07
-0.0084075535
3.7270215e-06
-2.057505e-07
-0.0084068142
3.7270748e-06
-1.1266637e-07
-0.0084070376
3.7270652e-06
-9.3275145e-08
-0.0084068715
3.727074e-06
-4.950689e-08
-0.0084069071
3.7270773e-06
-2.6607508e-08
-0.0084068769
3.7270767e-06
-3.8560335e-13
-0.0084068788
3.7270788e-06
2.6606831e-08
-0.0084068788
3.7270787e-06
4.9506485e-08
-0.0084068769
3.7270766e-06
9.3275143e-08
-0.0084069071
3.7270772e-06
1.1266672e-07
-0.0084068715
3.7270743e-06
2.0575106e-07
-0.0084070376
3.7270654e-06
2.1166654e-07
-0.0084068142
3.7270747e-06
3.5369024e-07
-0.0084075535
3.7270216e-06
3.9747467e-07
-0.0084065287
3.7270659e-06
-1.1763389e-06
-0.0084092032
3.726968e-06
-0.0084035832
3.7264983e-06
9.6364567e-07
-0.0086280154
1.5652406e-06
1.3584353e-07
-0.0086318144
1.5655818e-06
2.9258053e-07
-0.0086301429
1.5655135e-06
3.1532927e-08
-0.0086307228
1.5655815e-06
1.1461659e-07
-0.0086303367
1.5655322e-06
1.4505775e-08
-0.0086303731
1.5655492e-06
5.5736224e-08
-0.00863035
1.5655375e-06
8.4805066e-09
-0.008630304
1.5655396e-06
1.7568671e-08
-0.0086303297
1.5655379e-06
-9.6694223e-13
-0.0086303087
1.565538e-06
-1.7570499e-08
-0.0086303087
1.5655382e-06
-8.4817406e-09
-0.0086303297
1.5655384e-06
-5.5737108e-08
-0.008630304
1.5655392e-06
-1.450665e-08
-0.00863035
1.5655377e-06
-1.1461693e-07
-0.0086303731
1.5655492e-06
-3.1533493e-08
-0.0086303367
1.5655323e-06
-2.9258148e-07
-0.0086307228
1.5655814e-06
-1.3584449e-07
-0.0086301429
1.5655134e-06
-9.6364662e-07
-0.0086318144
1.5655819e-06
-0.0086280154
1.5652409e-06
2.3112003e-07
-0.0084087442
-4.5759509e-07
-5.4544515e-07
-0.0084115665
-4.5776895e-07
-3.7170172e-07
-0.0084108319
-4.5772278e-07
-3.6672775e-07
-0.008411264
-4.5776911e-07
-3.3590143e-07
-0.0084109011
-4.577322e-07
-2.2121908e-07
-0.0084110202
-4.5774092e-07
-1.9363864e-07
-0.0084109113
-4.5773405e-07
-1.0389558e-07
-0.0084109237
-4.5773177e-07
-6.1379196e-08
-0.0084109027
-4.5773204e-07
1.5998292e-13
-0.0084108993
-4.5773073e-07
6.1379626e-08
-0.0084108993
-4.577304e-07
1.0389628e-07
-0.0084109027
-4.5773203e-07
1.9363966e-07
-0.0084109237
-4.5773178e-07
2.2122051e-07
-0.0084109113
-4.5773389e-07
3.3590302e-07
-0.0084110202
-4.5774101e-07
3.6672936e-07
-0.0084109011
-4.5773221e-07
3.7170303e-07
-0.008411264
-4.5776875e-07
5.45446e-07
-0.0084108319
-4.5772295e-07
-2.3111989e-07
-0.0084115665
-4.577689e-07
-0.0084087441
-4.5759462e-07
1.2221085e-06
-0.008577897
1.5767531e-06
4.5767627e-07
-0.0085786889
1.5768918e-06
8.6907287e-07
-0.0085791642
1.5769534e-06
2.7291e-07
-0.008578536
1.5769318e-06
4.959675e-07
-0.0085790136
1.5769319e-06
1.6417036e-07
-0.008578557
1.5769237e-06
2.5186738e-07
-0.0085788771
1.5769265e-06
8.0269823e-08
-0.0085786323
1.576921e-06
7.7462738e-08
-0.0085787826
1.576924e-06
-1.9235861e-13
-0.0085787081
1.5769222e-06
-7.7462823e-08
-0.0085787081
1.5769225e-06
-8.0269869e-08
-0.0085787826
1.576924e-06
-2.5186709e-07
-0.0085786323
1.5769212e-06
-1.6416994e-07
-0.0085788771
1.5769269e-06
-4.9596725e-07
-0.008578557
1.5769242e-06
-2.7290988e-07
-0.0085790136
1.5769322e-06
-8.6907307e-07
-0.008578536
1.5769323e-06
-4.5767704e-07
-0.0085791642
1.5769536e-06
-1.2221091e-06
-0.0085786889
1.5768919e-06
-0.008577897
1.5767533e-06
-9.8801835e-07
-0.0088692914
-1.9041873e-06
-7.8794607e-07
-0.0088712941
-1.904481e-06
-8.7210623e-07
-0.0088714667
-1.9045296e-06
-6.0810611e-07
-0.0088712111
-1.9045086e-06
-6.6482257e-07
-0.0088713594
-1.9045201e-06
-4.099468e-07
-0.0088712143
-1.9045041e-06
-4.0311968e-07
-0.0088712791
-1.9045125e-06
-2.059814e-07
-0.0088712151
-1.9045046e-06
-1.3341837e-07
-0.0088712365
-1.9045086e-06
1.1687285e-12
-0.0088712191
-1.9045061e-06
1.3342068e-07
-0.0088712191
-1.9045061e-06
2.059838e-07
-0.0088712365
-1.9045082e-06
4.0312166e-07
-0.0088712151
-1.9045049e-06
4.0994862e-07
-0.0088712791
-1.9045125e-06
6.6482443e-07
-0.0088712143
-1.9045039e-06
6.0810796e-07
-0.0088713594
-1.9045199e-06
8.7210748e-07
-0.0088712111
-1.9045085e-06
7.8794619e-07
-0.0088714667
-1.9045298e-06
9.8801813e-07
-0.0088712941
-1.904481e-06
-0.0088692914
-1.9041866e-06
4.8722159e-06
-0.0070838343
4.9673298e-06
7.9764472e-07
-0.0070768168
4.9679734e-06
2.2108983e-06
-0.0070825957
4.9679018e-06
6.6496772e-07
-0.0070792747
4.9679302e-06
1.1304385e-06
-0.0070815284
4.967878e-06
4.5352331e-07
-0.007080177
4.967915e-06
5.6840603e-07
-0.0070810901
4.9678829e-06
2.2892075e-07
-0.0070805518
4.9679061e-06
1.7587789e-07
-0.0070808854
4.9678894e-06
1.5384174e-12
-0.007080742
4.9678971e-06
-1.7587475e-07
-0.007080742
4.9678979e-06
-2.2891714e-07
-0.0070808854
4.9678895e-06
-5.6840197e-07
-0.0070805518
4.9679066e-06
-4.5351928e-07
-0.0070810902
4.9678826e-06
-1.1304347e-06
-0.007080177
4.9679156e-06
-6.6496258e-07
-0.0070815285
4.9678766e-06
-2.2108939e-06
-0.0070792747
4.9679299e-06
-7.9764298e-07
-0.0070825957
4.9679037e-06
-4.8722143e-06
-0.0070768168
4.9679732e-06
-0.0070838343
4.9673306e-06
-4.7443028e-06
-0.00788047
-4.984993e-06
-1.10064e-06
-0.0078819615
-4.9856215e-06
-2.483747e-06
-0.0078825856
-4.9856497e-06
-9.5709292e-07
-0.0078823109
-4.9856638e-06
-1.4386307e-06
-0.0078824634
-4.9856188e-06
-6.9089725e-07
-0.0078824138
-4.9856654e-06
-7.9243749e-07
-0.0078824238
-4.9856256e-06
-3.6231914e-07
-0.0078824316
-4.9856587e-06
-2.5662124e-07
-0.007882417
-4.9856368e-06
4.2570015e-13
-0.0078824243
-4.9856482e-06
2.5662184e-07
-0.0078824243
-4.985648e-06
3.623185e-07
-0.007882417
-4.9856367e-06
7.9243572e-07
-0.0078824316
-4.9856586e-06
6.9089478e-07
-0.0078824238
-4.985626e-06
1.4386275e-06
-0.0078824138
-4.9856658e-06
9.5708985e-07
-0.0078824634
-4.9856189e-06
2.4837444e-06
-0.0078823109
-4.9856639e-06
1.1006377e-06
-0.0078825856
-4.9856501e-06
4.7443014e-06
-0.0078819615
-4.9856217e-06
-0.00788047
-4.9849927e-06
1.6867804e-06
4.4945802e-06
1.9458181e-06
4.5071345e-06
1.5069204e-06
4.4998576e-06
1.4175701e-06
4.5014068e-06
1.1226041e-06
4.5008559e-06
9.157394e-07
4.5010584e-06
6.7575947e-07
4.5009339e-06
4.4552575e-07
4.5010125e-06
2.2334891e-07
4.5009621e-06
-7.718245e-13
4.5009862e-06
-2.2335113e-07
4.5009866e-06
-4.4552782e-07
4.5009612e-06
-6.7576139e-07
4.501013e-06
-9.1574063e-07
4.5009348e-06
-1.1226043e-06
4.5010587e-06
-1.4175704e-06
4.5008553e-06
-1.5069212e-06
4.5014063e-06
-1.9458182e-06
4.4998563e-06
-1.6867808e-06
4.5071342e-06
4.4945801e-06
-6.1495955e-06
-0.0084229945
-4.003836e-12
-3.3371678e-07
-0.0084348091
-4.4804818e-12
-5.9104092e-07
-0.0084288138
-4.0615614e-12
-1.2259263e-07
-0.0084295293
-4.1698287e-12
-1.3370932e-07
-0.0084290545
-4.2565989e-12
-5.9829997e-08
-0.0084291417
-4.223932e-12
-4.5089924e-08
-0.0084290806
-4.2627299e-12
-2.5074129e-08
-0.0084290906
-4.2735897e-12
-1.1455319e-08
-0.0084290823
-4.2493602e-12
-5.5834784e-13
-0.0084290823
-4.450211e-12
1.1454365e-08
-0.0084290823
-4.2357906e-12
2.5073363e-08
-0.0084290823
-4.222266e-12
4.5089514e-08
-0.0084290906
-3.9215222e-12
5.9829859e-08
-0.0084290806
-4.325888e-12
1.337093e-07
-0.0084291417
-3.8501242e-12
1.2259255e-07
-0.0084290545
-4.3344985e-12
5.9104084e-07
-0.0084295293
-4.4214553e-12
3.3371611e-07
-0.0084288138
-4.4479754e-12
6.1495946e-06
-0.0084348091
-4.4495102e-12
-0.0084229945
-4.7753969e-12
1.6706417e-06
-0.0085007501
-5.8092619e-12
-1.3191738e-07
-0.008509106
-6.3707787e-12
-2.1526645e-07
-0.008504822
-6.3273779e-12
-9.0416054e-08
-0.0085057399
-6.288892e-12
-8.9295659e-08
-0.0085051407
-6.348732e-12
-4.558412e-08
-0.008505274
-6.3748528e-12
-2.7845018e-08
-0.0085051839
-6.3778072e-12
-1.8399341e-08
-0.0085051922
-6.2739393e-12
-6.2439206e-09
-0.0085051844
-6.4238037e-12
-7.419751e-13
-0.0085051813
-6.341979e-12
6.2426197e-09
-0.0085051813
-6.1388647e-12
1.8398156e-08
-0.0085051844
-6.0139018e-12
2.7844311e-08
-0.0085051922
-6.5877935e-12
4.5583738e-08
-0.0085051839
-6.2642367e-12
8.9295434e-08
-0.008505274
-6.350578e-12
9.0415895e-08
-0.0085051407
-6.1451655e-12
2.1526587e-07
-0.0085057399
-6.2261686e-12
1.3191627e-07
-0.008504822
-6.1326174e-12
-1.6706429e-06
-0.008509106
-6.2439369e-12
-0.0085007501
-5.0382885e-12
1.1766369e-06
-0.0084139562
-4.555734e-12
-3.9762164e-07
-0.0084195799
-4.7909171e-12
-3.5384484e-07
-0.0084169045
-4.7612683e-12
-2.1175625e-07
-0.0084179296
-4.5988945e-12
-2.0583531e-07
-0.0084171901
-4.6797566e-12
-1.1271567e-07
-0.0084174136
-4.6570529e-12
-9.3315438e-08
-0.0084172474
-4.5792202e-12
-4.9528737e-08
-0.008417283
-4.5066797e-12
-2.6619553e-08
-0.0084172528
-4.5858428e-12
-4.2070138e-13
-0.0084172547
-4.7153461e-12
2.6618894e-08
-0.0084172547
-4.7024182e-12
4.9528383e-08
-0.0084172528
-4.6482104e-12
9.3315407e-08
-0.008417283
-4.8956872e-12
1.1271599e-07
-0.0084172474
-4.7686038e-12
2.0583587e-07
-0.0084174136
-4.748905e-12
2.1175674e-07
-0.0084171901
-4.7005429e-12
3.5384498e-07
-0.0084179296
-4.6331611e-12
3.9762125e-07
-0.0084169045
-4.7644063e-12
-1.1766377e-06
-0.0084195799
-4.6623739e-12
-0.0084139562
-4.4772486e-12
9.6407477e-07
-0.0086352602
-1.6949796e-12
1.3590242e-07
-0.0086390613
-1.8680669e-12
2.9268927e-07
-0.0086373894
-1.5774807e-12
3.1550473e-08
-0.0086379695
-1.6353145e-12
1.1465202e-07
-0.0086375833
-2.0425894e-12
1.4511987e-08
-0.0086376197
-1.6705694e-12
5.5750278e-08
-0.0086375966
-1.5324116e-12
8.4826829e-09
-0.0086375506
-1.5939444e-12
1.7572479e-08
-0.0086375763
-1.811001e-12
-9.6015393e-13
-0.0086375553
-1.6472865e-12
-1.7574282e-08
-0.0086375553
-1.5075827e-12
-8.4840594e-09
-0.0086375763
-9.2315512e-13
-5.5751096e-08
-0.0086375505
-2.1394903e-12
-1.4512734e-08
-0.0086375966
-1.6403651e-12
-1.146524e-07
-0.0086376197
-1.6620433e-12
-3.155105e-08
-0.0086375833
-1.7099678e-12
-2.9269003e-07
-0.0086379695
-1.4417247e-12
-1.3590349e-07
-0.0086373894
-1.5493105e-12
-9.6407589e-07
-0.0086390613
-1.4909736e-12
-0.0086352602
-1.4240773e-12
2.3095912e-07
-0.0084169136
-1.2932871e-12
-5.4568888e-07
-0.0084197385
-1.7855237e-12
-3.7189396e-07
-0.0084190036
-1.7227353e-12
-3.668913e-07
-0.0084194359
-1.2515647e-12
-3.3604732e-07
-0.0084190728
-1.5347836e-12
-2.2131613e-07
-0.008419192
-2.0645918e-12
-1.9372016e-07
-0.008419083
-2.1046244e-12
-1.0394066e-07
-0.0084190955
-1.8570954e-12
-6.1404945e-08
-0.0084190744
-1.9169494e-12
9.1388418e-14
-0.008419071
-1.7142362e-12
6.1405382e-08
-0.008419071
-1.5189576e-12
1.0394126e-07
-0.0084190744
-1.8206264e-12
1.9372124e-07
-0.0084190955
-1.9824388e-12
2.2131765e-07
-0.008419083
-1.558583e-12
3.3604877e-07
-0.008419192
-1.4718726e-12
3.6689294e-07
-0.0084190728
-1.6833994e-12
3.7189553e-07
-0.0084194359
-1.1325692e-12
5.4568963e-07
-0.0084190036
-7.5987463e-13
-2.3095939e-07
-0.0084197385
-1.5095568e-12
-0.0084169136
-1.6165405e-12
1.2226842e-06
-0.008582925
-1.7787512e-13
4.5787422e-07
-0.0085837182
-6.399379e-13
8.6941072e-07
-0.0085841937
-1.2513913e-13
2.7304738e-07
-0.0085835653
-6.7108876e-14
4.9615038e-07
-0.008584043
-5.907541e-13
1.642499e-07
-0.0085835864
-1.6774588e-13
2.5195536e-07
-0.0085839065
-1.8365531e-13
8.0305839e-08
-0.0085836616
-9.5849582e-14
7.7488651e-08
-0.0085838119
-4.3576845e-14
-3.0380355e-13
-0.0085837374
-2.3995498e-13
-7.7488709e-08
-0.0085837374
-1.555776e-13
-8.0305931e-08
-0.0085838119
-4.1048783e-14
-2.5195516e-07
-0.0085836616
8.1872264e-14
-1.6424925e-07
-0.0085839065
-4.6356237e-13
-4.9615002e-07
-0.0085835864
3.0913032e-13
-2.7304765e-07
-0.008584043
2.3699855e-13
-8.6941089e-07
-0.0085835653
-7.0506611e-14
-4.5787475e-07
-0.0085841937
-3.6755165e-13
-1.2226848e-06
-0.0085837182
-2.0362318e-13
-0.008582925
-4.2739445e-15
-9.8860503e-07
-0.0088781343
-5.2813458e-13
-7.8829141e-07
-0.0088801399
-1.5015175e-13
-8.7248851e-07
-0.0088803124
-2.0280317e-13
-6.0838365e-07
-0.0088800568
-7.3840676e-13
-6.6509606e-07
-0.0088802051
-6.4225422e-13
-4.1012937e-07
-0.0088800599
-3.6889455e-13
-4.0327868e-07
-0.0088801247
7.1398623e-14
-2.0607053e-07
-0.0088800607
1.0568929e-13
-1.3347016e-07
-0.0088800821
-5.7781711e-14
1.0578545e-12
-0.0088800647
-1.2401239e-13
1.3347248e-07
-0.0088800647
-3.6632877e-13
2.0607306e-07
-0.0088800821
-8.2095504e-14
4.032805e-07
-0.0088800607
-4.9138303e-14
4.1013121e-07
-0.0088801247
-5.657067e-14
6.6509812e-07
-0.0088800599
-3.7431006e-13
6.0838506e-07
-0.0088802051
-1.5941842e-13
8.7248957e-07
-0.0088800567
-3.7940184e-13
7.8829199e-07
-0.0088803124
-7.2140123e-13
9.8860508e-07
-0.0088801399
-4.6086179e-13
-0.0088781343
-3.4571997e-13
4.8740354e-06
-0.0070827818
-1.0421238e-12
7.9795937e-07
-0.0070757625
5.2685397e-13
2.2116929e-06
-0.0070815434
-5.9886762e-14
6.6529565e-07
-0.0070782213
-4.463736e-13
1.1308502e-06
-0.0070804758
5.5205411e-13
4.5373961e-07
-0.007079124
-5.9606564e-13
5.6860971e-07
-0.0070800374
5.5436216e-13
2.2902583e-07
-0.0070794988
-3.23655e-13
1.7594045e-07
-0.0070798325
-1.4946772e-12
1.7403327e-12
-0.0070796891
-4.6451442e-13
-1.7593711e-07
-0.0070796891
5.6767856e-13
-2.2902252e-07
-0.0070798325
1.4241804e-14
-5.6860624e-07
-0.0070794988
3.0361306e-13
-4.537359e-07
-0.0070800374
1.7361635e-13
-1.1308455e-06
-0.007079124
-3.7964995e-13
-6.6529177e-07
-0.0070804758
-5.4974426e-13
-2.2116891e-06
-0.0070782214
-5.8802709e-13
-7.9795585e-07
-0.0070815434
7.3098557e-13
-4.8740333e-06
-0.0070757625
5.652506e-13
-0.0070827818
5.618827e-13
-4.746158e-06
-0.0078894429
2.1024096e-14
-1.1011013e-06
-0.0078909371
4.7026457e-13
-2.4846792e-06
-0.0078915615
4.2402275e-13
-9.5755719e-07
-0.0078912867
4.0956889e-14
-1.4391772e-06
-0.0078914392
7.8553828e-14
-6.9122112e-07
-0.0078913896
-3.8725114e-14
-7.927335e-07
-0.0078913996
-2.5885406e-14
-3.6248225e-07
-0.0078914074
-1.3543071e-13
-2.5671559e-07
-0.0078913928
-7.5895361e-15
2.1321967e-13
-0.0078914001
1.8012061e-13
2.5671621e-07
-0.0078914001
3.9341412e-14
3.6248183e-07
-0.0078913928
-1.471147e-13
7.9273167e-07
-0.0078914074
-1.9754134e-13
6.9121852e-07
-0.0078913996
-6.1370269e-13
1.439174e-06
-0.0078913896
-1.6164099e-13
9.5755419e-07
-0.0078914392
6.7282382e-14
2.4846764e-06
-0.0078912867
-5.7892141e-14
1.1010992e-06
-0.0078915615
4.3391267e-13
4.7461568e-06
-0.0078909371
4.2230714e-13
-0.0078894429
6.0142773e-13
1.6767831e-06
-8.1214036e-13
1.9482075e-06
8.1367299e-13
1.5069153e-06
9.1624256e-13
1.4183334e-06
-9.3495786e-13
1.1230154e-06
-4.2427733e-13
9.1619028e-07
5.7948182e-13
6.7602605e-07
-3.5880909e-13
4.4574493e-07
-5.524541e-13
2.2343818e-07
2.7112995e-13
-8.7403647e-13
-2.6556801e-13
-2.2344051e-07
5.7117019e-15
-4.4574687e-07
-1.1017638e-12
-6.7602796e-07
-1.5935805e-14
-9.1619162e-07
1.1609515e-12
-1.123016e-06
8.2403762e-13
-1.4183339e-06
-7.3525276e-13
-1.5069162e-06
-1.6351285e-12
-1.9482081e-06
-4.8787125e-13
-1.6767831e-06
-3.5952202e-13
-6.4865845e-13
-6.1495954e-06
-0.0084229945
1.5724238e-05
-3.3371678e-07
-0.0084348091
1.5724161e-05
-5.9104098e-07
-0.0084288138
1.5725883e-05
-1.2259263e-07
-0.0084295293
1.5725637e-05
-1.3370926e-07
-0.0084290545
1.5725748e-05
-5.982986e-08
-0.0084291417
1.5725739e-05
-4.5089863e-08
-0.0084290806
1.5725744e-05
-2.5074142e-08
-0.0084290906
1.5725752e-05
-1.1455345e-08
-0.0084290823
1.5725748e-05
-4.9808027e-13
-0.0084290823
1.5725752e-05
1.1454341e-08
-0.0084290823
1.5725752e-05
2.5073225e-08
-0.0084290823
1.5725748e-05
4.5089477e-08
-0.0084290906
1.5725752e-05
5.9829849e-08
-0.0084290806
1.5725744e-05
1.3370935e-07
-0.0084291417
1.5725739e-05
1.225926e-07
-0.0084290545
1.5725748e-05
5.9104083e-07
-0.0084295293
1.5725637e-05
3.33716e-07
-0.0084288138
1.5725883e-05
6.1495944e-06
-0.0084348091
1.5724161e-05
-0.0084229945
1.5724238e-05
1.6706417e-06
-0.0085007501
-6.6469723e-06
-1.3191743e-07
-0.008509106
-6.6475984e-06
-2.1526647e-07
-0.008504822
-6.647951e-06
-9.0416037e-08
-0.0085057399
-6.6479583e-06
-8.9295677e-08
-0.0085051407
-6.6479827e-06
-4.5584063e-08
-0.008505274
-6.6479917e-06
-2.7845003e-08
-0.0085051839
-6.6479885e-06
-1.8399274e-08
-0.0085051922
-6.6479952e-06
-6.2438641e-09
-0.0085051844
-6.647992e-06
-6.9914533e-13
-0.0085051813
-6.6479943e-06
6.2426024e-09
-0.0085051813
-6.6479943e-06
1.8398004e-08
-0.0085051844
-6.6479919e-06
2.7844334e-08
-0.0085051922
-6.6479954e-06
4.5583689e-08
-0.0085051839
-6.6479886e-06
8.92955e-08
-0.008505274
-6.6479917e-06
9.0415924e-08
-0.0085051407
-6.6479828e-06
2.1526585e-07
-0.0085057399
-6.6479584e-06
1.3191632e-07
-0.008504822
-6.647951e-06
-1.6706428e-06
-0.008509106
-6.6475982e-06
-0.0085007501
-6.6469717e-06
1.1766371e-06
-0.0084139562
-3.7265038e-06
-3.9762165e-07
-0.0084195799
-3.7269738e-06
-3.5384481e-07
-0.0084169045
-3.7270713e-06
-2.117561e-07
-0.0084179296
-3.7270272e-06
-2.0583538e-07
-0.0084171901
-3.7270805e-06
-1.1271555e-07
-0.0084174136
-3.727071e-06
-9.3315453e-08
-0.0084172474
-3.7270797e-06
-4.9528733e-08
-0.008417283
-3.7270831e-06
-2.6619506e-08
-0.0084172528
-3.7270822e-06
-3.9698576e-13
-0.0084172547
-3.7270844e-06
2.6618784e-08
-0.0084172547
-3.7270845e-06
4.9528295e-08
-0.0084172528
-3.7270823e-06
9.3315492e-08
-0.008417283
-3.7270832e-06
1.1271599e-07
-0.0084172474
-3.7270799e-06
2.058359e-07
-0.0084174136
-3.7270712e-06
2.1175671e-07
-0.0084171901
-3.7270806e-06
3.5384492e-07
-0.0084179296
-3.7270274e-06
3.9762116e-07
-0.0084169045
-3.7270715e-06
-1.1766379e-06
-0.0084195799
-3.7269739e-06
-0.0084139562
-3.7265033e-06
9.6407486e-07
-0.0086352602
-1.5652432e-06
1.3590258e-07
-0.0086390613
-1.5655845e-06
2.9268941e-07
-0.0086373894
-1.565516e-06
3.1550497e-08
-0.0086379695
-1.5655839e-06
1.1465177e-07
-0.0086375833
-1.5655348e-06
1.4511969e-08
-0.0086376197
-1.5655518e-06
5.5750311e-08
-0.0086375966
-1.5655401e-06
8.4827635e-09
-0.0086375506
-1.5655422e-06
1.7572575e-08
-0.0086375763
-1.5655408e-06
-8.9549316e-13
-0.0086375553
-1.5655406e-06
-1.7574327e-08
-0.0086375553
-1.5655406e-06
-8.4841912e-09
-0.0086375763
-1.5655402e-06
-5.575117e-08
-0.0086375505
-1.5655426e-06
-1.4512747e-08
-0.0086375966
-1.5655402e-06
-1.1465233e-07
-0.0086376197
-1.5655517e-06
-3.1551105e-08
-0.0086375833
-1.5655346e-06
-2.9269008e-07
-0.0086379695
-1.5655839e-06
-1.3590352e-07
-0.0086373894
-1.5655159e-06
-9.6407592e-07
-0.0086390613
-1.5655844e-06
-0.0086352602
-1.5652431e-06
2.3095961e-07
-0.0084169136
4.5759281e-07
-5.4568901e-07
-0.0084197385
4.5776683e-07
-3.7189426e-07
-0.0084190036
4.5772053e-07
-3.6689104e-07
-0.0084194359
4.5776667e-07
-3.3604708e-07
-0.0084190728
4.5772978e-07
-2.2131611e-07
-0.008419192
4.577385e-07
-1.9372013e-07
-0.008419083
4.577315e-07
-1.0394042e-07
-0.0084190955
4.5772947e-07
-6.140489e-08
-0.0084190744
4.5772988e-07
1.9593979e-13
-0.008419071
4.5772858e-07
6.1405326e-08
-0.008419071
4.5772852e-07
1.0394119e-07
-0.0084190744
4.5772994e-07
1.9372121e-07
-0.0084190955
4.5772936e-07
2.2131763e-07
-0.008419083
4.5773184e-07
3.360487e-07
-0.008419192
4.5773899e-07
3.668925e-07
-0.0084190728
4.5773003e-07
3.718954e-07
-0.0084194359
4.577668e-07
5.4569005e-07
-0.0084190036
4.577212e-07
-2.3095914e-07
-0.0084197385
4.5776717e-07
-0.0084169136
4.5759283e-07
1.2226842e-06
-0.008582925
-1.5767533e-06
4.5787363e-07
-0.0085837182
-1.5768918e-06
8.6941055e-07
-0.0085841937
-1.5769536e-06
2.7304771e-07
-0.0085835653
-1.5769323e-06
4.9615034e-07
-0.008584043
-1.5769324e-06
1.6425011e-07
-0.0085835864
-1.5769244e-06
2.5195565e-07
-0.0085839065
-1.5769271e-06
8.0306045e-08
-0.0085836616
-1.5769215e-06
7.7488501e-08
-0.0085838119
-1.5769241e-06
-1.807071e-13
-0.0085837374
-1.5769226e-06
-7.7488894e-08
-0.0085837374
-1.5769223e-06
-8.0306137e-08
-0.0085838119
-1.5769239e-06
-2.5195499e-07
-0.0085836616
-1.5769214e-06
-1.6424926e-07
-0.0085839065
-1.5769273e-06
-4.9614998e-07
-0.0085835864
-1.5769237e-06
-2.7304768e-07
-0.008584043
-1.5769318e-06
-8.6941101e-07
-0.0085835653
-1.5769321e-06
-4.5787467e-07
-0.0085841937
-1.5769536e-06
-1.2226847e-06
-0.0085837182
-1.576892e-06
-0.008582925
-1.5767531e-06
-9.8860519e-07
-0.0088781343
1.9041863e-06
-7.8829118e-07
-0.0088801399
1.9044809e-06
-8.7248835e-07
-0.0088803124
1.9045295e-06
-6.0838384e-07
-0.0088800568
1.9045081e-06
-6.6509618e-07
-0.0088802051
1.9045195e-06
-4.1012961e-07
-0.0088800599
1.9045038e-06
-4.0327812e-07
-0.0088801247
1.9045121e-06
-2.0607026e-07
-0.0088800607
1.9045045e-06
-1.3347046e-07
-0.0088800821
1.9045086e-06
1.187849e-12
-0.0088800647
1.9045058e-06
1.3347226e-07
-0.0088800647
1.9045061e-06
2.0607294e-07
-0.0088800821
1.9045081e-06
4.0328068e-07
-0.0088800607
1.9045045e-06
4.1013113e-07
-0.0088801247
1.9045126e-06
6.6509817e-07
-0.0088800599
1.9045038e-06
6.0838516e-07
-0.0088802051
1.9045198e-06
8.7248948e-07
-0.0088800567
1.904508e-06
7.8829185e-07
-0.0088803124
1.9045289e-06
9.8860516e-07
-0.0088801399
1.9044807e-06
-0.0088781343
1.9041863e-06
4.8740344e-06
-0.0070827818
-4.9673307e-06
7.9795939e-07
-0.0070757625
-4.9679737e-06
2.2116936e-06
-0.0070815434
-4.9679028e-06
6.6529565e-07
-0.0070782213
-4.9679301e-06
1.1308502e-06
-0.0070804758
-4.9678772e-06
4.5373975e-07
-0.007079124
-4.9679152e-06
5.6861042e-07
-0.0070800374
-4.9678828e-06
2.2902617e-07
-0.0070794988
-4.9679068e-06
1.7593978e-07
-0.0070798325
-4.9678905e-06
1.369487e-12
-0.0070796891
-4.9678981e-06
-1.7593662e-07
-0.0070796891
-4.9678978e-06
-2.2902212e-07
-0.0070798325
-4.9678896e-06
-5.686058e-07
-0.0070794988
-4.9679058e-06
-4.5373558e-07
-0.0070800374
-4.9678823e-06
-1.1308456e-06
-0.007079124
-4.9679149e-06
-6.652918e-07
-0.0070804758
-4.9678776e-06
-2.2116901e-06
-0.0070782214
-4.9679299e-06
-7.979569e-07
-0.0070815434
-4.9679027e-06
-4.8740336e-06
-0.0070757625
-4.9679738e-06
-0.0070827818
-4.9673302e-06
-4.7461582e-06
-0.0078894429
4.9849935e-06
-1.1011014e-06
-0.0078909371
4.985622e-06
-2.4846791e-06
-0.0078915615
4.9856505e-06
-9.5755716e-07
-0.0078912867
4.9856643e-06
-1.4391771e-06
-0.0078914392
4.9856189e-06
-6.9122107e-07
-0.0078913896
4.9856657e-06
-7.9273359e-07
-0.0078913996
4.9856255e-06
-3.6248259e-07
-0.0078914074
4.9856588e-06
-2.5671551e-07
-0.0078913928
4.985637e-06
4.6251639e-13
-0.0078914001
4.9856481e-06
2.5671614e-07
-0.0078914001
4.9856479e-06
3.6248181e-07
-0.0078913928
4.9856364e-06
7.927316e-07
-0.0078914074
4.9856583e-06
6.9121856e-07
-0.0078913996
4.9856252e-06
1.439174e-06
-0.0078913896
4.9856659e-06
9.5755424e-07
-0.0078914392
4.9856191e-06
2.4846763e-06
-0.0078912867
4.9856643e-06
1.1010992e-06
-0.0078915615
4.9856508e-06
4.7461571e-06
-0.0078909371
4.9856223e-06
-0.0078894429
4.9849935e-06
1.6767816e-06
-4.4945802e-06
1.9482081e-06
-4.5071344e-06
1.506917e-06
-4.4998565e-06
1.4183335e-06
-4.5014068e-06
1.1230156e-06
-4.5008564e-06
9.1619008e-07
-4.5010573e-06
6.760261e-07
-4.500934e-06
4.4574505e-07
-4.5010134e-06
2.2343825e-07
-4.5009615e-06
-8.5616706e-13
-4.5009864e-06
-2.2344044e-07
-4.5009862e-06
-4.4574672e-07
-4.500963e-06
-6.7602776e-07
-4.5010134e-06
-9.161916e-07
-4.5009327e-06
-1.1230158e-06
-4.5010579e-06
-1.4183335e-06
-4.5008568e-06
-1.5069168e-06
-4.5014084e-06
-1.9482088e-06
-4.4998568e-06
-1.6767831e-06
-4.5071346e-06
-4.4945809e-06
-6.14565e-06
-0.0083919478
-3.3377582e-07
-0.0084037547
-5.9071493e-07
-0.0083977604
-1.2254728e-07
-0.0083984757
-1.3364897e-07
-0.0083980009
-5.9804214e-08
-0.0083980881
-4.506898e-08
-0.008398027
-2.5062897e-08
-0.008398037
-1.1449656e-08
-0.0083980288
-5.0164403e-13
-0.0083980287
1.1448644e-08
-0.0083980287
2.5061996e-08
-0.0083980288
4.5068312e-08
-0.008398037
5.9804171e-08
-0.008398027
1.336493e-07
-0.0083980881
1.2254723e-07
-0.0083980009
5.9071479e-07
-0.0083984757
3.3377509e-07
-0.0083977604
6.145649e-06
-0.0084037547
-0.0083919478
1.6700511e-06
-0.0084829311
-1.3195072e-07
-0.0084912816
-2.1523762e-07
-0.0084869989
-9.038505e-08
-0.0084879165
-8.9263256e-08
-0.0084873175
-4.5564272e-08
-0.0084874508
-2.7830931e-08
-0.0084873606
-1.8390423e-08
-0.0084873689
-6.2399229e-09
-0.0084873611
-7.3767401e-13
-0.008487358
6.2386656e-09
-0.008487358
1.8389094e-08
-0.0084873611
2.7830277e-08
-0.0084873689
4.5563919e-08
-0.0084873606
8.9263039e-08
-0.0084874507
9.0384902e-08
-0.0084873175
2.1523709e-07
-0.0084879165
1.3194974e-07
-0.0084869989
-1.6700522e-06
-0.0084912816
-0.0084829311
1.1763381e-06
-0.0084035832
-3.9747512e-07
-0.0084092032
-3.5369011e-07
-0.0084065287
-2.1166601e-07
-0.0084075535
-2.0575054e-07
-0.0084068142
-1.1266636e-07
-0.0084070376
-9.3275111e-08
-0.0084068715
-4.950684e-08
-0.0084069071
-2.6607539e-08
-0.0084068769
-4.2397045e-13
-0.0084068788
2.6606794e-08
-0.0084068788
4.9506457e-08
-0.0084068769
9.3275181e-08
-0.0084069071
1.1266671e-07
-0.0084068715
2.0575102e-07
-0.0084070376
2.1166661e-07
-0.0084068142
3.5369027e-07
-0.0084075535
3.9747466e-07
-0.0084065287
-1.1763387e-06
-0.0084092032
-0.0084035832
9.6364565e-07
-0.0086280154
1.3584357e-07
-0.0086318144
2.9258054e-07
-0.0086301429
3.1532891e-08
-0.0086307228
1.1461656e-07
-0.0086303367
1.4505808e-08
-0.0086303731
5.5736218e-08
-0.00863035
8.4804471e-09
-0.008630304
1.7568765e-08
-0.0086303297
-8.6496324e-13
-0.0086303087
-1.7570516e-08
-0.0086303087
-8.4819484e-09
-0.0086303297
-5.5737079e-08
-0.008630304
-1.4506488e-08
-0.00863035
-1.1461685e-07
-0.0086303731
-3.1533364e-08
-0.0086303367
-2.9258146e-07
-0.0086307228
-1.3584463e-07
-0.0086301429
-9.6364655e-07
-0.0086318144
-0.0086280154
2.3112006e-07
-0.0084087442
-5.4544519e-07
-0.0084115665
-3.7170177e-07
-0.0084108319
-3.6672777e-07
-0.008411264
-3.3590145e-07
-0.0084109011
-2.2121907e-07
-0.0084110202
-1.9363862e-07
-0.0084109113
-1.0389547e-07
-0.0084109237
-6.1379129e-08
-0.0084109027
1.639177e-13
-0.0084108993
6.1379567e-08
-0.0084108993
1.0389622e-07
-0.0084109027
1.9363973e-07
-0.0084109237
2.2122053e-07
-0.0084109113
3.35903e-07
-0.0084110202
3.6672941e-07
-0.0084109011
3.7170313e-07
-0.008411264
5.4544604e-07
-0.0084108319
-2.3111993e-07
-0.0084115665
-0.0084087441
1.2221085e-06
-0.008577897
4.5767623e-07
-0.0085786889
8.6907284e-07
-0.0085791642
2.7291001e-07
-0.008578536
4.9596741e-07
-0.0085790136
1.6417037e-07
-0.008578557
2.5186748e-07
-0.0085788771
8.0269806e-08
-0.0085786323
7.7462794e-08
-0.0085787826
-1.070072e-13
-0.0085787081
-7.7462806e-08
-0.0085787081
-8.0270012e-08
-0.0085787826
-2.5186701e-07
-0.0085786323
-1.6416975e-07
-0.0085788771
-4.9596719e-07
-0.008578557
-2.7290998e-07
-0.0085790136
-8.6907314e-07
-0.008578536
-4.5767699e-07
-0.0085791642
-1.2221091e-06
-0.0085786889
-0.008577897
-9.8801819e-07
-0.0088692914
-7.8794603e-07
-0.0088712941
-8.7210632e-07
-0.0088714667
-6.0810615e-07
-0.0088712111
-6.6482251e-07
-0.0088713594
-4.0994668e-07
-0.0088712143
-4.0311956e-07
-0.0088712791
-2.0598141e-07
-0.0088712151
-1.3341848e-07
-0.0088712365
1.14633e-12
-0.0088712191
1.3342069e-07
-0.0088712191
2.0598382e-07
-0.0088712365
4.0312172e-07
-0.0088712151
4.0994861e-07
-0.0088712791
6.648244e-07
-0.0088712143
6.0810786e-07
-0.0088713594
8.7210732e-07
-0.0088712111
7.8794631e-07
-0.0088714667
9.8801814e-07
-0.0088712941
-0.0088692914
4.8722159e-06
-0.0070838343
7.9764516e-07
-0.0070768168
2.2108982e-06
-0.0070825957
6.6496732e-07
-0.0070792747
1.1304387e-06
-0.0070815284
4.5352325e-07
-0.007080177
5.6840585e-07
-0.0070810901
2.2892061e-07
-0.0070805518
1.7587799e-07
-0.0070808854
1.8025892e-12
-0.007080742
-1.7587452e-07
-0.007080742
-2.2891704e-07
-0.0070808854
-5.6840201e-07
-0.0070805518
-4.5351948e-07
-0.0070810902
-1.1304341e-06
-0.007080177
-6.6496337e-07
-0.0070815285
-2.2108945e-06
-0.0070792747
-7.9764209e-07
-0.0070825957
-4.8722144e-06
-0.0070768168
-0.0070838343
-4.7443026e-06
-0.00788047
-1.1006399e-06
-0.0078819615
-2.4837473e-06
-0.0078825856
-9.5709296e-07
-0.0078823109
-1.4386307e-06
-0.0078824634
-6.9089735e-07
-0.0078824138
-7.9243749e-07
-0.0078824238
-3.6231917e-07
-0.0078824316
-2.5662117e-07
-0.007882417
4.2340491e-13
-0.0078824243
2.5662182e-07
-0.0078824243
3.6231835e-07
-0.007882417
7.9243562e-07
-0.0078824316
6.9089494e-07
-0.0078824238
1.4386277e-06
-0.0078824138
9.5709001e-07
-0.0078824634
2.4837444e-06
-0.0078823109