/*--------------------------------*- C++ -*----------------------------------*\
  =========                 |
  \\      /  F ield         | OpenFOAM: The Open Source CFD Toolbox
   \\    /   O peration     | Website:  https://openfoam.org
    \\  /    A nd           | Version:  8
     \\/     M anipulation  |
\*---------------------------------------------------------------------------*/
FoamFile
{
    version     2.0;
    format      ascii;
    class       volVectorField;
    location    "0.5";
    object      U;
}
// * * * * * * * * * * * * * * * * * * * * * * * * * * * * * * * * * * * * * //

dimensions      [0 1 -1 0 0 0 0];

internalField   nonuniform List<vector> 
800
(
(-7.7782277e-05 0.87122377 -0.00014617644)
(4.698559e-06 0.87128985 -0.00014619153)
(-8.3396479e-06 0.87130243 -0.00014619812)
(1.1092122e-06 0.87130184 -0.00014619729)
(-2.4353146e-06 0.87130223 -0.00014619771)
(7.5489331e-07 0.87130312 -0.00014619776)
(-1.3957061e-06 0.87130251 -0.00014619773)
(8.1422656e-07 0.87130332 -0.00014619782)
(-1.0790041e-06 0.87130287 -0.00014619778)
(9.2846083e-07 0.87130318 -0.00014619781)
(-9.2846719e-07 0.87130318 -0.00014619781)
(1.0789984e-06 0.87130287 -0.00014619778)
(-8.1422992e-07 0.87130332 -0.00014619782)
(1.3957041e-06 0.87130251 -0.00014619773)
(-7.5489352e-07 0.87130312 -0.00014619776)
(2.4353148e-06 0.87130223 -0.00014619771)
(-1.1092113e-06 0.87130184 -0.00014619728)
(8.3396458e-06 0.87130243 -0.00014619812)
(-4.6985642e-06 0.87128985 -0.00014619153)
(7.7782275e-05 0.87122377 -0.00014617645)
(1.4652331e-05 -1.0559027 1.7622608e-05)
(2.2152917e-06 -1.0560329 1.7624822e-05)
(-3.4030621e-06 -1.0560206 1.7625716e-05)
(1.0430811e-06 -1.0560232 1.7625756e-05)
(-1.8803666e-06 -1.0560215 1.7625802e-05)
(8.8921628e-07 -1.0560229 1.7625834e-05)
(-1.3067955e-06 -1.0560219 1.7625819e-05)
(9.8502775e-07 -1.0560229 1.7625841e-05)
(-1.1496746e-06 -1.0560224 1.762583e-05)
(1.0747432e-06 -1.0560227 1.7625837e-05)
(-1.0747506e-06 -1.0560227 1.7625837e-05)
(1.1496676e-06 -1.0560224 1.762583e-05)
(-9.8503233e-07 -1.0560229 1.7625842e-05)
(1.3067927e-06 -1.0560219 1.7625819e-05)
(-8.8921719e-07 -1.0560229 1.7625834e-05)
(1.8803653e-06 -1.0560215 1.7625802e-05)
(-1.043081e-06 -1.0560232 1.7625755e-05)
(3.4030556e-06 -1.0560206 1.7625716e-05)
(-2.2152966e-06 -1.0560329 1.7624823e-05)
(-1.4652337e-05 -1.0559027 1.7622608e-05)
(9.7053456e-06 1.1936638 6.4902481e-06)
(5.0904695e-07 1.1937712 6.4911302e-06)
(-3.8550803e-06 1.1937797 6.4914609e-06)
(6.0449181e-07 1.1937778 6.4913424e-06)
(-2.3664191e-06 1.193779 6.4914741e-06)
(4.7059843e-07 1.19378 6.4914561e-06)
(-1.4035433e-06 1.1937793 6.4914758e-06)
(5.3738864e-07 1.1937804 6.4914853e-06)
(-9.4502097e-07 1.1937798 6.4914814e-06)
(6.9625502e-07 1.1937802 6.491488e-06)
(-6.9625853e-07 1.1937802 6.4914883e-06)
(9.4501857e-07 1.1937798 6.4914814e-06)
(-5.3738964e-07 1.1937804 6.4914854e-06)
(1.4035441e-06 1.1937793 6.4914743e-06)
(-4.7059609e-07 1.19378 6.4914567e-06)
(2.3664212e-06 1.193779 6.4914735e-06)
(-6.0448891e-07 1.1937778 6.491343e-06)
(3.8550786e-06 1.1937797 6.4914616e-06)
(-5.090494e-07 1.1937712 6.4911301e-06)
(-9.7053483e-06 1.1936638 6.4902427e-06)
(7.4483587e-06 -1.4575257 4.873456e-06)
(-3.2717719e-07 -1.4576886 4.8748646e-06)
(1.4591894e-06 -1.4576806 4.8746308e-06)
(6.3678018e-07 -1.4576852 4.8748001e-06)
(-3.4898356e-07 -1.4576817 4.8746779e-06)
(1.1479253e-06 -1.4576843 4.8747159e-06)
(-1.0102734e-06 -1.4576824 4.8746872e-06)
(1.3912304e-06 -1.457684 4.8746934e-06)
(-1.3113597e-06 -1.457683 4.8746888e-06)
(1.4299881e-06 -1.4576836 4.8746887e-06)
(-1.4299951e-06 -1.4576836 4.8746892e-06)
(1.3113533e-06 -1.457683 4.8746885e-06)
(-1.3912344e-06 -1.457684 4.874693e-06)
(1.0102709e-06 -1.4576824 4.8746876e-06)
(-1.1479301e-06 -1.4576843 4.8747179e-06)
(3.4898551e-07 -1.4576817 4.8746778e-06)
(-6.3678662e-07 -1.4576852 4.8748e-06)
(-1.4591901e-06 -1.4576806 4.8746302e-06)
(3.2717042e-07 -1.4576886 4.8748661e-06)
(-7.4483585e-06 -1.4575257 4.8734552e-06)
(2.6413117e-06 1.6690187 -2.6827574e-06)
(-1.1802542e-06 1.6691901 -2.6833858e-06)
(-2.2622952e-06 1.669189 -2.6832597e-06)
(-2.3499622e-07 1.6691916 -2.6833508e-06)
(-2.0565057e-06 1.6691894 -2.6832826e-06)
(-1.815859e-07 1.6691922 -2.6832894e-06)
(-1.2058186e-06 1.6691901 -2.6832838e-06)
(-7.6252645e-08 1.6691922 -2.6832759e-06)
(-5.7813567e-07 1.669191 -2.6832781e-06)
(1.7296239e-07 1.6691917 -2.6832748e-06)
(-1.729613e-07 1.6691917 -2.683274e-06)
(5.7813751e-07 1.669191 -2.683278e-06)
(7.6255237e-08 1.6691922 -2.6832757e-06)
(1.2058227e-06 1.6691901 -2.6832843e-06)
(1.8159086e-07 1.6691922 -2.6832866e-06)
(2.0565106e-06 1.6691894 -2.68328e-06)
(2.3500179e-07 1.6691916 -2.6833501e-06)
(2.2622981e-06 1.669189 -2.6832667e-06)
(1.1802567e-06 1.6691901 -2.6833857e-06)
(-2.6413127e-06 1.6690187 -2.6827577e-06)
(7.637373e-06 -2.0194437 4.25285e-06)
(-9.739022e-07 -2.0196637 4.2537487e-06)
(3.6344266e-06 -2.0196572 4.2538199e-06)
(1.0454009e-06 -2.0196632 4.2537937e-06)
(5.7901138e-07 -2.0196581 4.2537861e-06)
(2.0560819e-06 -2.0196623 4.2537766e-06)
(-1.0646711e-06 -2.019659 4.2537756e-06)
(2.3846467e-06 -2.0196615 4.2537696e-06)
(-1.8957382e-06 -2.0196599 4.2537714e-06)
(2.2981135e-06 -2.0196607 4.2537698e-06)
(-2.2981143e-06 -2.0196607 4.2537707e-06)
(1.8957383e-06 -2.0196599 4.2537716e-06)
(-2.3846472e-06 -2.0196615 4.2537697e-06)
(1.0646732e-06 -2.019659 4.2537766e-06)
(-2.0560815e-06 -2.0196623 4.253777e-06)
(-5.7901049e-07 -2.0196581 4.2537857e-06)
(-1.0454011e-06 -2.0196632 4.2537948e-06)
(-3.6344276e-06 -2.0196572 4.2538208e-06)
(9.7389904e-07 -2.0196637 4.2537485e-06)
(-7.6373735e-06 -2.0194437 4.2528501e-06)
(-3.7154155e-06 2.3320565 -4.2827419e-06)
(-9.5065903e-07 2.3323097 -4.2836019e-06)
(-2.8167699e-06 2.3323 -4.2836758e-06)
(-1.3076652e-06 2.3323098 -4.2836316e-06)
(-1.6124805e-06 2.3323017 -4.2836557e-06)
(-1.5128451e-06 2.3323087 -4.2836278e-06)
(-4.7413531e-07 2.3323034 -4.2836421e-06)
(-1.4048233e-06 2.3323074 -4.2836293e-06)
(3.9943197e-07 2.3323049 -4.2836346e-06)
(-1.018158e-06 2.3323062 -4.2836312e-06)
(1.0181637e-06 2.3323062 -4.283631e-06)
(-3.9942658e-07 2.3323049 -4.2836345e-06)
(1.4048293e-06 2.3323074 -4.2836296e-06)
(4.7413859e-07 2.3323034 -4.2836415e-06)
(1.5128504e-06 2.3323087 -4.2836276e-06)
(1.6124839e-06 2.3323017 -4.2836556e-06)
(1.3076704e-06 2.3323098 -4.2836312e-06)
(2.8167704e-06 2.3323 -4.2836756e-06)
(9.5065946e-07 2.3323097 -4.2836016e-06)
(3.715414e-06 2.3320565 -4.2827413e-06)
(2.0704437e-05 -2.804468 7.117976e-06)
(-1.2920769e-06 -2.8047782 7.1196293e-06)
(4.9265875e-06 -2.8047682 7.1197103e-06)
(3.5846539e-06 -2.8047778 7.119668e-06)
(-5.4398707e-07 -2.8047694 7.1196533e-06)
(4.8138983e-06 -2.8047764 7.1196765e-06)
(-2.7432798e-06 -2.8047708 7.1196486e-06)
(4.8670512e-06 -2.804775 7.1196725e-06)
(-3.8226595e-06 -2.8047722 7.1196601e-06)
(4.4762761e-06 -2.8047736 7.1196623e-06)
(-4.4762701e-06 -2.8047736 7.1196688e-06)
(3.8226661e-06 -2.8047722 7.1196529e-06)
(-4.8670426e-06 -2.804775 7.1196726e-06)
(2.7432875e-06 -2.8047708 7.1196471e-06)
(-4.8138891e-06 -2.8047764 7.1196797e-06)
(5.4399347e-07 -2.8047694 7.1196543e-06)
(-3.5846389e-06 -2.8047778 7.1196704e-06)
(-4.9265846e-06 -2.8047682 7.1197147e-06)
(1.2920812e-06 -2.8047782 7.1196287e-06)
(-2.0704435e-05 -2.804468 7.1179775e-06)
(-1.6951085e-05 3.260214 -6.538654e-06)
(7.5749795e-07 3.260601 -6.5401153e-06)
(-4.944032e-06 3.2605685 -6.5402879e-06)
(-3.3126825e-06 3.2605917 -6.5402396e-06)
(-3.2547684e-07 3.2605737 -6.5402326e-06)
(-4.4089153e-06 3.2605869 -6.5402656e-06)
(1.7935417e-06 3.260577 -6.5402305e-06)
(-4.3874645e-06 3.2605838 -6.540264e-06)
(3.0181194e-06 3.2605794 -6.5402408e-06)
(-3.8555514e-06 3.2605815 -6.5402535e-06)
(3.8555529e-06 3.2605815 -6.5402533e-06)
(-3.0181187e-06 3.2605794 -6.5402409e-06)
(4.3874614e-06 3.2605838 -6.5402643e-06)
(-1.7935447e-06 3.260577 -6.5402307e-06)
(4.4089093e-06 3.2605869 -6.540266e-06)
(3.2547181e-07 3.2605737 -6.5402329e-06)
(3.3126768e-06 3.2605917 -6.5402438e-06)
(4.9440281e-06 3.2605685 -6.5402881e-06)
(-7.5750196e-07 3.260601 -6.5401158e-06)
(1.6951084e-05 3.260214 -6.5386535e-06)
(-1.2835348e-05 -3.8897985 -0.00011066193)
(1.7116804e-05 -3.890262 -0.00011067284)
(-1.0359762e-05 -3.8902288 -0.00011067744)
(1.4121652e-05 -3.8902538 -0.00011067679)
(-9.2067122e-06 -3.890234 -0.00011067683)
(1.203569e-05 -3.890249 -0.00011067694)
(-8.8576939e-06 -3.8902374 -0.00011067684)
(1.0562529e-05 -3.8902456 -0.00011067691)
(-9.0125625e-06 -3.8902402 -0.00011067686)
(9.5751083e-06 -3.8902428 -0.00011067689)
(-9.5751104e-06 -3.8902428 -0.00011067688)
(9.0125581e-06 -3.8902402 -0.00011067686)
(-1.0562531e-05 -3.8902456 -0.00011067691)
(8.8576903e-06 -3.8902374 -0.00011067684)
(-1.203569e-05 -3.890249 -0.00011067694)
(9.2067116e-06 -3.890234 -0.00011067683)
(-1.4121652e-05 -3.8902538 -0.00011067678)
(1.0359759e-05 -3.8902288 -0.00011067745)
(-1.7116802e-05 -3.890262 -0.00011067284)
(1.2835345e-05 -3.8897985 -0.00011066192)
(-7.7834058e-05 0.87151878 5.2454119e-05)
(4.7035673e-06 0.87158488 5.2469412e-05)
(-8.3439358e-06 0.87159747 5.2465911e-05)
(1.1095965e-06 0.87159688 5.2466516e-05)
(-2.4362179e-06 0.87159728 5.2466294e-05)
(7.5506735e-07 0.87159817 5.2466384e-05)
(-1.396172e-06 0.87159755 5.2466338e-05)
(8.1443647e-07 0.87159837 5.2466378e-05)
(-1.0793413e-06 0.87159791 5.2466357e-05)
(9.2872727e-07 0.87159822 5.246637e-05)
(-9.2873371e-07 0.87159822 5.2466371e-05)
(1.079336e-06 0.87159791 5.2466357e-05)
(-8.1443972e-07 0.87159837 5.2466381e-05)
(1.39617e-06 0.87159755 5.2466336e-05)
(-7.5506667e-07 0.87159817 5.2466387e-05)
(2.4362165e-06 0.87159728 5.2466293e-05)
(-1.1095958e-06 0.87159688 5.2466514e-05)
(8.343934e-06 0.87159747 5.2465909e-05)
(-4.7035732e-06 0.87158488 5.2469412e-05)
(7.7834055e-05 0.87151878 5.2454116e-05)
(1.465755e-05 -1.0563864 1.621358e-05)
(2.2161467e-06 -1.0565166 1.6214608e-05)
(-3.4035997e-06 -1.0565044 1.6215487e-05)
(1.0433252e-06 -1.0565069 1.6215493e-05)
(-1.8809217e-06 -1.0565052 1.6215565e-05)
(8.8943063e-07 -1.0565067 1.6215579e-05)
(-1.3072058e-06 -1.0565057 1.6215578e-05)
(9.8528692e-07 -1.0565067 1.621559e-05)
(-1.1500214e-06 -1.0565061 1.6215585e-05)
(1.0750466e-06 -1.0565065 1.6215589e-05)
(-1.0750541e-06 -1.0565065 1.621559e-05)
(1.1500147e-06 -1.0565061 1.6215585e-05)
(-9.8529191e-07 -1.0565067 1.6215589e-05)
(1.3072031e-06 -1.0565057 1.6215578e-05)
(-8.894315e-07 -1.0565067 1.6215579e-05)
(1.8809199e-06 -1.0565052 1.6215566e-05)
(-1.0433249e-06 -1.0565069 1.6215493e-05)
(3.4035935e-06 -1.0565044 1.6215487e-05)
(-2.2161517e-06 -1.0565166 1.6214608e-05)
(-1.4657557e-05 -1.0563864 1.6213581e-05)
(9.7078045e-06 1.1941332 9.8546429e-06)
(5.0918439e-07 1.1942407 9.8557724e-06)
(-3.8564766e-06 1.1942492 9.8558988e-06)
(6.0450459e-07 1.1942472 9.8558137e-06)
(-2.3672132e-06 1.1942485 9.8559206e-06)
(4.7063727e-07 1.1942494 9.8558968e-06)
(-1.4040096e-06 1.1942487 9.8559153e-06)
(5.3749575e-07 1.1942499 9.855922e-06)
(-9.4531741e-07 1.1942492 9.8559222e-06)
(6.9644389e-07 1.1942497 9.8559254e-06)
(-6.9644757e-07 1.1942497 9.8559254e-06)
(9.4531528e-07 1.1942492 9.855922e-06)
(-5.3749658e-07 1.1942499 9.8559213e-06)
(1.40401e-06 1.1942487 9.8559179e-06)
(-4.7063478e-07 1.1942494 9.8558969e-06)
(2.3672155e-06 1.1942485 9.8559207e-06)
(-6.0450255e-07 1.1942472 9.8558138e-06)
(3.8564762e-06 1.1942492 9.855899e-06)
(-5.0918755e-07 1.1942407 9.8557723e-06)
(-9.7078073e-06 1.1941332 9.8546475e-06)
(7.4517358e-06 -1.4581424 9.5843697e-07)
(-3.2730657e-07 -1.4583054 9.5834381e-07)
(1.4597702e-06 -1.4582975 9.5830359e-07)
(6.3701654e-07 -1.458302 9.5839706e-07)
(-3.4907775e-07 -1.4582985 9.5833012e-07)
(1.1482817e-06 -1.4583012 9.5835621e-07)
(-1.0105779e-06 -1.4582993 9.5834154e-07)
(1.3916372e-06 -1.4583008 9.5834146e-07)
(-1.3117482e-06 -1.4582999 9.5834085e-07)
(1.430404e-06 -1.4583004 9.5834038e-07)
(-1.4304108e-06 -1.4583004 9.5834065e-07)
(1.3117416e-06 -1.4582999 9.5834272e-07)
(-1.391642e-06 -1.4583008 9.5834059e-07)
(1.0105764e-06 -1.4582993 9.5834139e-07)
(-1.1482865e-06 -1.4583012 9.5835424e-07)
(3.4907935e-07 -1.4582985 9.5833072e-07)
(-6.3702267e-07 -1.458302 9.5839741e-07)
(-1.45977e-06 -1.4582975 9.5830367e-07)
(3.2729808e-07 -1.4583054 9.5834282e-07)
(-7.4517353e-06 -1.4581424 9.5843873e-07)
(2.6408619e-06 1.6697028 1.2386709e-06)
(-1.1808481e-06 1.6698744 1.2387273e-06)
(-2.2632639e-06 1.6698733 1.2387577e-06)
(-2.3528508e-07 1.6698759 1.238696e-06)
(-2.0572666e-06 1.6698737 1.2387481e-06)
(-1.8177372e-07 1.6698765 1.2387274e-06)
(-1.2062559e-06 1.6698744 1.2387436e-06)
(-7.6343811e-08 1.6698765 1.2387439e-06)
(-5.7833567e-07 1.6698752 1.2387447e-06)
(1.7299587e-07 1.669876 1.2387461e-06)
(-1.7299528e-07 1.669876 1.2387463e-06)
(5.7833818e-07 1.6698752 1.2387447e-06)
(7.6345089e-08 1.6698765 1.2387438e-06)
(1.2062616e-06 1.6698744 1.2387444e-06)
(1.8177766e-07 1.6698765 1.2387242e-06)
(2.0572718e-06 1.6698737 1.2387456e-06)
(2.3529046e-07 1.6698759 1.2386965e-06)
(2.2632688e-06 1.6698733 1.2387644e-06)
(1.1808479e-06 1.6698744 1.2387274e-06)
(-2.640863e-06 1.6697028 1.2386725e-06)
(7.6408331e-06 -2.0202995 9.4145237e-08)
(-9.7416757e-07 -2.0205196 9.3643212e-08)
(3.6357976e-06 -2.0205131 9.3738854e-08)
(1.0458979e-06 -2.0205192 9.3707982e-08)
(5.7929085e-07 -2.020514 9.3714724e-08)
(2.0568085e-06 -2.0205182 9.3701802e-08)
(-1.0649446e-06 -2.020515 9.3710553e-08)
(2.3854015e-06 -2.0205175 9.3700744e-08)
(-1.8962867e-06 -2.0205159 9.370769e-08)
(2.298803e-06 -2.0205167 9.3703849e-08)
(-2.2988044e-06 -2.0205167 9.3703882e-08)
(1.8962874e-06 -2.0205159 9.3707255e-08)
(-2.3854027e-06 -2.0205175 9.3701248e-08)
(1.064947e-06 -2.020515 9.3710667e-08)
(-2.0568072e-06 -2.0205182 9.37025e-08)
(-5.7929034e-07 -2.020514 9.3715626e-08)
(-1.0458998e-06 -2.0205192 9.3708165e-08)
(-3.6357969e-06 -2.0205131 9.3738289e-08)
(9.7416418e-07 -2.0205196 9.3643887e-08)
(-7.6408333e-06 -2.0202995 9.4145621e-08)
(-3.7177463e-06 2.3330327 -2.3363579e-07)
(-9.5111792e-07 2.3332861 -2.3347668e-07)
(-2.8179512e-06 2.3332764 -2.3351682e-07)
(-1.3083017e-06 2.3332862 -2.3351221e-07)
(-1.6131635e-06 2.3332781 -2.3351467e-07)
(-1.5134613e-06 2.333285 -2.3350526e-07)
(-4.7438909e-07 2.3332798 -2.3351078e-07)
(-1.4053231e-06 2.3332838 -2.3350444e-07)
(3.9950604e-07 2.3332813 -2.3350895e-07)
(-1.0184772e-06 2.3332826 -2.3350626e-07)
(1.0184823e-06 2.3332826 -2.3350665e-07)
(-3.9950001e-07 2.3332813 -2.3350841e-07)
(1.4053292e-06 2.3332838 -2.3350483e-07)
(4.7439157e-07 2.3332798 -2.3351129e-07)
(1.5134675e-06 2.333285 -2.3350511e-07)
(1.6131669e-06 2.3332781 -2.3351445e-07)
(1.3083051e-06 2.3332862 -2.3351186e-07)
(2.8179526e-06 2.3332764 -2.3351714e-07)
(9.5111963e-07 2.3332861 -2.3347704e-07)
(3.7177447e-06 2.3330327 -2.3363518e-07)
(2.0712232e-05 -2.8056722 2.9770197e-06)
(-1.2924871e-06 -2.8059827 2.9766629e-06)
(4.9283399e-06 -2.8059726 2.9764663e-06)
(3.5860881e-06 -2.8059822 2.9765511e-06)
(-5.4402519e-07 -2.8059738 2.9764701e-06)
(4.8155777e-06 -2.8059809 2.9765163e-06)
(-2.74404e-06 -2.8059752 2.976483e-06)
(4.8686201e-06 -2.8059794 2.9765041e-06)
(-3.8237822e-06 -2.8059766 2.976484e-06)
(4.4776468e-06 -2.805978 2.9764971e-06)
(-4.4776401e-06 -2.805978 2.9764918e-06)
(3.8237891e-06 -2.8059766 2.9764919e-06)
(-4.8686132e-06 -2.8059794 2.9765048e-06)
(2.7440472e-06 -2.8059752 2.9764843e-06)
(-4.8155694e-06 -2.8059809 2.9765145e-06)
(5.4403599e-07 -2.8059738 2.9764663e-06)
(-3.5860827e-06 -2.8059822 2.9765485e-06)
(-4.9283298e-06 -2.8059726 2.9764655e-06)
(1.2924919e-06 -2.8059827 2.9766628e-06)
(-2.0712229e-05 -2.8056722 2.9770193e-06)
(-1.6957716e-05 3.2616219 -2.1366012e-06)
(7.5768193e-07 3.2620091 -2.1362209e-06)
(-4.945879e-06 3.2619766 -2.1361235e-06)
(-3.3140466e-06 3.2619998 -2.1361829e-06)
(-3.2578099e-07 3.2619818 -2.1361204e-06)
(-4.4104888e-06 3.2619949 -2.1361635e-06)
(1.7939547e-06 3.2619851 -2.1361327e-06)
(-4.3888927e-06 3.2619919 -2.1361545e-06)
(3.0189635e-06 3.2619874 -2.1361414e-06)
(-3.8567187e-06 3.2619896 -2.1361478e-06)
(3.8567195e-06 3.2619896 -2.1361476e-06)
(-3.018962e-06 3.2619874 -2.136141e-06)
(4.3888895e-06 3.2619919 -2.1361542e-06)
(-1.7939577e-06 3.2619851 -2.1361333e-06)
(4.4104826e-06 3.2619949 -2.1361635e-06)
(3.2577627e-07 3.2619818 -2.1361205e-06)
(3.3140407e-06 3.2619998 -2.1361791e-06)
(4.9458749e-06 3.2619766 -2.1361237e-06)
(-7.5768556e-07 3.2620091 -2.1362211e-06)
(1.6957715e-05 3.2616219 -2.1366008e-06)
(-1.2876663e-05 -3.8915119 0.00011665659)
(1.7129776e-05 -3.8919757 0.00011668553)
(-1.0365113e-05 -3.8919424 0.00011667965)
(1.4126978e-05 -3.8919675 0.00011668122)
(-9.2096138e-06 -3.8919476 0.00011668047)
(1.203975e-05 -3.8919626 0.00011668087)
(-8.8603216e-06 -3.8919511 0.00011668059)
(1.0565908e-05 -3.8919592 0.00011668078)
(-9.0152446e-06 -3.8919538 0.00011668066)
(9.5780419e-06 -3.8919564 0.00011668072)
(-9.5780443e-06 -3.8919564 0.00011668072)
(9.0152402e-06 -3.8919538 0.00011668066)
(-1.0565909e-05 -3.8919592 0.00011668078)
(8.8603176e-06 -3.8919511 0.00011668059)
(-1.203975e-05 -3.8919626 0.00011668087)
(9.2096119e-06 -3.8919476 0.00011668047)
(-1.4126978e-05 -3.8919675 0.00011668122)
(1.036511e-05 -3.8919424 0.00011667965)
(-1.7129775e-05 -3.8919757 0.00011668553)
(1.2876662e-05 -3.8915119 0.00011665658)
(-7.7834057e-05 0.87151878 -5.2454141e-05)
(4.7035676e-06 0.87158488 -5.2469437e-05)
(-8.3439362e-06 0.87159747 -5.2465934e-05)
(1.1095964e-06 0.87159688 -5.2466539e-05)
(-2.4362178e-06 0.87159728 -5.2466318e-05)
(7.5506803e-07 0.87159817 -5.2466408e-05)
(-1.3961712e-06 0.87159755 -5.2466362e-05)
(8.1443649e-07 0.87159837 -5.2466402e-05)
(-1.0793415e-06 0.87159791 -5.246638e-05)
(9.2872718e-07 0.87159822 -5.2466395e-05)
(-9.2873325e-07 0.87159822 -5.2466395e-05)
(1.0793351e-06 0.87159791 -5.246638e-05)
(-8.1444021e-07 0.87159837 -5.2466403e-05)
(1.3961698e-06 0.87159755 -5.246636e-05)
(-7.5506667e-07 0.87159817 -5.2466408e-05)
(2.4362172e-06 0.87159728 -5.2466317e-05)
(-1.1095959e-06 0.87159688 -5.2466538e-05)
(8.343934e-06 0.87159747 -5.2465934e-05)
(-4.7035745e-06 0.87158488 -5.2469437e-05)
(7.7834053e-05 0.87151878 -5.2454142e-05)
(1.465755e-05 -1.0563864 -1.621361e-05)
(2.2161475e-06 -1.0565166 -1.621464e-05)
(-3.4036009e-06 -1.0565044 -1.6215519e-05)
(1.0433263e-06 -1.0565069 -1.6215525e-05)
(-1.8809226e-06 -1.0565052 -1.6215598e-05)
(8.8943143e-07 -1.0565067 -1.6215611e-05)
(-1.3072061e-06 -1.0565057 -1.6215611e-05)
(9.852873e-07 -1.0565067 -1.6215622e-05)
(-1.150021e-06 -1.0565061 -1.6215617e-05)
(1.0750467e-06 -1.0565065 -1.6215621e-05)
(-1.0750537e-06 -1.0565065 -1.6215621e-05)
(1.1500139e-06 -1.0565061 -1.6215616e-05)
(-9.8529231e-07 -1.0565067 -1.6215623e-05)
(1.3072035e-06 -1.0565057 -1.621561e-05)
(-8.8943236e-07 -1.0565067 -1.6215611e-05)
(1.8809214e-06 -1.0565052 -1.6215598e-05)
(-1.0433261e-06 -1.0565069 -1.6215525e-05)
(3.4035944e-06 -1.0565044 -1.6215519e-05)
(-2.216152e-06 -1.0565166 -1.6214639e-05)
(-1.4657555e-05 -1.0563864 -1.6213607e-05)
(9.7078042e-06 1.1941332 -9.8546618e-06)
(5.0918649e-07 1.1942407 -9.8557924e-06)
(-3.8564787e-06 1.1942492 -9.8559187e-06)
(6.0450681e-07 1.1942472 -9.8558332e-06)
(-2.3672142e-06 1.1942485 -9.8559405e-06)
(4.7063783e-07 1.1942494 -9.8559162e-06)
(-1.4040094e-06 1.1942487 -9.8559346e-06)
(5.374954e-07 1.1942499 -9.8559411e-06)
(-9.4531702e-07 1.1942492 -9.8559415e-06)
(6.9644392e-07 1.1942497 -9.8559453e-06)
(-6.9644746e-07 1.1942497 -9.8559454e-06)
(9.453142e-07 1.1942492 -9.8559416e-06)
(-5.3749626e-07 1.1942499 -9.8559419e-06)
(1.4040104e-06 1.1942487 -9.855938e-06)
(-4.7063528e-07 1.1942494 -9.855917e-06)
(2.3672163e-06 1.1942485 -9.8559405e-06)
(-6.0450384e-07 1.1942472 -9.8558334e-06)
(3.8564771e-06 1.1942492 -9.8559189e-06)
(-5.0918939e-07 1.1942407 -9.8557921e-06)
(-9.7078072e-06 1.1941332 -9.8546659e-06)
(7.4517349e-06 -1.4581424 -9.5844366e-07)
(-3.2730488e-07 -1.4583054 -9.5835083e-07)
(1.4597697e-06 -1.4582975 -9.5830978e-07)
(6.3701819e-07 -1.458302 -9.5840346e-07)
(-3.4907917e-07 -1.4582985 -9.5833786e-07)
(1.1482813e-06 -1.4583012 -9.5836266e-07)
(-1.0105776e-06 -1.4582993 -9.583475e-07)
(1.3916371e-06 -1.4583008 -9.5834753e-07)
(-1.3117474e-06 -1.4582999 -9.583479e-07)
(1.4304038e-06 -1.4583004 -9.5834684e-07)
(-1.43041e-06 -1.4583004 -9.5834639e-07)
(1.3117404e-06 -1.4582999 -9.5834632e-07)
(-1.391642e-06 -1.4583008 -9.5834879e-07)
(1.0105758e-06 -1.4582993 -9.5834781e-07)
(-1.1482859e-06 -1.4583012 -9.5836069e-07)
(3.4907926e-07 -1.4582985 -9.5833723e-07)
(-6.3702304e-07 -1.458302 -9.5840309e-07)
(-1.4597699e-06 -1.4582975 -9.5830964e-07)
(3.2729777e-07 -1.4583054 -9.5834861e-07)
(-7.4517352e-06 -1.4581424 -9.5844416e-07)
(2.6408627e-06 1.6697028 -1.2386749e-06)
(-1.1808458e-06 1.6698744 -1.2387329e-06)
(-2.263267e-06 1.6698733 -1.238763e-06)
(-2.3528396e-07 1.6698759 -1.2386999e-06)
(-2.057266e-06 1.6698737 -1.2387528e-06)
(-1.8177262e-07 1.6698765 -1.2387338e-06)
(-1.2062569e-06 1.6698744 -1.2387501e-06)
(-7.6342615e-08 1.6698765 -1.2387497e-06)
(-5.7833531e-07 1.6698752 -1.2387506e-06)
(1.72996e-07 1.669876 -1.2387512e-06)
(-1.7299483e-07 1.669876 -1.238751e-06)
(5.7833739e-07 1.6698752 -1.2387503e-06)
(7.6345397e-08 1.6698765 -1.23875e-06)
(1.2062611e-06 1.6698744 -1.2387492e-06)
(1.8177806e-07 1.6698765 -1.2387287e-06)
(2.0572709e-06 1.6698737 -1.2387508e-06)
(2.3528858e-07 1.6698759 -1.2386999e-06)
(2.2632698e-06 1.6698733 -1.2387665e-06)
(1.1808496e-06 1.6698744 -1.238732e-06)
(-2.640863e-06 1.6697028 -1.2386774e-06)
(7.6408324e-06 -2.0202995 -9.414582e-08)
(-9.7416638e-07 -2.0205196 -9.3644875e-08)
(3.6357931e-06 -2.0205131 -9.373919e-08)
(1.0459014e-06 -2.0205192 -9.3708236e-08)
(5.7928921e-07 -2.020514 -9.3716392e-08)
(2.0568099e-06 -2.0205182 -9.3702369e-08)
(-1.0649449e-06 -2.020515 -9.3711159e-08)
(2.3854032e-06 -2.0205175 -9.3701116e-08)
(-1.8962872e-06 -2.0205159 -9.370784e-08)
(2.2988027e-06 -2.0205167 -9.370441e-08)
(-2.2988036e-06 -2.0205167 -9.3704421e-08)
(1.8962855e-06 -2.0205159 -9.3707325e-08)
(-2.3854019e-06 -2.0205175 -9.3701013e-08)
(1.0649471e-06 -2.020515 -9.3711995e-08)
(-2.0568073e-06 -2.0205182 -9.3701576e-08)
(-5.7928993e-07 -2.020514 -9.3714923e-08)
(-1.0459005e-06 -2.0205192 -9.3708381e-08)
(-3.6357968e-06 -2.0205131 -9.3739168e-08)
(9.7416448e-07 -2.0205196 -9.3644451e-08)
(-7.6408333e-06 -2.0202995 -9.4145614e-08)
(-3.7177458e-06 2.3330327 2.3363435e-07)
(-9.5111895e-07 2.3332861 2.3347637e-07)
(-2.8179493e-06 2.3332764 2.3351644e-07)
(-1.3083029e-06 2.3332862 2.3351071e-07)
(-1.6131633e-06 2.3332781 2.3351327e-07)
(-1.513462e-06 2.333285 2.3350441e-07)
(-4.7438951e-07 2.3332798 2.3351095e-07)
(-1.4053201e-06 2.3332838 2.3350462e-07)
(3.9950444e-07 2.3332813 2.335088e-07)
(-1.0184771e-06 2.3332826 2.3350601e-07)
(1.018483e-06 2.3332826 2.3350599e-07)
(-3.9950186e-07 2.3332813 2.3350825e-07)
(1.4053304e-06 2.3332838 2.335047e-07)
(4.7439119e-07 2.3332798 2.3351119e-07)
(1.5134677e-06 2.333285 2.335044e-07)
(1.6131669e-06 2.3332781 2.3351416e-07)
(1.3083055e-06 2.3332862 2.3351088e-07)
(2.8179518e-06 2.3332764 2.3351528e-07)
(9.5111979e-07 2.3332861 2.3347612e-07)
(3.7177449e-06 2.3330327 2.3363442e-07)
(2.071223e-05 -2.8056722 -2.9770219e-06)
(-1.2924894e-06 -2.8059827 -2.9766619e-06)
(4.9283424e-06 -2.8059726 -2.9764664e-06)
(3.5860881e-06 -2.8059822 -2.976552e-06)
(-5.4402507e-07 -2.8059738 -2.9764688e-06)
(4.8155779e-06 -2.8059809 -2.9765174e-06)
(-2.7440398e-06 -2.8059752 -2.9764819e-06)
(4.8686227e-06 -2.8059794 -2.9765048e-06)
(-3.8237833e-06 -2.8059766 -2.9764871e-06)
(4.4776452e-06 -2.805978 -2.9764981e-06)
(-4.4776399e-06 -2.805978 -2.9764905e-06)
(3.8237907e-06 -2.8059766 -2.9764919e-06)
(-4.8686131e-06 -2.8059794 -2.9765041e-06)
(2.7440487e-06 -2.8059752 -2.976484e-06)
(-4.8155695e-06 -2.8059809 -2.9765151e-06)
(5.4403582e-07 -2.8059738 -2.9764672e-06)
(-3.5860827e-06 -2.8059822 -2.9765498e-06)
(-4.9283339e-06 -2.8059726 -2.9764642e-06)
(1.2924915e-06 -2.8059827 -2.9766617e-06)
(-2.0712229e-05 -2.8056722 -2.9770181e-06)
(-1.6957715e-05 3.2616219 2.1366013e-06)
(7.5768095e-07 3.2620091 2.1362217e-06)
(-4.9458782e-06 3.2619766 2.1361243e-06)
(-3.3140466e-06 3.2619998 2.136183e-06)
(-3.2578103e-07 3.2619818 2.1361205e-06)
(-4.4104885e-06 3.2619949 2.1361635e-06)
(1.7939544e-06 3.2619851 2.1361326e-06)
(-4.3888928e-06 3.2619919 2.1361542e-06)
(3.0189625e-06 3.2619874 2.1361415e-06)
(-3.8567176e-06 3.2619896 2.1361481e-06)
(3.8567192e-06 3.2619896 2.1361477e-06)
(-3.018962e-06 3.2619874 2.1361408e-06)
(4.3888894e-06 3.2619919 2.1361538e-06)
(-1.7939578e-06 3.2619851 2.1361322e-06)
(4.4104828e-06 3.2619949 2.1361633e-06)
(3.2577608e-07 3.2619818 2.1361206e-06)
(3.3140411e-06 3.2619998 2.136179e-06)
(4.9458741e-06 3.2619766 2.1361245e-06)
(-7.5768458e-07 3.2620091 2.1362219e-06)
(1.6957715e-05 3.2616219 2.1366017e-06)
(-1.2876663e-05 -3.8915119 -0.00011665659)
(1.7129773e-05 -3.8919757 -0.00011668553)
(-1.0365108e-05 -3.8919424 -0.00011667965)
(1.4126978e-05 -3.8919675 -0.00011668122)
(-9.209613e-06 -3.8919476 -0.00011668047)
(1.2039749e-05 -3.8919626 -0.00011668087)
(-8.8603218e-06 -3.8919511 -0.00011668059)
(1.0565908e-05 -3.8919592 -0.00011668078)
(-9.0152445e-06 -3.8919538 -0.00011668066)
(9.578042e-06 -3.8919564 -0.00011668072)
(-9.5780442e-06 -3.8919564 -0.00011668072)
(9.0152403e-06 -3.8919538 -0.00011668066)
(-1.0565909e-05 -3.8919592 -0.00011668078)
(8.8603179e-06 -3.8919511 -0.00011668059)
(-1.203975e-05 -3.8919626 -0.00011668087)
(9.2096131e-06 -3.8919476 -0.00011668047)
(-1.4126978e-05 -3.8919675 -0.00011668122)
(1.0365109e-05 -3.8919424 -0.00011667965)
(-1.7129775e-05 -3.8919757 -0.00011668553)
(1.2876662e-05 -3.8915119 -0.00011665658)
(-7.7782278e-05 0.87122377 0.00014617644)
(4.6985584e-06 0.87128985 0.00014619152)
(-8.3396477e-06 0.87130243 0.00014619811)
(1.1092118e-06 0.87130184 0.00014619728)
(-2.4353159e-06 0.87130223 0.00014619771)
(7.5489463e-07 0.87130312 0.00014619775)
(-1.3957058e-06 0.87130251 0.00014619773)
(8.1422668e-07 0.87130332 0.00014619781)
(-1.0790045e-06 0.87130287 0.00014619777)
(9.2846058e-07 0.87130318 0.00014619781)
(-9.2846677e-07 0.87130318 0.00014619781)
(1.0789982e-06 0.87130287 0.00014619777)
(-8.1423006e-07 0.87130332 0.00014619781)
(1.3957006e-06 0.87130251 0.00014619773)
(-7.548898e-07 0.87130312 0.00014619775)
(2.4353148e-06 0.87130223 0.0001461977)
(-1.1092111e-06 0.87130184 0.00014619728)
(8.3396455e-06 0.87130243 0.00014619811)
(-4.6985648e-06 0.87128985 0.00014619152)
(7.7782275e-05 0.87122377 0.00014617644)
(1.465233e-05 -1.0559027 -1.7622622e-05)
(2.2152909e-06 -1.0560329 -1.7624837e-05)
(-3.4030618e-06 -1.0560206 -1.762573e-05)
(1.0430812e-06 -1.0560232 -1.7625769e-05)
(-1.8803671e-06 -1.0560215 -1.7625816e-05)
(8.8921628e-07 -1.0560229 -1.7625849e-05)
(-1.3067952e-06 -1.0560219 -1.7625833e-05)
(9.8502753e-07 -1.0560229 -1.7625855e-05)
(-1.1496746e-06 -1.0560224 -1.7625844e-05)
(1.0747434e-06 -1.0560227 -1.7625851e-05)
(-1.0747505e-06 -1.0560227 -1.7625851e-05)
(1.1496675e-06 -1.0560224 -1.7625844e-05)
(-9.850328e-07 -1.0560229 -1.7625855e-05)
(1.3067929e-06 -1.0560219 -1.7625834e-05)
(-8.8921729e-07 -1.0560229 -1.7625849e-05)
(1.8803655e-06 -1.0560215 -1.7625817e-05)
(-1.0430808e-06 -1.0560232 -1.762577e-05)
(3.4030558e-06 -1.0560206 -1.762573e-05)
(-2.2152947e-06 -1.0560329 -1.7624836e-05)
(-1.4652335e-05 -1.0559027 -1.762262e-05)
(9.7053453e-06 1.1936638 -6.4902542e-06)
(5.0904672e-07 1.1937712 -6.4911367e-06)
(-3.8550802e-06 1.1937797 -6.4914672e-06)
(6.0449181e-07 1.1937778 -6.4913489e-06)
(-2.3664193e-06 1.193779 -6.4914801e-06)
(4.7059835e-07 1.19378 -6.4914631e-06)
(-1.4035432e-06 1.1937793 -6.4914825e-06)
(5.3738889e-07 1.1937804 -6.4914923e-06)
(-9.4502094e-07 1.1937798 -6.4914876e-06)
(6.9625485e-07 1.1937802 -6.4914942e-06)
(-6.9625859e-07 1.1937802 -6.4914944e-06)
(9.4501819e-07 1.1937798 -6.4914879e-06)
(-5.3738944e-07 1.1937804 -6.4914921e-06)
(1.4035442e-06 1.1937793 -6.4914803e-06)
(-4.705963e-07 1.19378 -6.4914628e-06)
(2.3664213e-06 1.193779 -6.4914806e-06)
(-6.0448862e-07 1.1937778 -6.4913491e-06)
(3.8550786e-06 1.1937797 -6.4914674e-06)
(-5.0904901e-07 1.1937712 -6.4911368e-06)
(-9.7053477e-06 1.1936638 -6.4902483e-06)
(7.4483584e-06 -1.4575257 -4.8734584e-06)
(-3.271771e-07 -1.4576886 -4.8748674e-06)
(1.4591896e-06 -1.4576806 -4.8746334e-06)
(6.3678013e-07 -1.4576852 -4.8748021e-06)
(-3.4898391e-07 -1.4576817 -4.8746796e-06)
(1.1479256e-06 -1.4576843 -4.874719e-06)
(-1.0102732e-06 -1.4576824 -4.8746903e-06)
(1.39123e-06 -1.457684 -4.8746966e-06)
(-1.3113597e-06 -1.457683 -4.8746918e-06)
(1.4299886e-06 -1.4576836 -4.8746915e-06)
(-1.4299944e-06 -1.4576836 -4.8746918e-06)
(1.3113523e-06 -1.457683 -4.8746912e-06)
(-1.3912352e-06 -1.457684 -4.8746971e-06)
(1.0102718e-06 -1.4576824 -4.8746905e-06)
(-1.1479296e-06 -1.4576843 -4.8747204e-06)
(3.4898537e-07 -1.4576817 -4.8746796e-06)
(-6.3678534e-07 -1.4576852 -4.8748029e-06)
(-1.4591914e-06 -1.4576806 -4.8746331e-06)
(3.2717074e-07 -1.4576886 -4.8748689e-06)
(-7.4483585e-06 -1.4575257 -4.8734576e-06)
(2.6413119e-06 1.6690187 2.6827539e-06)
(-1.1802543e-06 1.6691901 2.6833846e-06)
(-2.2622953e-06 1.669189 2.6832576e-06)
(-2.3499635e-07 1.6691916 2.6833469e-06)
(-2.0565057e-06 1.6691894 2.6832795e-06)
(-1.8158583e-07 1.6691922 2.683288e-06)
(-1.2058187e-06 1.6691901 2.6832821e-06)
(-7.6252378e-08 1.6691922 2.6832741e-06)
(-5.7813532e-07 1.669191 2.6832768e-06)
(1.7296262e-07 1.6691917 2.6832726e-06)
(-1.7296153e-07 1.6691917 2.6832724e-06)
(5.7813734e-07 1.669191 2.6832768e-06)
(7.6255203e-08 1.6691922 2.6832742e-06)
(1.205823e-06 1.6691901 2.6832821e-06)
(1.815908e-07 1.6691922 2.6832844e-06)
(2.0565106e-06 1.6691894 2.6832781e-06)
(2.3500215e-07 1.6691916 2.683347e-06)
(2.2622983e-06 1.669189 2.6832629e-06)
(1.1802566e-06 1.6691901 2.6833844e-06)
(-2.6413128e-06 1.6690187 2.6827566e-06)
(7.637373e-06 -2.0194437 -4.2528501e-06)
(-9.7390214e-07 -2.0196637 -4.2537472e-06)
(3.6344263e-06 -2.0196572 -4.2538202e-06)
(1.045401e-06 -2.0196632 -4.2537947e-06)
(5.7901132e-07 -2.0196581 -4.2537856e-06)
(2.0560816e-06 -2.0196623 -4.2537774e-06)
(-1.0646709e-06 -2.019659 -4.2537765e-06)
(2.384647e-06 -2.0196615 -4.2537705e-06)
(-1.8957383e-06 -2.0196599 -4.2537715e-06)