/*--------------------------------*- C++ -*----------------------------------*\
  =========                 |
  \\      /  F ield         | OpenFOAM: The Open Source CFD Toolbox
   \\    /   O peration     | Website:  https://openfoam.org
    \\  /    A nd           | Version:  8
     \\/     M anipulation  |
\*---------------------------------------------------------------------------*/
FoamFile
{
    version     2.0;
    format      ascii;
    class       volScalarField;
    location    "0.500023";
    object      alphat;
}
// * * * * * * * * * * * * * * * * * * * * * * * * * * * * * * * * * * * * * //

dimensions      [1 -1 -1 0 0 0 0];

internalField   nonuniform List<scalar> 
6800
(
0.0436662
0.0632306
0.0647122
0.0640116
0.0641784
0.0550193
0.0442526
0.0331576
0.0271564
0.0278123
0.0347492
0.0561087
0.0616131
0.0613008
0.0576997
0.0449583
0.0333137
0.0288938
0.0267176
0.0224978
0.0343321
0.0549811
0.0606393
0.0577081
0.0474684
0.0353217
0.029869
0.0263202
0.0205393
0.0186347
0.0349302
0.0535136
0.0574224
0.0529503
0.0404039
0.032949
0.0271171
0.0220765
0.0191408
0.0179055
0.0345917
0.0528217
0.0559714
0.04808
0.0355164
0.0281854
0.0230907
0.020673
0.018153
0.0155005
0.0345888
0.0538657
0.0539086
0.0416102
0.0317746
0.0271173
0.0229855
0.0191933
0.0160372
0.014711
0.0342219
0.0547143
0.0519225
0.0386881
0.0312229
0.0243625
0.019926
0.0169432
0.0153401
0.014326
0.0341197
0.0564663
0.0485329
0.0334244
0.0266694
0.0234206
0.0191606
0.01706
0.0145682
0.0134649
0.0338968
0.0576166
0.0436412
0.0350979
0.0285514
0.0215411
0.0176236
0.0153634
0.0138142
0.0132215
0.0339415
0.0587797
0.0414379
0.0304951
0.0232488
0.0208544
0.0171052
0.0153325
0.0136396
0.0126795
0.041287
0.222162
0.414404
0.54213
0.574524
0.589291
0.602408
0.616262
0.625445
0.629414
0.0414193
0.213879
0.402672
0.519012
0.547006
0.556594
0.56399
0.568829
0.566882
0.563963
0.0372728
0.185953
0.377393
0.475232
0.499258
0.504641
0.504
0.502439
0.502123
0.494848
0.0346008
0.161079
0.334404
0.415897
0.436514
0.432096
0.427457
0.418828
0.399673
0.357229
0.0321672
0.148598
0.292721
0.353014
0.357717
0.351152
0.337474
0.301092
0.272673
0.205771
0.0311146
0.140657
0.259052
0.291222
0.290252
0.266117
0.229449
0.172851
0.138859
0.0993946
0.0348103
0.145699
0.232235
0.238673
0.204399
0.156406
0.115199
0.088504
0.0806276
0.0625252
0.0350235
0.148511
0.18448
0.156345
0.11457
0.0910339
0.0770575
0.0643428
0.0616204
0.0500508
0.157792
0.159144
0.13499
0.0949283
0.0782374
0.0705613
0.062648
0.0560279
0.0538513
0.0391537
0.11428
0.092004
0.0807452
0.0704917
0.0673908
0.0636302
0.0553414
0.0487522
0.035195
0.0283746
0.631838
0.625229
0.614652
0.603129
0.59222
0.582442
0.573841
0.56657
0.560457
0.555194
0.550593
0.546545
0.542948
0.53973
0.536828
0.534191
0.531778
0.529555
0.527495
0.525574
0.523773
0.52208
0.52048
0.518968
0.517532
0.516153
0.514824
0.513545
0.512312
0.511113
0.509949
0.508822
0.507736
0.506694
0.505696
0.504745
0.50384
0.502983
0.502173
0.501411
0.500697
0.500032
0.499415
0.498848
0.498328
0.497854
0.49742
0.497025
0.496667
0.496342
0.496046
0.495775
0.495526
0.495294
0.495078
0.494875
0.494683
0.4945
0.494326
0.49416
0.494002
0.49385
0.493706
0.493567
0.493434
0.493307
0.493186
0.493069
0.492956
0.492847
0.492743
0.492641
0.492544
0.49245
0.492359
0.492273
0.49219
0.492112
0.492038
0.491971
0.491907
0.491853
0.491801
0.491763
0.491724
0.491707
0.491679
0.491689
0.491668
0.491712
0.49169
0.491781
0.491744
0.491897
0.49182
0.492039
0.491982
0.492079
0.49276
0.491869
0.566088
0.564238
0.557984
0.550765
0.543744
0.537276
0.531491
0.526631
0.522508
0.518946
0.515848
0.513141
0.510771
0.50869
0.506848
0.505199
0.503711
0.502354
0.501105
0.499948
0.498867
0.497855
0.496901
0.496011
0.49514
0.494268
0.49342
0.49261
0.491814
0.491019
0.490255
0.489531
0.488852
0.488216
0.487622
0.487069
0.486555
0.486078
0.48564
0.485236
0.484872
0.484553
0.484279
0.484046
0.483852
0.483693
0.483561
0.483463
0.483397
0.483354
0.483329
0.483317
0.483314
0.483319
0.483328
0.483341
0.483357
0.483373
0.483392
0.48341
0.48343
0.48345
0.483469
0.483487
0.483504
0.483522
0.483539
0.483554
0.483569
0.483583
0.483598
0.483613
0.48363
0.483649
0.483669
0.483692
0.483717
0.483746
0.483778
0.483815
0.483855
0.483904
0.483953
0.484016
0.484075
0.484156
0.484222
0.484327
0.484396
0.484534
0.484596
0.484779
0.484821
0.485065
0.485063
0.485378
0.485381
0.48558
0.486328
0.485553
0.498581
0.499129
0.494284
0.488973
0.484011
0.479597
0.475815
0.472114
0.468739
0.465866
0.463461
0.461472
0.459851
0.458554
0.457492
0.456622
0.455925
0.455365
0.454917
0.454558
0.454275
0.454055
0.453894
0.453776
0.453728
0.453756
0.453849
0.453965
0.454178
0.454487
0.454849
0.455238
0.455641
0.456049
0.456455
0.456858
0.457254
0.457645
0.458035
0.458411
0.45882
0.459262
0.459718
0.460179
0.460639
0.461097
0.46155
0.461991
0.462415
0.462825
0.463223
0.463609
0.463985
0.464351
0.464706
0.465051
0.465384
0.465707
0.46602
0.466322
0.466617
0.466896
0.46716
0.467411
0.467653
0.46789
0.468111
0.468321
0.468526
0.468727
0.468927
0.469125
0.469323
0.469521
0.469718
0.469916
0.470114
0.470317
0.47052
0.470729
0.470937
0.471152
0.471364
0.471589
0.471803
0.47204
0.472255
0.47251
0.472719
0.473003
0.473195
0.473521
0.473688
0.474075
0.474185
0.474644
0.474754
0.475102
0.475943
0.475311
0.355342
0.356862
0.357159
0.357498
0.358333
0.359653
0.361266
0.363431
0.365873
0.368548
0.371193
0.373869
0.376589
0.37938
0.381965
0.384488
0.386947
0.389302
0.391546
0.393679
0.395712
0.397651
0.399513
0.401302
0.403032
0.404712
0.406347
0.407951
0.409489
0.410968
0.412411
0.413819
0.415191
0.416526
0.417819
0.419072
0.420284
0.421467
0.422606
0.423745
0.424805
0.425797
0.426744
0.427663
0.42856
0.429446
0.430317
0.431182
0.432035
0.432873
0.433699
0.434514
0.435315
0.436102
0.436874
0.43763
0.438369
0.439092
0.439797
0.440486
0.441158
0.441818
0.442472
0.443114
0.443748
0.444367
0.444992
0.445616
0.446235
0.446847
0.447449
0.448042
0.448623
0.449196
0.449753
0.45031
0.450862
0.45141
0.451948
0.452483
0.453004
0.453525
0.454028
0.454538
0.455024
0.455528
0.455994
0.456501
0.456943
0.457464
0.457874
0.458424
0.458785
0.459382
0.459669
0.460331
0.460594
0.461156
0.462144
0.461736
0.199005
0.196334
0.195915
0.197572
0.200851
0.205581
0.211042
0.217225
0.223651
0.230673
0.236837
0.243391
0.250214
0.257253
0.262864
0.268977
0.274833
0.280391
0.285692
0.290769
0.295655
0.300369
0.304934
0.309354
0.313648
0.31781
0.321861
0.325784
0.329608
0.333298
0.336894
0.340353
0.343674
0.346842
0.349866
0.35277
0.355567
0.35827
0.360895
0.363439
0.36594
0.368395
0.3708
0.373156
0.375458
0.377716
0.379913
0.382074
0.384156
0.386182
0.388167
0.390103
0.391985
0.393812
0.39558
0.397293
0.398948
0.40055
0.402099
0.403599
0.405051
0.406459
0.407827
0.409158
0.410454
0.411718
0.412946
0.414143
0.415311
0.416454
0.417571
0.418666
0.419736
0.420785
0.421812
0.422811
0.423776
0.42472
0.425636
0.426538
0.427413
0.428283
0.429122
0.429966
0.430773
0.4316
0.432374
0.433196
0.433933
0.434761
0.435453
0.436304
0.436939
0.437834
0.438381
0.439333
0.439843
0.440709
0.441883
0.441907
0.0977392
0.0969604
0.0966278
0.0969507
0.0977684
0.0992936
0.10119
0.103762
0.106724
0.110196
0.11374
0.117627
0.122349
0.126712
0.132196
0.137897
0.144134
0.150563
0.157076
0.163668
0.170335
0.177019
0.183703
0.190328
0.196914
0.203386
0.209796
0.21605
0.222225
0.228206
0.23411
0.239575
0.24475
0.249601
0.25428
0.258928
0.263469
0.267924
0.272299
0.276605
0.28084
0.285014
0.28912
0.293165
0.297136
0.301046
0.304846
0.308661
0.312156
0.31568
0.319216
0.322599
0.325863
0.32902
0.332066
0.335016
0.337865
0.340632
0.343311
0.345908
0.348432
0.350891
0.353285
0.355621
0.357899
0.360126
0.362298
0.364424
0.366496
0.368527
0.3705
0.37244
0.374317
0.37617
0.377954
0.37972
0.381438
0.383128
0.38477
0.386383
0.387945
0.389489
0.390977
0.392463
0.393883
0.395323
0.396678
0.398085
0.399372
0.400762
0.401975
0.403365
0.404491
0.405906
0.406913
0.408367
0.409295
0.410699
0.412116
0.412919
0.0618132
0.0610548
0.0603829
0.0599126
0.0595354
0.0593211
0.0592158
0.0592913
0.0595035
0.0598562
0.0604036
0.0610104
0.0619278
0.0627828
0.0638805
0.0648926
0.0662606
0.0676346
0.0695867
0.0715304
0.0739078
0.0764487
0.0792519
0.0822845
0.0856124
0.0891836
0.0930342
0.0970868
0.101426
0.105949
0.110726
0.115874
0.12152
0.127417
0.13344
0.139582
0.145794
0.152066
0.158351
0.164637
0.170883
0.177084
0.183205
0.189244
0.195174
0.200997
0.206687
0.212261
0.217696
0.222855
0.227782
0.232486
0.237052
0.241515
0.245857
0.250114
0.254266
0.25838
0.26234
0.266215
0.270061
0.273836
0.277533
0.281163
0.284713
0.288199
0.2916
0.294941
0.29819
0.301379
0.304461
0.307497
0.310401
0.313302
0.316022
0.318829
0.321476
0.3241
0.326614
0.329082
0.331465
0.333839
0.336129
0.338422
0.340618
0.342847
0.344952
0.347129
0.349138
0.351277
0.353179
0.355294
0.357073
0.359191
0.360812
0.362951
0.364404
0.36655
0.368273
0.370277
0.0494349
0.0486611
0.0479126
0.0471935
0.046437
0.0457509
0.0449806
0.0442578
0.0434207
0.0426553
0.0417465
0.0409349
0.040063
0.0393543
0.0387688
0.0382137
0.0377935
0.037401
0.0371752
0.0369921
0.0369671
0.0369811
0.0371669
0.0373655
0.037772
0.0382636
0.0387479
0.0394509
0.0403376
0.0413801
0.0425164
0.0438125
0.0452934
0.0469948
0.0489056
0.0510803
0.0534753
0.0561492
0.0590522
0.0622492
0.0656827
0.0694039
0.073345
0.0775575
0.0819599
0.0866089
0.0914048
0.0964191
0.101526
0.106943
0.112554
0.1184
0.124291
0.130226
0.136151
0.142069
0.14793
0.153738
0.159456
0.165084
0.170599
0.176015
0.1813
0.186482
0.191523
0.196466
0.20126
0.20597
0.210461
0.214835
0.218999
0.223091
0.227029
0.230948
0.234713
0.238484
0.242114
0.245767
0.249264
0.252812
0.256172
0.259628
0.262891
0.266172
0.269328
0.272557
0.275584
0.278731
0.281618
0.284696
0.287423
0.290442
0.292987
0.295978
0.298302
0.301286
0.303383
0.306432
0.308345
0.312006
0.0380528
0.0369865
0.035975
0.0349309
0.0339129
0.0329201
0.0320101
0.0311357
0.030384
0.0296394
0.0290552
0.0284214
0.027797
0.0271319
0.0265636
0.0260621
0.0256293
0.0252399
0.0249027
0.0245956
0.024334
0.0240931
0.0238956
0.0237123
0.023572
0.0234419
0.0233583
0.0232748
0.0232443
0.0232135
0.0232414
0.0232634
0.0233556
0.0234371
0.0236433
0.0238409
0.0240747
0.0243089
0.0245628
0.0250698
0.0255523
0.0261536
0.0268055
0.0275985
0.0284595
0.0294798
0.0305889
0.0318892
0.0332913
0.0349064
0.0366427
0.0386277
0.0407552
0.0431532
0.0457029
0.048531
0.0515152
0.0547736
0.0581843
0.0618588
0.0656683
0.0697247
0.0738903
0.0782791
0.0827441
0.0874033
0.0921015
0.0969615
0.101891
0.107021
0.112158
0.117445
0.122617
0.127883
0.132989
0.13817
0.143154
0.148206
0.153028
0.157923
0.162557
0.167279
0.171712
0.176265
0.180479
0.184877
0.188872
0.193136
0.196908
0.200993
0.20447
0.208426
0.211608
0.215504
0.218447
0.222373
0.224918
0.229093
0.231106
0.236782
0.0278626
0.0270019
0.0261118
0.0253772
0.0247456
0.024187
0.0236801
0.0232132
0.0227843
0.0223798
0.0219992
0.0216438
0.0213086
0.0209942
0.0206976
0.0204223
0.0201647
0.0199275
0.0197062
0.019504
0.0193154
0.0191439
0.0189841
0.0188393
0.0187045
0.0185827
0.0184692
0.0183676
0.0182726
0.0181885
0.018109
0.018041
0.017973
0.0179172
0.0178672
0.0178339
0.0177842
0.0177623
0.0177239
0.0177127
0.0176905
0.017701
0.0177011
0.017734
0.0177615
0.0178153
0.0178815
0.0179861
0.0180916
0.0182172
0.0182919
0.0185121
0.018604
0.0189565
0.0191352
0.0195572
0.0198172
0.0203252
0.020746
0.0213617
0.0219304
0.0227145
0.0234536
0.0244437
0.0253832
0.0266143
0.027783
0.0292858
0.030712
0.032519
0.0342366
0.0363809
0.0384154
0.0409147
0.0432717
0.046131
0.0488047
0.0520192
0.0549918
0.0585466
0.0617868
0.065657
0.0691203
0.0732726
0.0769038
0.0812996
0.0850361
0.0896364
0.0934088
0.0982581
0.102074
0.107132
0.110889
0.116103
0.119672
0.125026
0.128258
0.133918
0.135511
0.144672
0.0225552
0.0220623
0.0215854
0.0211317
0.0207054
0.0203094
0.0199354
0.0195914
0.0192651
0.0189677
0.0186973
0.0184528
0.0182268
0.0180204
0.0178269
0.0176492
0.01748
0.0173245
0.0171755
0.0170402
0.0169083
0.0167894
0.0166715
0.0165663
0.0164599
0.0163662
0.0162694
0.0161851
0.0160963
0.0160199
0.015938
0.0158683
0.0157924
0.0157288
0.0156578
0.0155994
0.0155327
0.0154798
0.0154199
0.0153745
0.0153208
0.0152822
0.0152343
0.0152022
0.0151599
0.015134
0.0150968
0.0150775
0.0150456
0.0150331
0.015006
0.0150003
0.0149785
0.0149798
0.014966
0.0149744
0.0149703
0.0149866
0.0149937
0.0150209
0.0150404
0.015084
0.0151206
0.0151792
0.0152542
0.0153222
0.0153836
0.0155245
0.0156063
0.0157823
0.0158939
0.016132
0.0162747
0.0165968
0.0167841
0.0172075
0.0174595
0.0180009
0.0183368
0.0190259
0.0194548
0.0203351
0.0208665
0.0219836
0.0226363
0.0240162
0.0248108
0.0264749
0.0274216
0.0294006
0.0305133
0.0328363
0.034126
0.0368173
0.0382483
0.0412764
0.0428236
0.0460424
0.0482985
0.0523808
0.0186941
0.0184651
0.0182402
0.0180186
0.0177954
0.0175697
0.0173529
0.017142
0.0169441
0.0167553
0.0165797
0.0164128
0.0162578
0.0161107
0.0159737
0.0158438
0.0157222
0.0156068
0.0154969
0.0153908
0.0152895
0.0151921
0.0150989
0.0150099
0.0149243
0.0148434
0.0147649
0.0146916
0.0146196
0.0145534
0.0144875
0.014428
0.0143678
0.0143146
0.0142597
0.0142124
0.0141626
0.0141204
0.0140749
0.0140371
0.0139952
0.0139606
0.0139217
0.0138898
0.0138534
0.0138238
0.0137898
0.0137623
0.0137306
0.0137054
0.0136758
0.013653
0.0136252
0.013605
0.0135789
0.0135615
0.0135369
0.0135226
0.0134994
0.0134879
0.0134662
0.0134556
0.0134341
0.0134241
0.0134031
0.0133975
0.0133803
0.0133782
0.0133646
0.0133661
0.0133549
0.0133593
0.0133515
0.0133595
0.0133569
0.0133692
0.0133743
0.0133929
0.013408
0.0134353
0.0134636
0.0135055
0.0135561
0.0136457
0.013682
0.0137518
0.0138103
0.0139382
0.0140074
0.0141867
0.0142759
0.014545
0.0146251
0.015012
0.0150908
0.0155551
0.0156876
0.016376
0.0171795
0.0173189
0.0161452
0.0160178
0.0158869
0.0157474
0.015606
0.0154607
0.0153185
0.0151754
0.0150382
0.0149017
0.0147725
0.0146449
0.0145253
0.0144074
0.0142976
0.0141896
0.0140897
0.0139912
0.0139005
0.0138111
0.0137291
0.0136482
0.0135743
0.0135012
0.0134347
0.0133687
0.0133089
0.0132494
0.0131956
0.013142
0.0130935
0.0130453
0.0130015
0.012958
0.0129183
0.0128791
0.012843
0.0128077
0.0127749
0.0127432
0.0127133
0.0126848
0.0126575
0.012632
0.0126071
0.0125842
0.0125615
0.012541
0.0125201
0.0125018
0.0124826
0.0124662
0.0124483
0.0124336
0.0124169
0.0124039
0.0123881
0.0123766
0.0123616
0.0123517
0.0123372
0.0123287
0.0123147
0.0123077
0.0122939
0.0122883
0.0122747
0.0122706
0.0122569
0.0122543
0.0122404
0.0122394
0.0122252
0.0122257
0.0122113
0.0122133
0.0121985
0.0122021
0.012187
0.0121921
0.0121769
0.0121837
0.0121685
0.012178
0.0121632
0.0121753
0.0121606
0.0121757
0.012162
0.0121804
0.0121684
0.0121909
0.0121818
0.0122082
0.0122054
0.0122351
0.0122356
0.0122738
0.0123024
0.0123463
0.01439
0.014317
0.0142393
0.0141516
0.0140607
0.0139642
0.0138693
0.0137722
0.0136793
0.0135858
0.0134981
0.0134101
0.0133289
0.0132474
0.0131729
0.013098
0.0130303
0.0129618
0.0129006
0.0128381
0.012783
0.0127262
0.0126766
0.0126249
0.0125803
0.0125331
0.012493
0.0124498
0.0124136
0.012374
0.0123413
0.0123048
0.0122752
0.0122415
0.0122146
0.0121832
0.0121586
0.0121293
0.0121069
0.0120794
0.012059
0.0120333
0.0120147
0.0119906
0.0119737
0.0119511
0.0119358
0.0119147
0.0119008
0.0118809
0.0118684
0.0118496
0.0118382
0.0118205
0.0118101
0.0117933
0.0117838
0.0117678
0.0117591
0.0117439
0.0117359
0.0117213
0.0117139
0.0117
0.0116932
0.0116798
0.0116736
0.0116607
0.011655
0.0116426
0.0116374
0.0116255
0.0116208
0.0116092
0.0116049
0.0115937
0.0115897
0.0115788
0.0115751
0.0115645
0.0115611
0.0115507
0.0115475
0.0115374
0.0115345
0.0115247
0.0115221
0.0115125
0.0115101
0.0115007
0.0114985
0.0114892
0.0114871
0.0114777
0.0114758
0.0114665
0.0114635
0.011454
0.0114171
0.0114684
0.0131122
0.0130729
0.0130298
0.012977
0.0129207
0.0128583
0.0127962
0.0127306
0.0126674
0.012602
0.0125404
0.0124774
0.0124189
0.0123593
0.0123048
0.0122493
0.012199
0.0121475
0.0121015
0.012054
0.012012
0.0119682
0.0119299
0.0118895
0.0118548
0.0118175
0.0117859
0.0117515
0.0117228
0.011691
0.011665
0.0116355
0.0116119
0.0115846
0.0115632
0.0115378
0.0115184
0.0114947
0.0114772
0.011455
0.0114392
0.0114184
0.0114041
0.0113846
0.0113716
0.0113532
0.0113415
0.0113241
0.0113135
0.011297
0.0112874
0.0112718
0.0112631
0.0112482
0.0112403
0.0112261
0.011219
0.0112054
0.011199
0.0111859
0.0111801
0.0111676
0.0111623
0.0111502
0.0111455
0.0111338
0.0111295
0.0111182
0.0111142
0.0111033
0.0110997
0.0110891
0.0110858
0.0110755
0.0110725
0.0110626
0.0110598
0.0110501
0.0110475
0.0110382
0.0110358
0.0110268
0.0110244
0.0110158
0.0110135
0.0110052
0.011003
0.0109951
0.0109928
0.0109852
0.0109829
0.0109757
0.0109732
0.0109664
0.0109638
0.0109573
0.0109543
0.0109483
0.0109458
0.010937
0.0122273
0.0122096
0.0121893
0.0121595
0.0121268
0.0120874
0.0120484
0.0120048
0.0119634
0.0119185
0.011877
0.0118327
0.0117926
0.01175
0.0117121
0.0116717
0.0116363
0.0115985
0.0115658
0.0115305
0.0115004
0.0114676
0.0114401
0.0114096
0.0113844
0.0113561
0.011333
0.0113066
0.0112855
0.0112608
0.0112415
0.0112184
0.0112008
0.0111791
0.011163
0.0111425
0.0111278
0.0111086
0.0110951
0.0110769
0.0110647
0.0110474
0.0110362
0.0110198
0.0110095
0.0109938
0.0109844
0.0109694
0.0109607
0.0109463
0.0109383
0.0109245
0.0109172
0.0109038
0.0108971
0.0108842
0.010878
0.0108655
0.0108598
0.0108477
0.0108424
0.0108307
0.0108258
0.0108145
0.0108099
0.0107989
0.0107947
0.0107839
0.01078
0.0107695
0.0107658
0.0107556
0.0107521
0.0107421
0.0107389
0.0107292
0.0107261
0.0107167
0.0107137
0.0107045
0.0107018
0.0106928
0.0106901
0.0106815
0.0106788
0.0106705
0.0106679
0.0106599
0.0106572
0.0106495
0.0106468
0.0106395
0.0106366
0.0106296
0.0106266
0.0106201
0.0106169
0.0106111
0.0106071
0.0105997
0.0116187
0.0116131
0.0116059
0.0115895
0.0115708
0.0115452
0.0115201
0.0114899
0.0114617
0.0114294
0.0114002
0.0113673
0.0113384
0.0113061
0.0112781
0.0112469
0.0112204
0.0111907
0.0111658
0.0111376
0.0111145
0.0110878
0.0110663
0.0110412
0.0110213
0.0109977
0.0109793
0.010957
0.0109401
0.010919
0.0109035
0.0108836
0.0108693
0.0108504
0.0108372
0.0108193
0.0108072
0.0107902
0.010779
0.0107628
0.0107525
0.0107371
0.0107276
0.0107128
0.0107041
0.0106899
0.0106819
0.0106683
0.0106609
0.0106478
0.010641
0.0106284
0.0106221
0.0106099
0.0106041
0.0105923
0.010587
0.0105755
0.0105706
0.0105594
0.0105549
0.010544
0.0105398
0.0105292
0.0105253
0.010515
0.0105114
0.0105013
0.010498
0.0104882
0.010485
0.0104755
0.0104725
0.0104632
0.0104603
0.0104513
0.0104486
0.0104397
0.0104371
0.0104285
0.010426
0.0104176
0.0104151
0.010407
0.0104045
0.0103967
0.0103941
0.0103866
0.010384
0.0103768
0.010374
0.0103671
0.0103642
0.0103577
0.0103549
0.0103482
0.0103414
0.0103357
0.0103642
0.0103018
0.0111857
0.0111859
0.0111856
0.0111768
0.0111662
0.0111491
0.0111326
0.0111108
0.0110911
0.0110668
0.0110455
0.0110202
0.0109986
0.0109732
0.010952
0.010927
0.0109067
0.0108825
0.0108633
0.0108401
0.0108221
0.0107999
0.0107831
0.010762
0.0107464
0.0107263
0.0107119
0.0106927
0.0106794
0.0106612
0.0106489
0.0106315
0.0106202
0.0106035
0.0105931
0.0105772
0.0105676
0.0105523
0.0105435
0.0105288
0.0105207
0.0105065
0.010499
0.0104854
0.0104785
0.0104653
0.0104589
0.0104462
0.0104403
0.0104279
0.0104225
0.0104104
0.0104055
0.0103937
0.0103892
0.0103777
0.0103735
0.0103623
0.0103585
0.0103475
0.0103439
0.0103333
0.01033
0.0103195
0.0103164
0.0103062
0.0103034
0.0102933
0.0102907
0.0102809
0.0102784
0.0102688
0.0102664
0.0102571
0.0102548
0.0102456
0.0102434
0.0102345
0.0102324
0.0102237
0.0102215
0.0102131
0.0102109
0.0102028
0.0102006
0.0101927
0.0101904
0.0101828
0.0101804
0.0101732
0.0101705
0.0101637
0.0101609
0.0101542
0.0101508
0.0101453
0.0101453
0.0101394
0.010105
0.0101506
0.0108735
0.0108763
0.0108793
0.010875
0.0108692
0.0108574
0.0108461
0.0108299
0.0108155
0.0107967
0.0107806
0.0107605
0.0107437
0.0107231
0.0107064
0.0106859
0.0106697
0.0106496
0.0106342
0.0106146
0.0106001
0.0105812
0.0105676
0.0105494
0.0105367
0.0105192
0.0105074
0.0104905
0.0104796
0.0104634
0.0104533
0.0104377
0.0104284
0.0104132
0.0104047
0.01039
0.0103822
0.010368
0.0103608
0.010347
0.0103404
0.010327
0.010321
0.0103079
0.0103025
0.0102897
0.0102848
0.0102722
0.0102678
0.0102555
0.0102515
0.0102394
0.0102359
0.010224
0.0102208
0.0102091
0.0102063
0.0101947
0.0101923
0.0101808
0.0101787
0.0101674
0.0101656
0.0101544
0.0101529
0.0101418
0.0101406
0.0101295
0.0101286
0.0101176
0.0101169
0.010106
0.0101055
0.0100947
0.0100944
0.0100837
0.0100836
0.0100729
0.0100729
0.0100624
0.0100626
0.010052
0.0100524
0.0100419
0.0100424
0.010032
0.0100325
0.0100223
0.0100229
0.0100128
0.0100134
0.0100034
0.0100039
0.00999395
0.00999527
0.00998594
0.00998552
0.00997916
0.00997578
0.00996785
0.0106393
0.0106427
0.0106475
0.0106461
0.0106432
0.0106349
0.0106269
0.0106146
0.0106035
0.0105886
0.0105758
0.0105595
0.0105459
0.010529
0.0105152
0.0104981
0.0104846
0.0104677
0.0104546
0.0104381
0.0104257
0.0104096
0.0103979
0.0103822
0.0103713
0.0103561
0.0103459
0.0103313
0.0103217
0.0103075
0.0102987
0.0102849
0.0102767
0.0102633
0.0102558
0.0102428
0.0102358
0.0102231
0.0102166
0.0102042
0.0101983
0.0101862
0.0101808
0.0101689
0.0101639
0.0101523
0.0101478
0.0101363
0.0101322
0.0101209
0.0101172
0.010106
0.0101027
0.0100917
0.0100888
0.0100778
0.0100752
0.0100644
0.0100621
0.0100514
0.0100494
0.0100387
0.010037
0.0100264
0.010025
0.0100145
0.0100133
0.0100028
0.0100018
0.00999141
0.00999068
0.0099803
0.00997978
0.00996944
0.00996911
0.00995881
0.00995866
0.0099484
0.00994841
0.0099382
0.00993835
0.00992819
0.00992848
0.00991837
0.00991877
0.00990872
0.00990921
0.00989922
0.0098998
0.00988989
0.00989055
0.00988072
0.0098813
0.0098714
0.00987255
0.0098639
0.00986681
0.00986031
0.0098285
0.00987015
0.010462
0.0104672
0.010473
0.0104731
0.0104719
0.0104658
0.0104599
0.0104501
0.0104413
0.010429
0.0104186
0.0104049
0.0103936
0.0103793
0.0103677
0.0103531
0.0103416
0.0103271
0.0103159
0.0103016
0.0102909
0.0102769
0.0102667
0.0102531
0.0102435
0.0102302
0.0102212
0.0102083
0.0101998
0.0101873
0.0101793
0.0101671
0.0101596
0.0101477
0.0101408
0.0101292
0.0101227
0.0101113
0.0101053
0.0100942
0.0100885
0.0100777
0.0100724
0.0100617
0.0100569
0.0100464
0.0100419
0.0100316
0.0100274
0.0100172
0.0100133
0.0100034
0.00999975
0.00998991
0.00998657
0.00997686
0.00997377
0.00996418
0.00996132
0.00995185
0.0099492
0.00993984
0.00993738
0.00992813
0.00992585
0.00991671
0.00991458
0.00990556
0.00990356
0.00989466
0.00989277
0.009884
0.0098822
0.00987356
0.00987183
0.00986333
0.00986165
0.00985331
0.00985164
0.00984347
0.0098418
0.00983382
0.00983211
0.00982433
0.00982256
0.00981501
0.00981315
0.00980584
0.00980385
0.00979682
0.00979464
0.00978785
0.00978572
0.00977957
0.00977581
0.00976924
0.00976781
0.00975675
0.00978086
0.0097244
0.0103261
0.0103322
0.0103384
0.0103391
0.0103389
0.0103342
0.0103298
0.0103217
0.0103146
0.0103042
0.0102955
0.0102838
0.0102742
0.0102617
0.0102518
0.0102391
0.0102292
0.0102165
0.0102067
0.0101942
0.0101847
0.0101724
0.0101634
0.0101514
0.0101428
0.010131
0.0101229
0.0101114
0.0101037
0.0100926
0.0100853
0.0100744
0.0100675
0.0100568
0.0100504
0.0100399
0.0100338
0.0100236
0.0100178
0.0100078
0.0100024
0.00999254
0.00998746
0.00997777
0.009973
0.00996347
0.00995899
0.00994959
0.00994539
0.00993613
0.00993219
0.00992306
0.00991936
0.00991034
0.00990687
0.00989796
0.0098947
0.00988589
0.00988282
0.00987411
0.00987123
0.00986262
0.0098599
0.00985138
0.00984881
0.0098404
0.00983796
0.00982964
0.00982732
0.0098191
0.00981689
0.00980878
0.00980664
0.00979865
0.00979658
0.0097887
0.00978668
0.00977894
0.00977694
0.00976934
0.00976735
0.0097599
0.0097579
0.00975062
0.00974858
0.00974148
0.00973937
0.00973248
0.00973029
0.00972362
0.00972129
0.0097148
0.00971258
0.00970667
0.0097029
0.00969649
0.00969517
0.00968412
0.00970812
0.00965261
0.0102242
0.0102302
0.0102364
0.0102375
0.010238
0.0102341
0.0102308
0.0102237
0.0102179
0.0102087
0.0102014
0.010191
0.0101828
0.0101717
0.0101631
0.0101517
0.010143
0.0101316
0.010123
0.0101117
0.0101033
0.0100922
0.0100841
0.0100732
0.0100654
0.0100548
0.0100473
0.0100369
0.0100297
0.0100196
0.0100127
0.0100028
0.00999627
0.00998659
0.00998034
0.00997087
0.0099649
0.00995563
0.00994992
0.00994086
0.00993539
0.00992651
0.00992128
0.00991258
0.00990757
0.00989904
0.00989424
0.00988587
0.00988126
0.00987306
0.00986862
0.00986057
0.00985629
0.00984839
0.00984426
0.00983651
0.0098325
0.00982491
0.009821
0.00981356
0.00980975
0.00980247
0.00979873
0.00979161
0.00978792
0.00978097
0.00977732
0.00977055
0.00976691
0.00976032
0.00975668
0.00975029
0.00974662
0.00974045
0.00973671
0.00973077
0.00972696
0.00972127
0.00971735
0.00971192
0.00970787
0.00970273
0.00969852
0.00969369
0.00968928
0.00968479
0.00968015
0.00967603
0.00967112
0.00966739
0.00966217
0.00965889
0.00965345
0.00965062
0.009644
0.00964143
0.00963617
0.00963163
0.00962768
0.00962286
0.0101491
0.0101544
0.0101605
0.0101612
0.0101621
0.0101583
0.0101557
0.010149
0.0101441
0.0101354
0.010129
0.0101192
0.010112
0.0101015
0.0100939
0.0100831
0.0100754
0.0100645
0.0100569
0.0100461
0.0100386
0.010028
0.0100207
0.0100103
0.0100033
0.00999309
0.00998637
0.00997638
0.00996993
0.00996015
0.00995397
0.00994441
0.00993847
0.00992912
0.00992342
0.00991427
0.0099088
0.00989984
0.00989459
0.00988581
0.00988076
0.00987216
0.0098673
0.00985887
0.00985419
0.00984593
0.00984142
0.00983331
0.00982895
0.00982101
0.00981678
0.00980899
0.00980488
0.00979725
0.00979325
0.00978577
0.00978187
0.00977454
0.00977071
0.00976354
0.00975977
0.00975277
0.00974904
0.0097422
0.0097385
0.00973184
0.00972815
0.00972167
0.00971797
0.00971168
0.00970795
0.00970187
0.00969808
0.00969223
0.00968837
0.00968275
0.00967879
0.00967342
0.00966933
0.00966425
0.00966
0.00965521
0.00965079
0.00964632
0.00964168
0.00963756
0.00963268
0.00962892
0.00962377
0.00962041
0.00961493
0.00961201
0.00960627
0.00960394
0.00959729
0.00959448
0.00958571
0.00958178
0.00960634
0.00955138
0.0100886
0.0100932
0.0100988
0.0100991
0.0101001
0.0100962
0.010094
0.0100874
0.0100831
0.0100747
0.0100691
0.0100595
0.0100531
0.010043
0.0100362
0.0100258
0.010019
0.0100084
0.0100017
0.00999124
0.00998466
0.00997434
0.00996797
0.00995782
0.00995169
0.00994172
0.00993584
0.00992606
0.00992041
0.00991082
0.00990539
0.00989599
0.00989078
0.00988155
0.00987654
0.00986748
0.00986266
0.00985377
0.00984913
0.00984039
0.00983592
0.00982734
0.00982302
0.00981459
0.00981042
0.00980214
0.0097981
0.00978997
0.00978605
0.00977806
0.00977424
0.0097664
0.00976268
0.00975498
0.00975135
0.00974379
0.00974023
0.00973282
0.00972931
0.00972206
0.00971859
0.00971149
0.00970805
0.00970111
0.00969768
0.00969092
0.00968748
0.00968091
0.00967744
0.00967106
0.00966755
0.00966137
0.0096578
0.00965184
0.00964819
0.00964247
0.0096387
0.00963323
0.00962934
0.00962414
0.00962009
0.00961519
0.00961095
0.00960636
0.00960191
0.00959767
0.00959298
0.0095891
0.00958413
0.00958064
0.00957538
0.00957237
0.00956663
0.00956389
0.00955858
0.00955626
0.00954647
0.00954755
0.00954693
0.00953885
0.010041
0.010045
0.0100503
0.0100501
0.0100512
0.0100472
0.0100453
0.0100388
0.010035
0.0100268
0.0100218
0.0100125
0.0100068
0.00999696
0.00999097
0.00998081
0.00997478
0.00996451
0.00995857
0.0099483
0.00994253
0.00993232
0.00992676
0.00991664
0.00991131
0.0099013
0.00989619
0.00988629
0.0098814
0.00987162
0.00986694
0.00985726
0.00985279
0.00984323
0.00983895
0.00982949
0.0098254
0.00981605
0.00981213
0.00980289
0.00979914
0.00979001
0.00978642
0.0097774
0.00977396
0.00976506
0.00976175
0.00975296
0.00974978
0.00974111
0.00973804
0.00972949
0.00972652
0.0097181
0.00971522
0.00970693
0.00970412
0.00969596
0.00969321
0.0096852
0.00968249
0.00967463
0.00967195
0.00966425
0.00966158
0.00965405
0.00965137
0.00964403
0.00964132
0.00963418
0.00963142
0.00962449
0.00962166
0.00961497
0.00961204
0.0096056
0.00960254
0.00959638
0.00959317
0.00958731
0.00958391
0.00957837
0.00957475
0.00956958
0.0095657
0.00956092
0.00955675
0.00955239
0.00954788
0.00954398
0.00953909
0.00953577
0.00953032
0.00952723
0.0095218
0.00951984
0.00951322
0.00951407
0.00948419
0.009526
0.0100072
0.0100107
0.0100153
0.0100148
0.0100155
0.0100115
0.0100095
0.0100031
0.00999927
0.00999127
0.00998627
0.00997722
0.00997158
0.0099619
0.00995597
0.00994592
0.00993994
0.0099297
0.0099238
0.00991347
0.00990771
0.00989735
0.00989178
0.00988141
0.00987607
0.00986572
0.00986062
0.00985031
0.00984548
0.00983522
0.00983065
0.00982044
0.00981615
0.009806
0.00980198
0.00979189
0.00978815
0.00977812
0.00977465
0.00976468
0.00976148
0.00975156
0.00974864
0.00973872
0.00973604
0.00972614
0.0097237
0.00971382
0.00971163
0.00970177
0.00969982
0.00968998
0.00968828
0.00967845
0.00967698
0.00966718
0.00966593
0.00965614
0.00965511
0.00964532
0.00964451
0.00963473
0.00963412
0.00962435
0.00962393
0.00961416
0.00961393
0.00960417
0.00960411
0.00959435
0.00959446
0.00958471
0.00958497
0.00957523
0.00957563
0.00956591
0.00956644
0.00955673
0.00955738
0.0095477
0.00954846
0.00953881
0.00953966
0.00953005
0.00953097
0.00952141
0.00952239
0.00951289
0.00951391
0.0095045
0.00950557
0.00949623
0.00949716
0.0094879
0.00948958
0.00948082
0.00948078
0.00947469
0.00947214
0.00946449
0.00998175
0.00998474
0.00998859
0.00998767
0.00998777
0.00998345
0.00998079
0.00997402
0.0099694
0.0099609
0.00995499
0.00994536
0.00993871
0.00992841
0.0099214
0.00991075
0.00990368
0.00989292
0.00988587
0.00987484
0.00986782
0.00985677
0.00984999
0.00983908
0.00983267
0.00982199
0.00981599
0.00980556
0.0098
0.00978982
0.00978468
0.00977474
0.00977001
0.00976027
0.00975593
0.00974637
0.00974238
0.00973298
0.00972933
0.00972005
0.00971671
0.00970754
0.00970448
0.00969544
0.00969267
0.00968373
0.00968122
0.00967236
0.0096701
0.00966129
0.00965925
0.00965048
0.00964866
0.00963992
0.00963829
0.00962957
0.00962813
0.00961942
0.00961816
0.00960945
0.00960837
0.00959966
0.00959874
0.00959003
0.00958927
0.00958056
0.00957994
0.00957124
0.00957075
0.00956205
0.0095617
0.009553
0.00955277
0.00954407
0.00954397
0.00953527
0.00953528
0.00952659
0.0095267
0.00951803
0.00951822
0.00950957