/*--------------------------------*- C++ -*----------------------------------*\
  =========                 |
  \\      /  F ield         | OpenFOAM: The Open Source CFD Toolbox
   \\    /   O peration     | Website:  https://openfoam.org
    \\  /    A nd           | Version:  8
     \\/     M anipulation  |
\*---------------------------------------------------------------------------*/
FoamFile
{
    version     2.0;
    format      ascii;
    class       volScalarField;
    location    "0.500023";
    object      epsilon;
}
// * * * * * * * * * * * * * * * * * * * * * * * * * * * * * * * * * * * * * //

dimensions      [0 2 -3 0 0 0 0];

internalField   nonuniform List<scalar> 
6800
(
3651.62
10387.8
9608.95
8017.32
6287.42
4326.28
2604.76
1311.08
701.81
429.766
2798.67
8821.03
8190.38
7115.54
4964.22
2738.1
1346.58
717.9
404.041
274.146
2849.52
6851.69
6956.72
5957.64
3442.28
1660.91
857.104
459.925
269.196
168.107
2954.06
6358.35
6530.45
5063.47
2357.38
1090.18
507.954
283.149
176.192
127.259
2999.97
6093.34
6130.71
3768.49
1537.5
665.845
357.762
220.74
144.528
105.61
3070.58
6118.78
5832.76
2780.52
1076.67
514.506
275.932
162.643
110.428
87.6221
3105.92
6566.29
5295.81
1827.02
741.23
359.557
205.714
138.571
99.8118
81.9871
3154.42
6950.58
4382.62
1493.29
623.222
313.023
183.951
117.742
85.222
72.6508
3178.24
7456.74
3648.88
1087.3
452.207
240.31
146.276
102.791
80.8109
70.0495
3209.98
7767.57
2840.8
946.84
410.144
223.31
138.016
96.2757
73.472
64.5453
97836.3
39581.6
26342.9
21729.6
22457.7
24543.7
26903.5
28858.2
29877.1
30131.6
91824.3
37952.8
25826.1
22748.9
24893
28708.1
32815.3
36391
38928.4
39908.5
90364.6
37557.3
25212
24984
29772.8
36054.1
41396.7
44790.1
46345.8
46215.3
85029.7
37171.6
27029.9
30314.8
38429.4
45495.9
48633.1
48296.3
47148.3
43462.9
82717
39271.1
34007
42840.6
51502
52718.3
50791.1
45762.6
40563.7
30414.5
82569.4
47692.3
51529.7
60700.4
58979.4
53684.1
44378
31439
23191.6
13162.4
81075.2
65172.4
71585.5
65779.3
55361.8
36510.4
22031.4
13036.1
9210.98
5487.92
84527.9
80844.8
66110.6
48821.6
25329.2
14868.6
9599.14
6292.45
4749.83
2850.87
18136.2
46330.4
34986.7
18828.9
11728.2
8064.78
5627.04
3940.58
2970.15
1694.52
10817
22835.4
16744.5
11083.5
7972.8
5745.33
4033.76
2766.97
1595.27
797.78
29154
26465.2
23829.3
21469.9
19466.3
17791.7
16382.1
15183.7
14154.7
13262.5
12482
11792.5
11178.1
10626.4
10127.4
9673.21
9257.41
8874.83
8521.26
8193.16
7887.65
7602.25
7334.95
7083.92
6847.75
6625.24
6415.24
6216.68
6028.62
5850.2
5680.65
5519.33
5365.62
5219.02
5079.02
4945.23
4817.24
4694.73
4577.37
4464.9
4357.03
4253.53
4154.15
4058.66
3966.86
3878.54
3793.5
3711.56
3632.55
3556.28
3482.62
3411.4
3342.5
3275.8
3211.17
3148.53
3087.78
3028.84
2971.64
2916.1
2862.18
2809.81
2758.93
2709.51
2661.48
2614.8
2569.42
2525.3
2482.39
2440.64
2400.02
2360.49
2321.99
2284.5
2247.97
2212.38
2177.68
2143.86
2110.88
2078.72
2047.35
2016.74
1986.89
1957.74
1929.33
1901.56
1874.53
1848.03
1822.35
1796.98
1772.65
1748.25
1725.35
1701.58
1680.42
1656.72
1637.84
1613.34
1597.04
1567.35
38823.1
34987.8
31226.3
27997.1
25290.6
23015
21099.8
19467.4
18067
16857.3
15802.3
14873.2
14047.8
13308.4
12641.4
12035.8
11482.7
10974.9
10506.6
10073.1
9670.18
9294.62
8943.65
8614.68
8306.36
8017.03
7744.67
7487.68
7244.73
7014.66
6796.49
6589.31
6392.34
6204.84
6026.18
5855.76
5693.05
5537.59
5388.92
5246.71
5110.51
4979.96
4854.74
4734.57
4619.19
4508.34
4401.77
4299.24
4200.54
4105.44
4013.74
3925.26
3839.83
3757.28
3677.47
3600.27
3525.57
3453.24
3383.19
3315.33
3249.57
3185.82
3124.02
3064.1
3005.98
2949.59
2894.88
2841.76
2790.19
2740.09
2691.42
2644.11
2598.12
2553.4
2509.89
2467.55
2426.35
2386.24
2347.18
2309.13
2272.08
2235.96
2200.8
2166.49
2133.1
2100.48
2068.79
2037.73
2007.68
1978.02
1949.6
1921.11
1894.42
1866.73
1842.12
1814.55
1792.66
1764.2
1745.42
1710.94
45070
41328.6
37167
33558.6
30496.8
27883.2
25650.2
23759.7
22137.8
20727.2
19488
18388.8
17405.9
16520.3
15717.3
14984.3
14311.3
13690.2
13114.4
12578.7
12078.7
11610.8
11171.8
10759.4
10370.6
10003.3
9656.13
9327.71
9016.72
8721.97
8442.25
8176.5
7923.71
7683
7453.55
7234.65
7025.6
6825.86
6634.79
6452.14
6276.82
6108.5
5947.02
5792.12
5643.51
5500.84
5363.79
5232.05
5105.32
4983.3
4865.75
4752.41
4643.06
4537.51
4435.56
4337.05
4241.81
4149.7
4060.58
3974.34
3890.83
3810.01
3731.78
3656.02
3582.61
3511.46
3442.46
3375.54
3310.6
3247.57
3186.38
3126.95
3069.22
3013.12
2958.59
2905.57
2854.01
2803.84
2755.02
2707.51
2661.27
2616.24
2572.43
2529.73
2488.21
2447.67
2408.33
2369.78
2332.54
2295.78
2260.63
2225.36
2192.41
2158.17
2127.85
2093.81
2066.9
2031.83
2008.9
1966.49
41643.4
38464.4
35192.3
32278.3
29769.2
27596.6
25703.2
24040.8
22585.1
21303.7
20168.5
19153.7
18240.3
17412.1
16657.3
15962.8
15319.7
14721
14161.3
13636.4
13142.8
12677.8
12238.9
11824
11431.3
11059
10705.5
10369.7
10050.1
9745.65
9455.32
9178.24
8913.53
8660.41
8418.19
8186.17
7963.78
7750.36
7545.68
7348.73
7160.37
6979.96
6806.73
6640.12
6479.68
6325.04
6175.86
6031.83
5892.69
5758.18
5628.07
5502.15
5380.22
5262.11
5147.65
5036.69
4929.08
4824.69
4723.41
4625.11
4529.71
4437.05
4347.02
4259.56
4174.6
4092.05
4011.86
3933.93
3858.2
3784.59
3713.03
3643.43
3575.75
3509.89
3445.83
3383.43
3322.64
3263.43
3205.77
3149.61
3094.93
3041.64
2989.78
2939.19
2889.99
2841.91
2795.26
2749.48
2705.29
2661.57
2619.85
2577.83
2538.73
2497.87
2461.9
2421.24
2389.36
2347.49
2320.19
2269.75
27226
24053.8
21572.9
19706.4
18303.2
17234.3
16390.6
15709.2
15143.7
14662.5
14240.7
13861.3
13516.9
13198.1
12900.6
12604.2
12311.4
12022.6
11739.6
11463.2
11194
10932.3
10678.3
10432
10193.3
9962.11
9737.99
9520.93
9310.25
9106.1
8907.65
8715.21
8528.14
8346.48
8169.63
7997.04
7828.56
7664.2
7503.77
7347.56
7194.91
7046.04
6901.01
6759.84
6622.43
6488.71
6358.53
6231.81
6108.39
5988.13
5870.93
5756.7
5645.34
5536.73
5430.8
5327.41
5226.53
5128.06
5031.94
4938.11
4846.53
4757.13
4669.87
4584.67
4501.51
4420.33
4341.07
4263.7
4188.17
4114.43
4042.42
3972.13
3903.47
3836.45
3770.94
3707.06
3644.75
3583.91
3524.53
3466.5
3409.85
3354.45
3300.39
3247.46
3195.88
3145.26
3096.09
3047.6
3000.79
2954.19
2909.82
2864.76
2823.02
2778.93
2740.46
2696.37
2662.16
2616.72
2587.06
2532.39
11483.3
9976.62
8852
8015.91
7381.31
6899.74
6525.18
6237.13
6014.08
5842.89
5713.28
5614.35
5544.58
5499.35
5463.03
5459.51
5471.91
5502.96
5548.44
5601.63
5658.45
5716.07
5773.02
5827.5
5878.03
5923.81
5963.57
5997.38
6023.96
6044.33
6056.92
6063.52
6061.65
6052.98
6035.51
6008.4
5974.93
5936.21
5893.05
5846.37
5796.72
5744.7
5690.69
5635.09
5578.12
5520.09
5461.05
5401.35
5340.81
5279.71
5218.21
5156.42
5094.32
5031.82
4969.08
4906.05
4842.95
4779.67
4716.53
4653.57
4590.82
4528.38
4466.32
4404.73
4343.67
4283.19
4223.34
4164.16
4105.67
4047.91
3990.88
3934.62
3879.12
3824.39
3770.46
3717.26
3664.84
3613.19
3562.35
3512.28
3463.05
3414.55
3366.93
3319.98
3274
3228.53
3184.22
3140.14
3097.55
3054.7
3013.98
2972.08
2933.51
2892.04
2856.29
2814.45
2782.43
2739.13
2710.77
2658.84
4938.54
4363.74
3892.22
3511
3197.5
2938.31
2720.54
2537.29
2383.5
2252.98
2144.54
2052.79
1977.14
1914.74
1864.14
1825.1
1795.21
1778.12
1765.08
1766.5
1773.24
1788.86
1813.04
1843.65
1880.74
1923.57
1971.53
2024.6
2081.24
2142.28
2205.45
2272.62
2340.42
2412.47
2488.47
2567.33
2647.68
2728.66
2809.11
2888.3
2965.3
3039.5
3110.22
3177
3239.41
3297.12
3349.94
3397.71
3440.4
3477.95
3510.29
3537.73
3559.36
3575.61
3587.1
3594.18
3597.39
3596.6
3593.58
3587.85
3578.94
3567.85
3554.76
3539.89
3523.4
3505.45
3486.17
3465.69
3444.11
3421.55
3398.07
3373.8
3348.72
3322.95
3296.51
3269.47
3241.97
3213.93
3185.59
3156.81
3127.86
3098.6
3069.26
3039.72
3010.28
2980.57
2951.21
2921.41
2892.37
2862.49
2834.03
2803.96
2776.41
2745.87
2719.83
2688.37
2664.6
2631.66
2609.48
2569.64
2584.59
2292.63
2040.04
1826.01
1641.6
1481.22
1342.4
1222.76
1119
1028.76
950.868
881.554
820.584
766.859
720.373
679.489
644.567
614.03
588.225
565.799
547.576
532.035
520.249
510.787
504.711
500.714
499.891
501.239
504.815
510.657
519.594
530.947
544.701
561.11
580.168
602.237
627.255
655.624
687.054
721.936
759.855
801.171
845.389
892.696
942.536
994.959
1049.39
1105.73
1163.47
1222.33
1282.07
1342.18
1403.33
1465.16
1526.93
1588.3
1648.66
1707.75
1765.05
1820.39
1873.29
1923.7
1971.26
2016.02
2057.7
2096.44
2132.06
2164.75
2194.4
2221.13
2245.02
2266.1
2284.18
2299.62
2312.53
2323.14
2331.71
2338.24
2343.2
2346.27
2348.24
2348.31
2347.51
2345.82
2342.67
2338.59
2333.6
2327.71
2321.21
2313.67
2305.93
2296.84
2288.16
2277.5
2268.27
2256.06
2246.56
2232.8
2222.57
2204.77
1525.58
1338.34
1171.85
1027.77
903.613
797.422
706.287
628.906
562.031
505.629
455.881
414.422
379.496
349.621
323.943
301.607
282.166
265.028
249.982
236.583
224.753
214.139
204.749
196.284
188.812
182.071
176.166
170.846
166.27
162.178
158.769
155.793
153.464
151.551
150.282
149.476
149.595
149.948
151.309
152.693
155.003
158.4
162.42
167.648
173.596
180.898
189.024
198.647
209.219
221.452
234.776
249.951
266.289
284.683
304.294
326.121
349.168
374.518
401.033
429.832
459.678
491.697
524.56
559.412
594.823
631.973
669.33
708.131
746.735
786.491
825.638
865.633
905.042
945.056
983.987
1023.12
1060.73
1098.23
1133.81
1169.07
1202.07
1234.68
1264.71
1294.37
1321.24
1347.81
1371.42
1394.9
1415.27
1435.76
1452.95
1470.59
1484.74
1499.71
1510.65
1523.22
1531.44
1541.92
1546.58
1557.75
687.098
585.886
505.96
442.989
392.519
351.296
317.001
288.096
263.405
242.12
223.582
207.336
193.02
180.348
169.077
159.017
149.997
141.887
134.56
127.926
121.889
116.393
111.359
106.755
102.515
98.6217
95.0182
91.7016
88.6152
85.7729
83.1118
80.6654
78.356
76.2478
74.229
72.4016
70.6691
69.1138
67.5894
66.2703
64.958
63.8572
62.7733
61.9155
61.0883
60.4973
59.9581
59.6439
59.4468
59.5023
59.7169
59.9485
60.6433
61.2884
62.2511
63.6613
65.0507
67.2678
69.1557
72.2972
74.9276
79.041
82.5761
87.8056
92.3936
98.9022
104.689
112.639
119.758
129.307
137.905
149.203
159.401
172.584
184.473
199.637
213.256
230.444
245.763
264.955
281.867
302.971
321.286
344.136
363.577
387.945
408.16
433.774
454.352
480.92
501.426
528.671
548.647
576.402
595.608
623.65
641.539
669.46
687.827
718.775
273.654
256.326
239.331
223.001
207.476
192.965
179.579
167.347
156.235
146.173
137.08
128.864
121.436
114.71
108.61
103.066
98.0128
93.4002
89.1681
85.2835
81.7027
78.4041
75.3485
72.5244
69.8949
67.4572
65.1756
63.0549
61.0592
59.2005
57.4413
55.8014
54.2397
52.7845
51.3893
50.0923
48.8385
47.6769
46.5458
45.502
44.4772
43.5364
42.6046
41.7553
40.9057
40.1391
39.3631
38.6727
37.9636
37.3449
36.6979
36.1485
35.5595
35.0776
34.5465
34.1313
33.6625
33.3145
32.9153
32.637
32.317
32.1112
31.8809
31.7575
31.635
31.6095
31.6311
31.7136
31.8333
32.1325
32.3713
32.9102
33.3024
34.1415
34.7144
35.9347
36.7293
38.4236
39.4815
41.7559
43.1387
46.0971
47.8769
51.6263
53.8599
58.5372
61.2911
67.0128
70.3333
77.2131
81.1327
89.2622
93.839
103.292
108.614
119.099
125.423
136.603
145.419
159.747
170.416
159.776
149.616
140.021
131.202
123.141
115.81
109.143
103.092
97.5837
92.5725
87.9954
83.815
79.979
76.4602
73.2152
70.2254
67.4546
64.8963
62.5213
60.3177
58.2623
56.3463
54.5514
52.8705
51.2898
49.8028
48.3999
47.0743
45.8202
44.6302
43.5019
42.4274
41.4066
40.4314
39.5036
38.6145
37.7678
36.9537
36.1783
35.4297
34.7171
34.0261
33.369
32.7286
32.1206
31.5248
30.9606
30.4043
29.8794
29.3583
28.8686
28.3789
27.9213
27.4601
27.0316
26.5963
26.1948
25.7837
25.4077
25.0193
24.6706
24.306
23.9836
23.6412
23.344
23.0229
22.7522
22.4524
22.2074
21.9296
21.7099
21.453
21.2567
21.021
20.8471
20.6341
20.4818
20.2973
20.1674
20.0225
19.9206
19.8264
19.7533
19.7342
19.7571
19.7743
19.86
19.9278
20.1301
20.2709
20.5664
20.8739
21.2926
21.7447
22.2101
23.1217
23.4466
23.7491
25.9991
114.694
109.211
103.94
98.9005
94.1338
89.6457
85.45
81.5274
77.8783
74.4754
71.3153
68.3683
65.631
63.0741
60.6962
58.4694
56.3947
54.4458
52.6265
50.9114
49.3068
47.7886
46.3652
45.0135
43.7439
42.5341
41.3958
40.3074
39.2821
38.2984
37.3706
36.4776
35.6345
34.8205
34.0513
33.3061
32.6015
31.9167
31.269
30.6374
30.0399
29.4551
28.9022
28.3591
27.8459
27.34
26.8623
26.3895
25.9438
25.5008
25.0838
24.6677
24.2767
23.8847
23.5174
23.1473
22.8015
22.4512
22.1251
21.7928
21.4848
21.169
20.8776
20.5768
20.3009
20.0139
19.7523
19.478
19.2299
18.9672
18.7317
18.4799
18.2563
18.0144
17.8022
17.5694
17.368
17.1437
16.9527
16.7362
16.5554
16.3463
16.1753
15.9745
15.8143
15.6218
15.4731
15.2888
15.1518
14.9756
14.8514
14.6833
14.573
14.4144
14.3175
14.1688
14.09
13.9493
13.8716
13.7425
82.6643
79.5537
76.4764
73.439
70.4864
67.6396
64.927
62.3476
59.9155
57.6193
55.4667
53.4404
51.5458
49.763
48.0971
46.5274
45.0598
43.6734
42.3755
41.1454
39.9922
38.8952
37.8652
36.8818
35.9572
35.0709
34.2368
33.434
32.6781
31.9477
31.2596
30.592
29.9631
29.3502
28.7729
28.2077
27.6757
27.1524
26.6602
26.1736
25.7166
25.2625
24.8367
24.4116
24.0138
23.6144
23.2419
22.8657
22.5159
22.1606
21.8315
21.4951
21.1849
20.8656
20.5727
20.2689
19.992
19.7023
19.4401
19.1633
18.9146
18.6497
18.4136
18.1595
17.9352
17.691
17.4777
17.2427
17.0397
16.8133
16.6201
16.4015
16.2175
16.0063
15.831
15.6266
15.4597
15.2615
15.1025
14.9101
14.7587
14.5715
14.4275
14.2451
14.1081
13.93
13.7999
13.6258
13.5024
13.332
13.2152
13.0481
12.938
12.7748
12.6712
12.5109
12.4148
12.2585
12.1894
11.9531
63.6869
61.8063
59.9117
58.0047
56.122
54.2798
52.5034
50.7926
49.162
47.604
46.1284
44.7234
43.3969
42.1348
40.9444
39.8108
38.7417
37.7213
36.7586
35.8373
34.9672
34.132
33.3425
32.582
31.8625
31.1669
30.5085
29.8694
29.2643
28.6747
28.1163
27.5702
27.0531
26.5453
26.0649
25.5911
25.1434
24.7001
24.2817
23.8657
23.4738
23.0823
22.7144
22.345
21.999
21.6497
21.3235
20.9925
20.6846
20.3702
20.0789
19.7798
19.5039
19.2187
18.9571
18.6847
18.4363
18.1757
17.9397
17.6899
17.4654
17.2257
17.0121
16.7816
16.5781
16.3563
16.1624
15.9485
15.7637
15.5572
15.3809
15.1813
15.0131
14.8199
14.6595
14.4722
14.3192
14.1374
13.9914
13.8148
13.6756
13.5037
13.371
13.2035
13.0772
12.9137
12.7935
12.6338
12.5194
12.3631
12.2545
12.1014
11.9984
11.8479
11.7505
11.6029
11.5089
11.365
11.3011
11.0815
52.2693
51.0371
49.7786
48.488
47.195
45.9091
44.6536
43.4266
42.2442
41.0993
40.0046
38.9499
37.9459
36.9803
36.0632
35.181
34.3439
33.5375
32.7725
32.034
31.3332
30.6549
30.0113
29.3864
28.7933
28.2158
27.6678
27.1323
26.6242
26.1261
25.6537
25.1889
24.7484
24.3132
23.9013
23.4928
23.1066
22.7222
22.3594
21.9966
21.6551
21.312
20.9899
20.6649
20.3606
20.0519
19.764
19.4704
19.1976
18.9177
18.6589
18.3917
18.1457
17.8902
17.6562
17.4114
17.1887
16.9538
16.7416
16.5159
16.3135
16.0963
15.9032
15.694
15.5097
15.3078
15.1317
14.9367
14.7685
14.5798
14.4191
14.2363
14.0827
13.9055
13.7587
13.5867
13.4463
13.2791
13.145
12.9823
12.8542
12.6956
12.5734
12.4186
12.302
12.1509
12.0397
11.8919
11.786
11.6412
11.5405
11.3985
11.3028
11.163
11.072
10.9356
10.8513
10.7172
10.6263
10.4762
45.3156
44.4258
43.5106
42.5602
41.5988
40.6318
39.6798
38.7393
37.8259
36.9324
36.0719
35.2345
34.4321
33.6532
32.9091
32.187
31.4983
30.8293
30.192
29.5719
28.9813
28.4055
27.8573
27.3214
26.8114
26.3114
25.8357
25.368
24.9234
24.4848
24.0682
23.6559
23.2648
22.8763
22.5083
22.1414
21.7945
21.4473
21.1197
20.7905
20.4807
20.168
19.8744
19.5768
19.2984
19.0147
18.7503
18.4794
18.228
17.969
17.7297
17.4817
17.2537
17.0159
16.7985
16.5702
16.3627
16.1431
15.9451
15.7337
15.5445
15.3408
15.1599
14.9633
14.7904
14.6004
14.435
14.2513
14.0931
13.9151
13.7638
13.5912
13.4464
13.279
13.1405
12.9777
12.8452
12.6869
12.5602
12.4061
12.285
12.1346
12.019
11.8722
11.7618
11.6183
11.513
11.3726
11.2722
11.1347
11.0391
10.9042
10.8133
10.6805
10.594
10.4643
10.3842
10.2571
10.1702
10.0273
40.9339
40.2274
39.4996
38.7385
37.9649
37.1807
36.4045
35.6315
34.8766
34.132
33.4113
32.7044
32.0241
31.3587
30.7205
30.0969
29.5001
28.9167
28.3593
27.8137
27.2929
26.7821
26.295
25.8161
25.3599
24.9102
24.4822
24.0591
23.6568
23.2579
22.8791
22.5024
22.1451
21.7886
21.451
21.113
20.7937
20.4726
20.1701
19.8647
19.5776
19.2867
19.014
18.7364
18.4771
18.2118
17.9649
17.7111
17.4759
17.2327
17.0084
16.775
16.561
16.3368
16.1324
15.9167
15.7214
15.5137
15.3269
15.1267
14.9481
14.7549
14.5838
14.3972
14.2335
14.0529
13.8962
13.7214
13.5713
13.4018
13.2581
13.0937
12.956
12.7963
12.6645
12.5092
12.383
12.2318
12.111
11.9637
11.8482
11.7044
11.594
11.4536
11.3481
11.2108
11.11
10.9756
10.8795
10.7478
10.6563
10.527
10.4399
10.3127
10.2301
10.1053
10.0251
9.90341
9.84936
9.66251
38.0258
37.4224
36.8013
36.1503
35.4877
34.8133
34.1439
33.4741
32.8179
32.1675
31.5358
30.9132
30.3122
29.7215
29.1534
28.5957
28.0609
27.5356
27.0327
26.5383
26.0657
25.6001
25.1557
24.7169
24.2986
23.8845
23.4903
23.0989
22.7269
22.3564
22.0048
21.6535
21.3208
20.9872
20.6718
20.3546
20.0554
19.7532
19.469
19.1807
18.9104
18.6351
18.3778
18.1145
17.8693
17.6172
17.3834
17.1416
16.9185
16.6864
16.4733
16.2503
16.0466
15.832
15.6372
15.4306
15.2442
15.045
14.8666
14.6743
14.5035
14.3177
14.1541
13.9744
13.8177
13.6437
13.4935
13.3249
13.1811
13.0175
12.8796
12.7208
12.5887
12.4343
12.3078
12.1575
12.0363
11.89
11.774
11.6313
11.5203
11.381
11.2748
11.1387
11.0372
10.9041
10.8072
10.6768
10.5843
10.4565
10.3684
10.243
10.1591
10.0355
9.95569
9.83502
9.76093
9.64259
9.56226
9.42919
36.0038
35.462
34.905
34.3221
33.729
33.1247
32.5239
31.9214
31.3299
30.7419
30.1695
29.6038
29.0563
28.5166
27.9965
27.4844
26.9922
26.5075
26.0427
25.5844
25.1457
24.7124
24.2982
23.8882
23.4969
23.1086
22.7386
22.3704
22.0202
21.6706
21.3386
21.0062
20.6913
20.3748
20.0756
19.7739
19.4894
19.2014
18.9307
18.6554
18.3975
18.134
17.8881
17.6357
17.4011
17.159
16.9349
16.7025
16.4884
16.265
16.0603
15.8453
15.6495
15.4424
15.2549
15.0553
14.8758
14.6831
14.5112
14.325
14.1602
13.9802
13.8223
13.648
13.4967
13.3279
13.1828
13.0191
12.88
12.721
12.5877
12.4333
12.3055
12.1553
12.0328
11.8865
11.7692
11.6267
11.5143
11.3753
11.2677
11.132
11.029
10.8964
10.798
10.6682
10.5741
10.447
10.3572
10.2326
10.147
10.0247
9.94311
9.82283
9.74534
9.62725
9.55195
9.43691
9.38583
9.20944
34.5527
34.0488
33.5324
32.9932
32.4457
31.8878
31.3331
30.776
30.2286
29.6835
29.1522
28.6259
28.1159
27.6122
27.126
26.6463
26.1847
25.7291
25.2917
24.8596
24.4455
24.0357
23.6437
23.2549
22.8835
22.5143
22.1623
21.8113
21.4773
21.1433
20.8261
20.5079
20.2064
19.9028
19.6159
19.3259
19.0527
18.7754
18.515
18.2495
18.0011
17.7467
17.5095
17.2654
17.0389
16.8045
16.588
16.3626
16.1556
15.9387
15.7406
15.5316
15.3421
15.1405
14.959
14.7645
14.5906
14.4026
14.236
14.0542
13.8946
13.7186
13.5656
13.395
13.2484
13.083
12.9425
12.7819
12.6472
12.4911
12.3621
12.2103
12.0867
11.9388
11.8205
11.6764
11.5631
11.4225
11.3142
11.1767
11.0732
10.9388
10.84
10.7084
10.6141
10.4851
10.3952
10.2687
10.1831
10.0588
9.97747
9.85523
9.77794
9.65726
9.58477
9.4669
9.39839
9.28499
9.20863
9.08059
33.4774
32.9976
32.5073
31.9971
31.4802
30.954
30.431
29.9057
29.3891
28.8744
28.3723
27.8744
27.3914
26.9139
26.4524
25.9966
25.5574
25.1236
24.7065
24.2941
23.8983
23.5064
23.131
22.7584
22.402
22.0475
21.7091
21.3716
21.0499
20.7282
20.4222
20.1152
19.8239
19.5305
19.253
18.9724
18.7078
18.4392
18.1866
17.9292
17.688
17.441
17.2105
16.9733
16.753
16.5249
16.3142
16.0947
15.893
15.6816
15.4885
15.2847
15.0997
14.903
14.7258
14.5358
14.366
14.1823
14.0195
13.8417
13.6856
13.5134
13.3638
13.1968
13.0533
12.8913
12.7538
12.5964
12.4645
12.3115
12.1851
12.0362
11.9151
11.7701
11.6541
11.5126
11.4016
11.2635
11.1573
11.0224
10.9208
10.7888
10.6918
10.5626
10.47
10.3433
10.255
10.1307
10.0466
9.92444
9.84458
9.72441
9.64849
9.52983
9.45861
9.34273
9.27537
9.16393
9.08875
8.96293
32.659
32.1948
31.7218
31.2314
30.736
30.2321
29.7319
29.2294
28.7355
28.243
27.7626
27.2858
26.8232
26.3652
25.9226
25.4849
25.063
24.6458
24.2445
23.8474
23.466
23.088
22.7256
22.3657
22.0213
21.6785
21.3509
21.024
20.7122
20.4002
20.1032
19.8051
19.522
19.2369
18.9669
18.6939
18.4361
18.1744
17.9282
17.6772
17.4418
17.2007
16.9756
16.7439
16.5285
16.3056
16.0993
15.8847
15.6872
15.4803
15.291
15.0914
14.91
14.7173
14.5434
14.3571
14.1903
14.0102
13.8502
13.6758
13.5224
13.3533
13.2062
13.0422
12.9011
12.7419
12.6065
12.4519
12.322
12.1716
12.0472
11.9007
11.7814
11.6387
11.5245
11.3853
11.2758
11.1399
11.0352
10.9024
10.8023
10.6723
10.5766
10.4493
10.358
10.2332
10.1461
10.0236
9.94067
9.82022
9.74144
9.62294
9.54807
9.43103
9.36079
9.24646
9.1801
9.07004
8.99608
8.87178
32.025
31.5709
31.1097
30.633
30.1531
29.6655
29.1823
28.6967
28.22
27.7443
27.2807
26.82
26.3733
25.9306
25.5028
25.0793
24.6712
24.2671
23.8785
23.4933
23.1236
22.7566
22.4049
22.055
21.7203
21.3867
21.068
20.7494
20.4458
20.1414
19.8519
19.5608
19.2844
19.0057
18.7419
18.4748
18.2227
17.9665
17.7254
17.4794
17.2487
17.0123
16.7916
16.5642
16.3528
16.1338
15.9313
15.7203
15.5262
15.3228
15.1367
14.9403
14.7618
14.5721
14.4009
14.2175
14.0533
13.8757
13.7182
13.5462
13.395
13.2283
13.0832
12.9215
12.7823
12.6252
12.4917
12.339
12.2109
12.0624
11.9395
11.7949
11.6771
11.5361
11.4233
11.2857
11.1777
11.0433
10.9399
10.8086
10.7097
10.5811
10.4866
10.3607
10.2705
10.1469
10.0609
9.93965
9.85776
9.73854
9.6607
9.5434
9.46942
9.35352
9.28411
9.17094
9.10537
8.99635
8.92334
8.80014
31.5347
31.0869
30.6337
30.1665
29.698
29.2225
28.7522
28.2795
27.8161
27.3535
26.903
26.455
26.0209
25.5903
25.1744
24.7621
24.365
23.9713
23.5929
23.2173
22.8569
22.4986
22.1553
21.8135
21.4865
21.1601
20.8484
20.5365
20.2391
19.9408
19.657
19.3714
19.1003
18.8265
18.5674
18.3049
18.057
17.805
17.5678
17.3256
17.0986
16.8657
16.6482
16.424
16.2156
15.9996
15.7998
15.5916
15.4001
15.1992
15.0154
14.8214
14.6451
14.4576
14.2884
14.1071
13.9447
13.7692
13.6133
13.4432
13.2936
13.1287
12.9851
12.825
12.6872
12.5317
12.3995
12.2483
12.1215
11.9744
11.8527
11.7094
11.5928
11.4531
11.3413
11.205
11.0979
10.9648
10.8623
10.7322
10.6341
10.5067
10.413
10.2882
10.1987
10.0763
9.99102
9.8708
9.78957
9.67139
9.59415
9.47781
9.40462
9.28998
9.22007
9.10729
9.04342
8.93046
8.88153
8.71725
31.1734
30.7288
30.2802
29.8193
29.3585
28.8914
28.4302
27.9669
27.5132
27.0601
26.6192
26.1805
25.7557
25.3338
24.9266
24.5225
24.1334
23.7471
23.3759
23.0071
22.6532
22.301
21.9637
21.6273
21.3056
20.984
20.6771
20.3695
20.0764
19.782
19.502
19.2199
18.9522
18.6817
18.4256
18.166
17.9209
17.6715
17.4369
17.1972
16.9724
16.7418
16.5265
16.3044
16.0979
15.884
15.686
15.4797
15.2898
15.0907
14.9085
14.7162
14.5413
14.3555
14.1876
14.0079
13.8467
13.6728
13.518
13.3495
13.2009
13.0375
12.8948
12.7362
12.5993
12.4453
12.3139
12.1641
12.038
11.8923
11.7713
11.6295
11.5135
11.3752
11.2639
11.129
11.0225
10.8907
10.7887
10.6598
10.5622
10.4362
10.3429
10.2193
10.1303
10.0091
9.92415
9.80516
9.72427
9.60729
9.53037
9.41519
9.34232
9.22881
9.15924
9.04755
8.98401
8.87206
8.82357
8.66055
30.9132
30.4693
30.0223
29.5644
29.1076
28.6454
28.1894
27.7316
27.2835
26.8362
26.4008
25.9676
25.5479
25.131
24.7285
24.3287
23.9438
23.5614
23.1939
22.8284
22.4778
22.1283
21.7938
21.4597
21.1404
20.821
20.5161
20.2104
19.9193
19.6266
19.3485
19.068
18.8022
18.5333
18.279
18.021
17.7778
17.5301
17.2972
17.0592
16.8362
16.6073
16.3936
16.1732
15.9683
15.7559
15.5594
15.3547
15.1662
14.9688
14.7879
14.5973
14.4237
14.2396
14.073
13.8951
13.7351
13.5629
13.4093
13.2427
13.0951
12.9336
12.7919
12.6354
12.4993
12.3473
12.2166
12.069
11.9434
11.7999
11.6794
11.5398
11.4241
11.2881
11.177
11.0446
10.938
10.8087
10.7065
10.5803
10.4823
10.359
10.2651
10.1445
10.0546
9.9365
9.85051
9.73474
9.65257
9.53898
9.46054
9.34902
9.27424
9.16433
9.09307
8.98566
8.91951
8.81419
8.74228
8.62372
30.6989
30.2547
29.8081
29.3515
28.8965
28.4364
27.9821
27.526
27.0789
26.6324
26.1972
25.7643
25.3442
24.9273
24.5241
24.1244
23.7389
23.3568
22.9888
22.6223
22.2706
21.9201
21.5848
21.2504
20.9311
20.6121
20.3082
20.0038
19.7145
19.4238
19.1482
18.8703
18.6075
18.3416
18.0908
17.8361
17.5965
17.3522
17.1231
16.8886
16.6694
16.444
16.2342
16.0174
15.8166
15.6079
15.4154
15.2143
15.0297
14.8356
14.6586
14.4712
14.3013
14.1201
13.957
13.7817
13.625
13.4553
13.3049
13.1404
12.9959
12.8364
12.6975
12.5428
12.4094
12.259
12.1309
11.9847
11.8616
11.7195
11.6012
11.4628
11.3493
11.2144
11.1055
10.9739
10.8693
10.741
10.6407
10.5153
10.4191
10.2965
10.2043
10.0844
9.99614
9.87864
9.79421
9.67903
9.59832
9.4853
9.40821
9.29726
9.22368
9.11446
9.04451
8.93722
8.86911
8.76454
8.71812
8.55803
30.5432
30.0916
29.6343
29.1637
28.6932
28.2159
27.745
27.2721
26.8106
26.3506
25.9052
25.4634
25.0381
24.617
24.2133
23.8137
23.4315
23.0528
22.6916
22.3344
21.9937
21.6556
21.3332
21.0119
20.7058
20.3997
20.1084
19.8159
19.5381
19.2582
18.9928
18.7244
18.4706
18.213
17.9699
17.7223
17.4895
17.2513
17.028
16.7987
16.5846
16.3636
16.1581
15.945
15.7477
15.542
15.3526
15.154
14.9721
14.7802
14.6054
14.4198
14.2519
14.0723
13.911
13.737
13.582
13.4134
13.2645
13.1009
12.9578
12.799
12.6616
12.5073
12.3753
12.2253
12.0985
11.9526
11.8308
11.6888
11.5718
11.4334
11.3212
11.1862
11.0786
10.9468
10.8436
10.7148
10.616
10.49
10.3955
10.2721
10.1817
10.0607
9.97436
9.85573
9.7733
9.65679
9.57824
9.46368
9.38897
9.27621
9.20515
9.09374
9.027
8.91808
8.85491
8.75001
8.67968
8.56128
30.0097
29.5375
29.0731
28.6079
28.1525
27.6982
27.2556
26.8154
26.3883
25.9642
25.5541
25.1472
24.7547
24.3652
23.9901
23.6175
23.2592
22.9029
22.5608
22.2198
21.8929
21.5665
21.2541
20.9413
20.6424
20.3425
20.0565
19.7687
19.4948
19.2184
18.956
18.6904
18.4389
18.1834
17.9422
17.6963
17.4649
17.2282
17.0062
16.778
16.5649
16.3449
16.1403
15.928
15.7315
15.5265
15.3378
15.1398
14.9585
14.767
14.5928
14.4077
14.2403
14.061
13.9001
13.7264
13.5719
13.4035
13.2549
13.0916
12.9488
12.7903
12.6531
12.499
12.3672
12.2175
12.0909
11.9451
11.8236
11.6816
11.5649
11.4266
11.3146
11.1796
11.0722
10.9405
10.8375
10.7087
10.6101
10.4842
10.3898
10.2664
10.1761
10.0553
9.96901
9.85042
9.76811
9.65164
9.57319
9.45869
9.38406
9.27139
9.20039
9.0891
9.02244
8.91378
8.8508
8.74631
8.67603
8.55751
54.5469
58.5302
61.5225
66.7328
73.5283
80.4818
95.2533
112.943
147.663
281.618
48.7902
50.0583
53.0621
55.7548
60.6946
66.6348
73.596
87.2704
100.54
179.013
44.6455
45.9736
46.8034
49.3796
51.1466
56.3524
59.7627
69.7013
76.5067
119.116
42.2686
43.1545
43.5676
45.1637
46.0736
49.1804
51.1606
57.4103
61.4731
84.9588
40.3106
40.889
41.1392
42.1843
42.7244
44.6043
45.7517
49.4505
51.8655
64.9047
38.8727
39.1817
39.3229
39.9745
40.3046
41.4802
42.1605
44.3555
45.7603
53.0105
37.74
37.8715
37.9357
38.3066
38.4995
39.2224
39.6303
40.9555
41.7734
45.8426
36.8422
36.851
36.8471
37.0251
37.1145
37.533
37.7647
38.5607
39.0361
41.3713
36.1455
36.0545
35.9997
36.0298
36.0437
36.2423
36.3526
36.799
37.0619
38.4329
35.5923
35.4463
35.3203
35.2541
35.2137
35.2536
35.2777
35.4797
35.6011
36.4062
35.1419
34.9626
34.7788
34.6585
34.5394
34.4796
34.4433
34.4764
34.502
34.949
34.7959
34.5602
34.3602
34.1701
34.0201
33.8758
33.7742
33.6925
33.651
33.8574
34.5116
34.2557
34.0123
33.8037
33.587
33.4261
33.2284
33.1231
32.9375
33.0291
34.2785
34.027
33.7311
33.523
33.2444
33.0739
32.8079
32.6728
32.3778
32.3894
34.097
33.8509
33.5132
33.3046
32.98
32.7991
32.4829
32.3241
31.9924
31.8965
33.9579
33.7242
33.348
33.1441
32.7816
32.5937
32.241
32.0599
31.7192
31.5352
33.8638
33.6114
33.2374
33.0041
32.6496
32.4208
32.0798
31.8465
31.5173
31.2771
33.7943
33.5055
33.1493
32.8769
32.5388
32.27
31.9409
31.6685
31.3433
31.0656
33.7625
33.4511
33.0999
32.8036
32.4683
32.1754
31.8458
31.5495
31.2197
30.9176
33.5446
33.1818
32.808
32.4653
32.1053
31.7738
31.4191
31.0923
30.738
30.4125
53.968
59.8447
69.2025
85.3029
115.332
175.59
330.608
879.318
5026.54
3102.03
54.4051
60.2115
70.5931
86.3823
115.412
178.491
348.72
911.732
5377.82
3151.59
54.4809
60.0006
71.1768
89.5231
123.693
192.402
376.908
979.392
5759.81
3197.4
55.0944
60.6337
71.6698
89.4333
123.797
195.757
395.807
1033.88
6180.86
3233.9
55.029
60.4956
73.1117
94.0083
134.207
216.095
444.266
1119.88
6586.33
3261.75
56.3407
62.2916
73.2985
93.9832
135.635
219.227
464.006
1222.94
7045.05
3278.52
56.5964
62.6435
76.8664
101.093
150.233
250.227
543.025
1333.33
7459.6
3269.1
58.7378
65.5369
77.68
102.2
153.109
254.812
568.989
1517.22
7865.51
3252.83
59.562
66.746
84.2041
114.015
177.297
304.397
689.063
1781.51
8019.21
3245.31
63.0572
71.0945
86.1838
117.185
183.249
319.828
741.294
2294.22
7940.39
3224.19
56.5182
62.0995
73.571
85.3585
92.8994
184.213
219.907
896.107
3451.98
2796.41
54.9522
61.1367
71.0485
79.443
107.762
122.977
303.606
599.799
3162.26
2673.61
55.1918
60.7817
70.3636
80.9609
106.3
132.119
283.201
619.972
3166.07
2656.69
55.3123
60.129
69.7892
81.5164
105.14
138.614
271.597
672.316
3295.17
2691.17
55.1912
59.9799
69.2012
81.7706
105.091
146.431
270.869
702.427
3451.52
2722.48
54.9507
59.9957
68.7156
81.9514
105.469
151.275
277.071
735.052
3614.13
2793.98
54.6536
59.6971
69.0877
81.6533
105.464
155.139
284.837
751.398
3869.11
2834.71
54.2432
59.5361
68.6944
83.3384
106.872
157.022
292.898
784.367
4072.95
2910.39
53.7964
59.2082
68.5286
83.0845
109.576
163.698
300.923
805.693
4396.81
2958.05
53.6976
59.3363
68.729
84.2007
110.033
165.815
315.176
834.632
4667.29
3035.14
13886.2
10422.4
8079.86
6429.74
5227.73
4327.31
3636.69
3096.2
2665.77
2317.75
2032.58
1796.15
1598.05
1430.51
1287.59
1164.76
1058.43
965.819
884.671
813.19
749.909
693.632
643.369
598.3
557.738
521.107
487.918
457.757
430.267
405.147
382.131
360.995
341.539
323.592
307.002
291.637
277.38
264.129
251.789
240.283
229.534
219.48
210.061
201.227
192.929
185.126
177.778
170.853
164.315
158.142
152.301
146.774
141.535
136.568
131.85
127.371
123.107
119.054
115.188
111.508
107.993
104.642
101.436
98.376
95.4433
92.6423
89.9529
87.3824
84.9101
82.5457
80.2679
78.0885
75.9855
73.9728
72.0275
70.166
68.3637
66.6397
64.9679
63.3703
61.8187
60.3385
58.8989
57.5298
56.197
54.9358
53.709
52.5576
51.4423
50.4117
49.4227
48.5424
47.7433
47.0929
46.5744
46.2959
46.3528
47.2996
48.9034
52.2408
13884.6
10419.5
8076.64
6426.51
5224.66
4324.45
3634.07
3093.81
2663.59
2315.76
2030.77
1794.49
1596.53
1429.1
1286.3
1163.56
1057.33
964.794
883.719