/*--------------------------------*- C++ -*----------------------------------*\
  =========                 |
  \\      /  F ield         | OpenFOAM: The Open Source CFD Toolbox
   \\    /   O peration     | Website:  https://openfoam.org
    \\  /    A nd           | Version:  8
     \\/     M anipulation  |
\*---------------------------------------------------------------------------*/
FoamFile
{
    version     2.0;
    format      ascii;
    class       volScalarField;
    location    "0.500023";
    object      k;
}
// * * * * * * * * * * * * * * * * * * * * * * * * * * * * * * * * * * * * * //

dimensions      [0 2 -2 0 0 0 0];

internalField   nonuniform List<scalar> 
6800
(
55.3831
112.215
109.122
99.0214
87.6918
67.2978
46.8021
28.7291
19.0144
15.0524
43.3456
97.4861
98.3278
91.2784
73.8955
48.4078
29.2043
19.8487
14.3117
10.8139
43.6205
85.1312
89.9448
81.0917
55.8413
33.4328
22.0709
15.1688
10.2467
7.70953
44.9651
81.0028
84.9323
71.6808
42.6701
26.1809
16.2006
10.9067
8.00634
6.57738
45.2764
78.9256
81.3739
59.0007
32.3449
18.9413
12.5555
9.32424
7.06502
5.57737
45.986
80.0159
78.0575
47.2166
25.6324
16.3476
11.0102
7.71714
5.80786
4.95141
46.1734
83.719
73.1328
36.9552
21.1075
12.9655
8.8579
6.69644
5.40262
4.72807
46.6065
87.6646
64.4349
31.0957
17.9066
11.8707
8.21892
6.19703
4.86695
4.31629
46.7382
91.8751
55.8305
27.2158
15.7946
9.98076
7.03215
5.49652
4.6161
4.20048
47.0686
94.8181
48.0451
23.6879
13.5801
9.46962
6.73089
5.31478
4.37389
3.94863
277.709
410.078
457.048
474.782
496.783
525.807
556.366
582.525
596.801
600.918
269.534
394.037
446.142
475.382
510.425
552.757
594.64
628.553
648.615
654.662
253.771
365.614
426.843
476.82
533.413
589.954
631.471
655.459
666.111
659.909
237.321
338.65
416.133
491.44
566.744
613.286
630.333
621.402
599.369
543.69
225.813
334.433
436.769
538.25
593.881
595.034
572.26
512.778
459.126
345.132
221.994
358.633
505.758
581.789
572.277
522.553
440.946
321.951
247.682
157.759
232.753
426.679
564.265
548.044
465.112
330.28
220.083
148.293
118.899
80.7454
238.465
479.766
483.101
382.044
235.491
160.757
118.757
87.7873
74.5809
52.0231
234.51
375.941
300.604
184.865
132.393
104.175
81.9123
64.7687
55.0822
35.454
154.114
200.65
160.867
122.22
101.251
83.4274
65.1381
50.6011
32.6297
20.7093
591.875
560.632
527.209
495.516
467.386
443.005
421.846
403.462
387.378
373.151
360.454
349.027
338.661
329.189
320.478
312.418
304.921
297.914
291.338
285.142
279.286
273.735
268.46
263.436
258.643
254.062
249.677
245.474
241.438
237.557
233.82
230.219
226.746
223.395
220.16
217.034
214.014
211.094
208.269
205.537
202.894
200.335
197.857
195.458
193.133
190.879
188.692
186.567
184.503
182.495
180.54
178.635
176.776
174.961
173.188
171.454
169.758
168.098
166.472
164.881
163.322
161.795
160.299
158.834
157.397
155.99
154.61
153.258
151.932
150.631
149.356
148.104
146.876
145.67
144.486
143.324
142.183
141.062
139.962
138.881
137.819
136.776
135.752
134.746
133.758
132.789
131.837
130.902
129.986
129.083
128.202
127.327
126.485
125.629
124.835
123.978
123.262
122.347
121.811
120.562
646.541
612.395
575.048
540.755
510.498
483.952
460.769
440.47
422.594
406.746
392.584
379.825
368.243
357.66
347.923
338.911
330.524
322.68
315.314
308.37
301.803
295.574
289.654
284.015
278.635
273.492
268.571
263.856
259.326
254.966
250.771
246.734
242.847
239.101
235.488
232.001
228.632
225.377
222.229
219.185
216.239
213.387
210.627
207.952
205.36
202.847
200.406
198.037
195.736
193.498
191.319
189.195
187.123
185.1
183.124
181.193
179.305
177.458
175.652
173.883
172.152
170.458
168.799
167.174
165.583
164.025
162.498
161.002
159.535
158.098
156.689
155.307
153.952
152.623
151.319
150.04
148.784
147.553
146.344
145.157
143.993
142.85
141.728
140.627
139.547
138.486
137.446
136.424
135.423
134.437
133.475
132.521
131.602
130.668
129.802
128.868
128.088
127.093
126.51
125.154
653.804
626.053
590.527
557.888
528.949
503.323
480.725
460.772
443.096
427.364
413.264
400.53
388.952
378.359
368.591
359.525
351.068
343.134
335.659
328.588
321.878
315.494
309.408
303.595
298.037
292.713
287.613
282.711
278.018
273.525
269.207
265.046
261.029
257.146
253.388
249.747
246.217
242.793
239.472
236.248
233.118
230.08
227.13
224.264
221.478
218.767
216.13
213.56
211.053
208.607
206.219
203.887
201.608
199.38
197.202
195.071
192.985
190.943
188.944
186.986
185.069
183.19
181.35
179.547
177.78
176.049
174.351
172.686
171.053
169.452
167.882
166.343
164.834
163.354
161.902
160.477
159.079
157.708
156.361
155.04
153.743
152.471
151.222
149.996
148.793
147.612
146.453
145.314
144.199
143.1
142.028
140.963
139.939
138.898
137.933
136.891
136.023
134.913
134.267
132.753
530.598
510.752
488.506
467.878
449.699
433.648
419.339
406.676
395.418
385.374
376.255
367.939
360.322
353.313
346.714
340.502
334.615
328.987
323.584
318.378
313.356
308.504
303.815
299.28
294.894
290.649
286.537
282.558
278.688
274.926
271.271
267.719
264.264
260.901
257.623
254.427
251.307
248.264
245.293
242.396
239.567
236.804
234.106
231.471
228.896
226.38
223.92
221.515
219.161
216.854
214.593
212.377
210.203
208.07
205.975
203.918
201.898
199.912
197.96
196.042
194.156
192.303
190.482
188.691
186.933
185.203
183.507
181.843
180.208
178.602
177.023
175.471
173.945
172.445
170.969
169.517
168.089
166.685
165.303
163.944
162.607
161.293
160
158.728
157.477
156.247
155.037
153.847
152.678
151.525
150.399
149.276
148.197
147.094
146.076
144.968
144.051
142.869
142.187
140.569
321.077
299.601
283.268
271.759
263.974
259.068
255.911
254.118
253.115
252.894
252.499
252.502
252.785
253.249
253.071
253.018
252.752
252.267
251.612
250.819
249.921
248.934
247.879
246.766
245.607
244.407
243.172
241.904
240.609
239.282
237.931
236.55
235.134
233.685
232.2
230.685
229.144
227.585
226.014
224.435
222.854
221.275
219.699
218.129
216.565
215.011
213.461
211.923
210.385
208.851
207.328
205.812
204.302
202.798
201.298
199.804
198.314
196.83
195.353
193.883
192.422
190.969
189.527
188.096
186.677
185.269
183.874
182.491
181.121
179.766
178.424
177.097
175.783
174.484
173.198
171.927
170.669
169.426
168.197
166.982
165.781
164.595
163.422
162.265
161.121
159.993
158.878
157.778
156.694
155.62
154.568
153.516
152.504
151.462
150.503
149.448
148.583
147.453
146.81
145.253
146.115
135.568
127.396
121.368
116.906
113.865
111.749
110.605
110.123
110.274
110.765
111.646
113.141
114.658
116.716
119.158
121.954
124.991
128.187
131.47
134.795
138.109
141.389
144.591
147.707
150.697
153.565
156.278
158.846
161.242
163.485
165.473
167.226
168.755
170.085
171.248
172.262
173.15
173.924
174.599
175.183
175.688
176.116
176.477
176.769
177.001
177.161
177.29
177.29
177.266
177.215
177.095
176.914
176.676
176.382
176.037
175.644
175.207
174.729
174.214
173.667
173.089
172.485
171.857
171.207
170.539
169.853
169.153
168.438
167.711
166.971
166.223
165.461
164.696
163.917
163.136
162.347
161.555
160.758
159.958
159.153
158.348
157.54
156.734
155.925
155.121
154.316
153.515
152.716
151.919
151.131
150.335
149.565
148.763
148.023
147.196
146.522
145.626
145.12
143.862
76.1583
71.1063
66.7351
63.0969
59.9954
57.3858
55.1497
53.2777
51.7166
50.4182
49.405
48.5709
48.018
47.5739
47.3451
47.2129
47.3126
47.5702
48.0728
48.7579
49.6551
50.7229
51.9921
53.4232
55.0387
56.8118
58.7452
60.8148
63.0239
65.3537
67.7905
70.3987
73.1631
76.064
79.0602
82.1328
85.2468
88.3851
91.5156
94.6232
97.6807
100.676
103.589
106.409
109.122
111.723
114.199
116.554
118.778
120.834
122.731
124.478
126.08
127.553
128.903
130.145
131.281
132.325
133.281
134.156
134.955
135.686
136.349
136.952
137.493
137.981
138.411
138.793
139.121
139.405
139.635
139.828
139.964
140.075
140.121
140.164
140.152
140.113
140.034
139.926
139.787
139.629
139.442
139.242
139.015
138.779
138.517
138.25
137.959
137.664
137.348
137.026
136.692
136.34
135.998
135.609
135.278
134.835
134.581
133.912
49.2276
45.975
43.003
40.3537
37.9356
35.7534
33.7374
31.9297
30.2469
28.7386
27.3283
26.0522
24.8626
23.8187
22.9109
22.0896
21.3944
20.7716
20.2681
19.8283
19.4992
19.2238
19.0571
18.9332
18.9223
18.9696
19.0737
19.272
19.5571
19.9228
20.3709
20.9042
21.5287
22.2578
23.0889
24.0421
25.1059
26.3022
27.6136
29.0631
30.6291
32.3308
34.1424
36.0796
38.1124
40.255
42.4723
44.7794
47.1363
49.588
52.1029
54.6794
57.2872
59.9191
62.5472
65.1656
67.7501
70.2964
72.7847
75.2121
77.5633
79.8395
82.027
84.1318
86.1402
88.0638
89.8875
91.6292
93.2564
94.7941
96.2233
97.5742
98.8248
100.012
101.107
102.151
103.116
104.038
104.887
105.701
106.447
107.165
107.819
108.451
109.019
109.576
110.066
110.554
110.97
111.394
111.739
112.103
112.381
112.69
112.903
113.161
113.315
113.534
113.627
113.842
33.1648
30.6101
28.2309
26.0371
24.044
22.2452
20.637
19.2003
17.9258
16.7894
15.7812
14.8792
14.0792
13.3495
12.7135
12.15
11.6531
11.2068
10.8106
10.4514
10.1321
9.84064
9.58276
9.34639
9.13949
8.94999
8.78792
8.63874
8.51667
8.40567
8.3219
8.24752
8.20193
8.16494
8.16649
8.17865
8.22203
8.27181
8.3527
8.47712
8.62299
8.8191
9.04114
9.32057
9.6315
10.0069
10.4201
10.9071
11.4373
12.0493
12.7117
13.4671
14.2783
15.1919
16.1643
17.2446
18.3846
19.6339
20.9408
22.3546
23.8197
25.3858
26.9933
28.6925
30.4199
32.2274
34.0471
35.9334
37.8276
39.788
41.7343
43.7302
45.6899
47.6823
49.6178
51.5722
53.4515
55.3408
57.1388
58.9426
60.6405
62.3449
63.9302
65.5286
66.993
68.484
69.8246
71.2112
72.4273
73.7035
74.7831
75.9608
76.9067
78.0028
78.8202
79.8563
80.5295
81.552
82.0341
83.3356
19.0421
17.3028
15.8034
14.57
13.5367
12.6556
11.8911
11.2202
10.6263
10.0947
9.61579
9.18317
8.79031
8.43288
8.10634
7.80833
7.53505
7.28483
7.05434
6.84254
6.64653
6.46584
6.29789
6.14262
5.99774
5.86351
5.73776
5.62117
5.51145
5.40986
5.31364
5.22506
5.14004
5.06258
4.98818
4.92185
4.85588
4.79924
4.74094
4.69303
4.64347
4.60539
4.56621
4.53917
4.51231
4.49728
4.48557
4.48693
4.4927
4.51043
4.52787
4.56393
4.60175
4.66986
4.72859
4.83437
4.91929
5.06621
5.1898
5.38462
5.55429
5.8059
6.0302
6.34823
6.63607
7.0305
7.3905
7.87076
8.31112
8.88676
9.41693
10.0975
10.7249
11.5172
12.2458
13.1537
13.9838
15.0079
15.9358
17.0733
18.091
19.3351
20.4299
21.7704
22.9253
24.3492
25.5437
27.0367
28.2476
29.8074
31.0223
32.6345
33.8241
35.4757
36.6128
38.2947
39.3396
41.0648
41.8719
44.228
10.8088
10.3413
9.87922
9.4309
9.00048
8.59326
8.21036
7.85476
7.52406
7.21973
6.94022
6.68374
6.44746
6.23004
6.02884
5.84308
5.67025
5.51019
5.36042
5.22144
5.09065
4.96912
4.85408
4.74712
4.64521
4.55044
4.45954
4.37501
4.29338
4.2175
4.14374
4.07526
4.00823
3.94617
3.8849
3.82844
3.77217
3.72073
3.66925
3.62258
3.57533
3.53291
3.48946
3.4509
3.41089
3.37594
3.33908
3.30759
3.2737
3.2456
3.21449
3.18977
3.16141
3.14008
3.11482
3.09694
3.07522
3.06097
3.04332
3.03321
3.02029
3.01504
3.00788
3.0079
3.00952
3.01503
3.02212
3.03992
3.0537
3.08528
3.10768
3.15686
3.18966
3.26143
3.30721
3.40705
3.46968
3.60344
3.68667
3.862
3.96947
4.19518
4.33096
4.61623
4.78458
5.13787
5.34367
5.77198
6.01814
6.52931
6.81857
7.41943
7.75536
8.45155
8.83352
9.6095
10.0446
10.8699
11.4869
12.5384
7.76353
7.4675
7.1786
6.89911
6.63406
6.3838
6.15058
5.93288
5.73126
5.54374
5.37016
5.20849
5.0585
4.91842
4.78805
4.66585
4.5517
4.44433
4.34364
4.24862
4.15918
4.07455
3.99458
3.91879
3.84687
3.77862
3.71356
3.65177
3.59258
3.53638
3.48225
3.43091
3.38121
3.33413
3.28834
3.24503
3.2027
3.16272
3.12343
3.08636
3.04974
3.01522
2.98093
2.94865
2.91643
2.88615
2.85578
2.82732
2.7986
2.77182
2.7446
2.71937
2.6935
2.66973
2.64507
2.6227
2.59916
2.57813
2.55563
2.53588
2.51441
2.49587
2.47539
2.45802
2.43852
2.42265
2.4044
2.39006
2.37306
2.36023
2.34445
2.33308
2.31856
2.30864
2.29559
2.28713
2.27586
2.26904
2.26008
2.25514
2.2494
2.24717
2.24605
2.24932
2.25123
2.25828
2.26408
2.27947
2.28903
2.31531
2.3307
2.36966
2.39389
2.44957
2.48194
2.54668
2.60948
2.68481
2.76759
2.9075
5.91775
5.74917
5.58322
5.4199
5.26187
5.1092
4.9637
4.82445
4.69277
4.56729
4.44914
4.3367
4.23104
4.13046
4.03599
3.94593
3.86134
3.78052
3.70456
3.6318
3.56336
3.49761
3.43571
3.37607
3.31986
3.26555
3.21432
3.16468
3.11781
3.07227
3.02923
2.98731
2.94765
2.90892
2.87223
2.83634
2.80227
2.7689
2.73717
2.70604
2.67641
2.64729
2.61953
2.59222
2.56615
2.54045
2.51591
2.49167
2.4685
2.44557
2.42364
2.4019
2.3811
2.36043
2.34066
2.32097
2.30212
2.28333
2.26533
2.24736
2.23013
2.21294
2.19642
2.17993
2.16407
2.14824
2.13298
2.11778
2.10308
2.08847
2.07429
2.06023
2.04655
2.033
2.0198
2.00673
1.99399
1.98137
1.96909
1.9569
1.94509
1.93332
1.92198
1.91077
1.90001
1.88936
1.87922
1.86916
1.85972
1.85029
1.84169
1.83294
1.82537
1.81738
1.81106
1.80383
1.79885
1.79264
1.78973
1.78457
4.74201
4.63818
4.53327
4.42685
4.32144
4.21737
4.1167
4.01892
3.92558
3.83567
3.75053
3.66883
3.5918
3.51794
3.44849
3.38181
3.31919
3.25893
3.20239
3.14779
3.09658
3.04693
3.00039
2.95507
2.91259
2.87104
2.83213
2.79388
2.75809
2.72274
2.68971
2.6569
2.6263
2.59574
2.56728
2.53869
2.51212
2.48528
2.4604
2.4351
2.41173
2.38781
2.3658
2.34313
2.32235
2.30081
2.28115
2.26063
2.24199
2.22239
2.20468
2.18592
2.16907
2.15106
2.13499
2.11768
2.10233
2.08565
2.07097
2.05485
2.0408
2.02521
2.01173
1.99662
1.98369
1.96902
1.95661
1.94235
1.93042
1.91654
1.90508
1.89155
1.88054
1.86733
1.85674
1.84383
1.83365
1.82101
1.81122
1.79882
1.78941
1.77723
1.76819
1.75621
1.74754
1.73574
1.72742
1.71578
1.70782
1.69632
1.68871
1.67734
1.6701
1.65885
1.65198
1.64084
1.63432
1.62333
1.61615
1.604
3.97227
3.90581
3.83758
3.76694
3.69602
3.62498
3.55561
3.48739
3.4217
3.35771
3.29663
3.2374
3.18115
3.12668
3.07511
3.02514
2.97791
2.93205
2.88876
2.8466
2.80683
2.76796
2.73132
2.69537
2.6615
2.62812
2.59672
2.56561
2.53638
2.50729
2.48
2.4527
2.42713
2.40143
2.37741
2.35313
2.33052
2.30752
2.28617
2.26433
2.24413
2.22334
2.20419
2.18434
2.16615
2.14717
2.12985
2.11165
2.09514
2.07767
2.0619
2.04508
2.03
2.01379
1.99935
1.9837
1.96986
1.95471
1.94144
1.92676
1.91402
1.89978
1.88753
1.8737
1.86191
1.84846
1.83712
1.82401
1.81309
1.8003
1.78979
1.7773
1.76717
1.75496
1.7452
1.73325
1.72385
1.71213
1.70307
1.69158
1.68286
1.67157
1.66317
1.65208
1.64399
1.63307
1.62529
1.61453
1.60705
1.59644
1.58925
1.57878
1.57187
1.56151
1.55489
1.54465
1.53817
1.5281
1.52364
1.50816
3.47425
3.42939
3.38276
3.33337
3.28319
3.23199
3.18155
3.13115
3.08228
3.03398
2.98762
2.94207
2.89863
2.85604
2.81559
2.77592
2.73835
2.70146
2.66657
2.63222
2.59978
2.56775
2.53753
2.50758
2.47937
2.45129
2.42489
2.39849
2.37371
2.34882
2.3255
2.30197
2.27997
2.25765
2.23685
2.21563
2.19591
2.1757
2.15697
2.13767
2.11985
2.10137
2.08438
2.06666
2.05045
2.03342
2.01792
2.00152
1.98668
1.97087
1.95664
1.94137
1.92771
1.91293
1.89981
1.88549
1.87287
1.85898
1.84683
1.83333
1.82163
1.8085
1.79723
1.78443
1.77356
1.76109
1.7506
1.73842
1.7283
1.7164
1.70663
1.69498
1.68555
1.67414
1.66503
1.65384
1.64505
1.63407
1.62559
1.61481
1.60662
1.59601
1.58812
1.57768
1.57007
1.55979
1.55245
1.54231
1.53524
1.52524
1.51843
1.50855
1.502
1.4922
1.4859
1.47627
1.47036
1.46085
1.45437
1.44355
3.1526
3.1198
3.08547
3.04845
3.01053
2.97129
2.9324
2.89304
2.85469
2.81632
2.77935
2.74258
2.70741
2.67253
2.63932
2.6064
2.57516
2.54414
2.51479
2.48559
2.458
2.43047
2.40451
2.37853
2.35406
2.32948
2.30638
2.28308
2.26123
2.23908
2.21837
2.19728
2.17761
2.15749
2.13878
2.11954
2.1017
2.08327
2.06624
2.04855
2.03227
2.01526
1.99967
1.98329
1.96836
1.95256
1.93822
1.92296
1.90919
1.89443
1.88118
1.86688
1.85414
1.84027
1.82799
1.81452
1.80269
1.78959
1.77818
1.76543
1.75441
1.74199
1.73136
1.71924
1.70897
1.69713
1.68721
1.67565
1.66606
1.65474
1.64548
1.63439
1.62544
1.61457
1.60592
1.59526
1.58689
1.57642
1.56834
1.55805
1.55024
1.54011
1.53257
1.5226
1.51532
1.5055
1.49847
1.48878
1.48201
1.47243
1.4659
1.45644
1.45015
1.44077
1.43474
1.42547
1.41955
1.41044
1.40639
1.39227
2.93922
2.91299
2.88557
2.85568
2.82495
2.79282
2.76088
2.72822
2.6963
2.66403
2.63286
2.60155
2.57155
2.54151
2.51288
2.48423
2.45704
2.4298
2.40403
2.37815
2.35375
2.32917
2.30604
2.28267
2.26074
2.23848
2.21766
2.19643
2.17663
2.15635
2.13749
2.11808
2.10009
2.08149
2.0643
2.04644
2.02999
2.01282
1.99707
1.98053
1.96542
1.94946
1.93496
1.91954
1.9056
1.8907
1.87728
1.86285
1.84993
1.83594
1.82349
1.8099
1.7979
1.7847
1.77312
1.76027
1.74909
1.73657
1.72577
1.71357
1.70313
1.69123
1.68114
1.66951
1.65975
1.64838
1.63894
1.62781
1.61868
1.60779
1.59895
1.58827
1.57972
1.56924
1.56097
1.55069
1.54268
1.53257
1.52483
1.51489
1.50741
1.49762
1.49038
1.48074
1.47375
1.46425
1.45749
1.44812
1.44159
1.43233
1.42604
1.41689
1.41082
1.40175
1.39589
1.38697
1.38147
1.37266
1.36659
1.35662
2.79239
2.76984
2.74637
2.72072
2.69432
2.66658
2.63893
2.61051
2.58266
2.55435
2.52693
2.49925
2.47266
2.44588
2.42033
2.39461
2.37017
2.34555
2.32225
2.29871
2.27652
2.25403
2.23289
2.21139
2.19124
2.17067
2.15145
2.13173
2.11339
2.09446
2.07693
2.05874
2.04196
2.02446
2.00837
1.99151
1.97608
1.95981
1.94499
1.92927
1.91503
1.89982
1.88612
1.87138
1.8582
1.84391
1.83121
1.81733
1.80509
1.7916
1.77979
1.76667
1.75527
1.74249
1.73148
1.71903
1.70839
1.69624
1.68596
1.67409
1.66415
1.65255
1.64294
1.63158
1.6223
1.61118
1.6022
1.59129
1.58261
1.57192
1.56352
1.55302
1.5449
1.53458
1.52674
1.51659
1.50901
1.49901
1.49169
1.48185
1.47478
1.46507
1.45825
1.44867
1.44209
1.43263
1.42629
1.41694
1.41084
1.40159
1.39572
1.38656
1.38091
1.37181
1.36643
1.3575
1.35235
1.3437
1.33787
1.328
2.68704
2.66663
2.64555
2.62257
2.59891
2.57403
2.54918
2.52358
2.49842
2.4728
2.44791
2.42272
2.39845
2.37397
2.35051
2.32687
2.30434
2.2816
2.26001
2.23819
2.21753
2.19659
2.17684
2.15673
2.13784
2.11853
2.10045
2.08189
2.06456
2.0467
2.03009
2.01287
1.99693
1.98031
1.965
1.94895
1.93423
1.9187
1.90454
1.88951
1.87587
1.86129
1.84815
1.834
1.82133
1.80759
1.79536
1.782
1.7702
1.75719
1.74579
1.73312
1.72211
1.70975
1.6991
1.68704
1.67675
1.66496
1.65501
1.64349
1.63386
1.62258
1.61326
1.60222
1.59321
1.58238
1.57366
1.56304
1.55461
1.54418
1.53602
1.52578
1.51788
1.50781
1.50018
1.49027
1.48288
1.47312
1.46599
1.45637
1.44948
1.43999
1.43334
1.42398
1.41756
1.40831
1.40212
1.39297
1.38701
1.37796
1.37223
1.36326
1.35774
1.34883
1.34358
1.33483
1.3298
1.32134
1.31563
1.30597
2.60967
2.59076
2.5712
2.54992
2.52805
2.50506
2.4821
2.45842
2.43512
2.41136
2.38823
2.36479
2.34216
2.31931
2.29737
2.27523
2.25407
2.23271
2.21237
2.1918
2.17228
2.15249
2.13376
2.11471
2.09674
2.0784
2.06115
2.04347
2.02691
2.00985
1.99393
1.97746
1.96215
1.94622
1.93148
1.91606
1.90186
1.88693
1.87324
1.85875
1.84555
1.83149
1.81875
1.80508
1.79278
1.77948
1.7676
1.75466
1.74317
1.73056
1.71945
1.70715
1.6964
1.6844
1.674
1.66228
1.65222
1.64076
1.63102
1.6198
1.61037
1.59939
1.59026
1.5795
1.57066
1.56011
1.55155
1.54119
1.5329
1.52273
1.51471
1.50472
1.49695
1.48712
1.47961
1.46993
1.46266
1.45313
1.4461
1.4367
1.42991
1.42064
1.41408
1.40492
1.3986
1.38954
1.38344
1.37449
1.36861
1.35975
1.35409
1.34531
1.33988
1.33117
1.32591
1.31729
1.31242
1.30375
1.29998
1.28718
2.55141
2.53342
2.5148
2.49463
2.47397
2.45227
2.43061
2.40828
2.38629
2.36386
2.342
2.31984
2.29841
2.27676
2.25592
2.2349
2.21477
2.19444
2.17504
2.15542
2.13675
2.11783
2.09988
2.08164
2.06438
2.04678
2.03018
2.01318
1.99721
1.98078
1.9654
1.94951
1.93469
1.91931
1.90501
1.89011
1.87631
1.86185
1.84854
1.83449
1.82163
1.80798
1.79555
1.78228
1.77026
1.75734
1.74571
1.73312
1.72187
1.7096
1.69871
1.68673
1.67619
1.66448
1.65427
1.64284
1.63295
1.62176
1.61218
1.60122
1.59194
1.58121
1.57222
1.5617
1.55299
1.54267
1.53423
1.52409
1.51592
1.50596
1.49805
1.48826
1.48059
1.47096
1.46354
1.45405
1.44688
1.43752
1.43058
1.42136
1.41465
1.40554
1.39907
1.39007
1.38382
1.37493
1.3689
1.3601
1.3543
1.34557
1.33999
1.33135
1.32599
1.31741
1.31223
1.30374
1.29894
1.29038
1.28667
1.27408
2.50697
2.48951
2.47151
2.45206
2.43226
2.41146
2.39075
2.36937
2.34836
2.32689
2.30599
2.28477
2.26425
2.24348
2.22351
2.20333
2.18399
2.16444
2.14577
2.12688
2.10888
2.09063
2.0733
2.05568
2.03898
2.02196
2.00586
1.98941
1.97389
1.95797
1.943
1.92759
1.91314
1.8982
1.88424
1.86975
1.85626
1.8422
1.82915
1.81548
1.80287
1.78958
1.77736
1.76443
1.75261
1.74001
1.72856
1.71628
1.70518
1.6932
1.68245
1.67076
1.66033
1.64891
1.6388
1.62764
1.61784
1.60692
1.59741
1.58672
1.57749
1.56703
1.55807
1.54782
1.53913
1.52907
1.52064
1.51077
1.5026
1.4929
1.48497
1.47544
1.46775
1.45838
1.45092
1.4417
1.43448
1.42539
1.41839
1.40944
1.40266
1.39383
1.38727
1.37855
1.37221
1.3636
1.35746
1.34896
1.34303
1.33461
1.32889
1.32056
1.31504
1.30677
1.30145
1.29331
1.28831
1.28026
1.27477
1.26562
2.47282
2.45561
2.43801
2.41902
2.39981
2.37962
2.35961
2.3389
2.31862
2.29783
2.27767
2.25711
2.23731
2.21718
2.19789
2.17831
2.15961
2.14062
2.12255
2.10419
2.08675
2.06899
2.05217
2.035
2.01878
2.00217
1.98652
1.97045
1.95534
1.93978
1.92518
1.9101
1.896
1.88136
1.86773
1.85352
1.84032
1.82652
1.81375
1.80033
1.78796
1.7749
1.76292
1.7502
1.73859
1.72619
1.71494
1.70285
1.69194
1.68014
1.66955
1.65804
1.64777
1.63651
1.62654
1.61554
1.60587
1.5951
1.58571
1.57517
1.56605
1.55572
1.54688
1.53675
1.52816
1.51823
1.5099
1.50014
1.49206
1.48248
1.47463
1.46521
1.4576
1.44834
1.44095
1.43184
1.42468
1.4157
1.40876
1.39991
1.39319
1.38446
1.37795
1.36933
1.36303
1.35453
1.34843
1.34002
1.33413
1.32581
1.32013
1.31189
1.30641
1.29823
1.29296
1.28487
1.27969
1.27174
1.2682
1.2558
2.44595
2.42887
2.4115
2.39281
2.37404
2.35429
2.33481
2.31459
2.29489
2.27462
2.25504
2.235
2.21577
2.19615
2.17742
2.15831
2.14015
2.12161
2.10404
2.08609
2.06912
2.05175
2.03537
2.01855
2.00274
1.98646
1.97118
1.95541
1.94064
1.92535
1.91108
1.89624
1.88243
1.86802
1.85466
1.84066
1.82771
1.8141
1.80155
1.7883
1.77615
1.76325
1.75146
1.73889
1.72746
1.7152
1.70411
1.69215
1.68139
1.66971
1.65927
1.64786
1.63772
1.62657
1.61672
1.60581
1.59626
1.58558
1.5763
1.56584
1.55683
1.54658
1.53783
1.52778
1.51928
1.50942
1.50117
1.49149
1.48349
1.47397
1.4662
1.45685
1.44931
1.44011
1.43279
1.42374
1.41665
1.40773
1.40085
1.39206
1.38539
1.37672
1.37027
1.36171
1.35546
1.34701
1.34097
1.33261
1.32677
1.3185
1.31286
1.30468
1.29924
1.29111
1.28589
1.27785
1.27271
1.26481
1.2613
1.24905
2.42563
2.40859
2.39136
2.37286
2.35439
2.33495
2.31586
2.29602
2.27674
2.25687
2.23773
2.21809
2.19931
2.18007
2.16176
2.14301
2.12524
2.10703
2.08984
2.07218
2.05556
2.03845
2.02239
2.0058
1.99028
1.97419
1.95919
1.94358
1.92907
1.91392
1.89987
1.88515
1.87156
1.85725
1.84408
1.83016
1.8174
1.80386
1.79149
1.7783
1.76631
1.75345
1.74182
1.72929
1.71801
1.70578
1.69483
1.6829
1.67227
1.66062
1.6503
1.63891
1.6289
1.61776
1.60804
1.59714
1.5877
1.57704
1.56787
1.55742
1.54852
1.53828
1.52963
1.5196
1.5112
1.50135
1.4932
1.48353
1.47561
1.46612
1.45843
1.4491
1.44164
1.43246
1.42523
1.41619
1.40917
1.40028
1.39347
1.3847
1.37811
1.36946
1.36307
1.35454
1.34835
1.33993
1.33394
1.32562
1.31983
1.3116
1.30601
1.29787
1.29247
1.28438
1.27917
1.27122
1.26631
1.25845
1.25303
1.24414
2.41091
2.39383
2.37659
2.35818
2.33983
2.32058
2.30168
2.28207
2.26302
2.24339
2.22448
2.20507
2.18649
2.16746
2.14934
2.13078
2.11317
2.09511
2.07806
2.06052
2.04402
2.02699
2.01103
1.9945
1.97906
1.96301
1.94808
1.93249
1.91805
1.90291
1.88894
1.87422
1.86071
1.8464
1.83332
1.8194
1.80673
1.79318
1.78092
1.76773
1.75585
1.74299
1.73148
1.71893
1.70778
1.69552
1.68471
1.67274
1.66226
1.65057
1.64041
1.62898
1.61912
1.60795
1.59839
1.58745
1.57819
1.56747
1.55849
1.54799
1.53928
1.52899
1.52055
1.51045
1.50226
1.49234
1.48441
1.47466
1.46697
1.45739
1.44994
1.44052
1.4333
1.42402
1.41703
1.40789
1.40112
1.39211
1.38556
1.37668
1.37034
1.36157
1.35545
1.34678
1.34087
1.3323
1.32659
1.31812
1.31261
1.30422
1.29892
1.29061
1.2855
1.27724
1.27238
1.26426
1.2596
1.25174
1.24645
1.23747
2.39898
2.38183
2.36453
2.34614
2.32779
2.30859
2.28968
2.27009
2.25098
2.23133
2.21231
2.19283
2.1741
2.15498
2.13669
2.11803
2.10026
2.08213
2.06491
2.04722
2.0305
2.01332
1.99716
1.98052
1.96494
1.94884
1.93383
1.91825
1.90379
1.88872
1.87477
1.86018
1.84673
1.83257
1.8196
1.80586
1.79332
1.77997
1.76786
1.75487
1.74315
1.73051
1.71917
1.70685
1.69588
1.68388
1.67325
1.66154
1.65124
1.6398
1.62982
1.61863
1.60895
1.598
1.58862
1.5779
1.56879
1.55828
1.54945
1.53915
1.53057
1.52047
1.51215
1.50222
1.49416
1.4844
1.47658
1.46699
1.4594
1.44997
1.44262
1.43333
1.4262
1.41706
1.41015
1.40114
1.39444
1.38555
1.37908
1.3703
1.36404
1.35537
1.34932
1.34075
1.3349
1.32643
1.32078
1.3124
1.30695
1.29865
1.2934
1.28518
1.28012
1.27194
1.26712
1.25909
1.25447
1.24669
1.24144
1.23258
2.39031
2.37269
2.35474
2.33547
2.31617
2.29588
2.27592
2.25523
2.23516
2.21457
2.1948
2.17464
2.15544
2.13592
2.11743
2.09863
2.08091
2.06284
2.04589
2.02865
2.01251
1.99598
1.98054
1.96464
1.94981
1.93447
1.92019
1.90533
1.89155
1.87714
1.86381
1.84981
1.83691
1.82328
1.81078
1.7975
1.78538
1.77244
1.76068
1.74805
1.73664
1.72431
1.71323
1.70118
1.69042
1.67864
1.6682
1.65667
1.64653
1.63525
1.6254
1.61436
1.60479
1.59397
1.58468
1.57407
1.56505
1.55465
1.54588
1.53567
1.52716
1.51714
1.50887
1.49903
1.491
1.48133
1.47354
1.46403
1.45647
1.44711
1.43977
1.43056
1.42344
1.41437
1.40747
1.39852
1.39184
1.38301
1.37654
1.36783
1.36157
1.35296
1.34691
1.3384
1.33255
1.32413
1.31848
1.31015
1.3047
1.29645
1.2912
1.28302
1.27797
1.26986
1.26496
1.25693
1.25239
1.2443
1.24078
1.22885
2.36069
2.34176
2.32321
2.30404
2.28537
2.26618
2.24763
2.22863
2.21036
2.1917
2.17386
2.15563
2.13827
2.12053
2.10368
2.08643
2.07011
2.05336
2.03755
2.02127
2.00596
1.99014
1.9753
1.95992
1.94554
1.93057
1.91662
1.90205
1.88852
1.87432
1.86119
1.84735
1.8346
1.82111
1.80873
1.79556
1.78354
1.77068
1.75901
1.74645
1.73511
1.72284
1.71182
1.69982
1.68912
1.67739
1.66698
1.65551
1.6454
1.63416
1.62434
1.61333
1.60379
1.593
1.58373
1.57316
1.56415
1.55378
1.54502
1.53484
1.52634
1.51635
1.50809
1.49827
1.49025
1.4806
1.47282
1.46332
1.45577
1.44643
1.4391
1.4299
1.42279
1.41372
1.40683
1.3979
1.39122
1.3824
1.37594
1.36723
1.36098
1.35238
1.34633
1.33783
1.33198
1.32357
1.31792
1.3096
1.30415
1.29591
1.29066
1.28249
1.27744
1.26934
1.26445
1.25643
1.2519
1.24383
1.24033
1.22844
3.54849
3.67182
3.87996
4.0451
4.41926
4.64608
5.2808
5.99072
7.06858
11.0237
3.26411
3.31439
3.47453
3.59975
3.81869
4.11973
4.37012
5.00179
5.48214
7.9627
3.05419
3.12504
3.17207
3.30705
3.39329
3.6517
3.80297
4.25363
4.53927
6.0247
2.93512
2.98724
3.01312
3.10072
3.14993
3.31055
3.40821
3.70792
3.89381
4.79431
2.84288
2.87947
2.89765
2.95752
2.9893
3.09029
3.15071
3.33721
3.45513
4.00215
2.768
2.79293
2.80532
2.84731
2.86894
2.93682
2.97529
3.09225
3.16497
3.49403
2.71125
2.72642
2.73455
2.76238
2.77697
2.82272
2.84796
2.92363
2.96892
3.16685
2.66612
2.67463
2.67912
2.69691
2.70609
2.73624
2.7525
2.80189
2.83016
2.95069
2.62977
2.63296
2.63504
2.6452
2.65063
2.66949
2.67972
2.71109
2.72888
2.80327
2.59985
2.59955
2.59939
2.60401
2.60636
2.61698
2.6227
2.64158
2.65275
2.69795
2.57664
2.57366
2.57092
2.57123
2.57122
2.57564
2.57791
2.58775
2.59369
2.62152
2.55786
2.5532
2.54815
2.54571
2.54293
2.54281
2.54262
2.54586
2.54782
2.56446
2.54306
2.53635
2.53022
2.52524
2.52082
2.51734
2.51449
2.51281
2.51213
2.52009
2.53101
2.52314
2.51552
2.5093
2.50264
2.4978
2.49173
2.48836
2.48244
2.48582
2.52129
2.5132
2.5037
2.4971
2.48812
2.48259
2.47378
2.46902
2.45876
2.45894
2.5139
2.50596
2.49477
2.48811
2.47723
2.47125
2.46034
2.45464
2.44292
2.43867
2.50781
2.50016
2.48765
2.48092
2.46883
2.46231
2.4503
2.44351
2.4315
2.42411
2.50354
2.4947
2.4824
2.47416
2.46241
2.45409
2.44245
2.43362
2.42185
2.41237
2.50143
2.49152
2.4794
2.46994
2.45831
2.4487
2.43706
2.42691
2.41493
2.40412
2.4893
2.47667
2.46331
2.45134
2.43836
2.4266
2.41356
2.4017
2.38833
2.37618
3.40892
3.67012
4.08917
4.74421
5.94334
7.66025
11.6253
21.9562
70.2416
48.2986
3.43969
3.7151
4.12119
4.76885
5.91831
8.13252
12.7867
22.595
72.8006
48.5832
3.43922
3.71083
4.19935
4.89886
6.25934
8.15146
12.6356
23.8823
76.8617
48.8043
3.47899
3.72921
4.19971
4.89158
6.24317
8.78511
14.1638
24.3524
80.1896
48.8871
3.47939
3.75433
4.30517
5.08429
6.65399
8.80141
14.0921
26.4438
84.1691
48.8681
3.54926
3.78334
4.31034
5.092
6.67043
9.65935
16.0345
27.1313
88.0755
48.7418
3.56393
3.87296
4.47598
5.3799
7.21614
9.69131
16.15
29.9029
91.9242
48.3106
3.67352
3.92482
4.51294
5.42765
7.32199
10.9103
18.4328
31.5063
95.506
47.8348
3.71386
4.06829
4.7863
5.88091
8.08472
11.0876
19.2794
35.9793
96.9295
47.5867
3.8789
4.1811
4.86546
6.008
8.33188
12.8069
21.7616
40.9695
96.2804
47.2298
3.44386
3.65813
4.04098
4.4346
4.95497
7.33854
9.47955
20.6558
50.4302
44.5933
3.42483
3.64172
3.99775
4.40206
5.29276
6.40243
10.8158
17.6006
49.1568
43.9526
3.43853
3.6527
4.01542
4.48054
5.39063
6.69835
10.8907
18.5694
49.9779
43.8763
3.43272
3.65931
4.00902
4.51709
5.40357
6.87294
10.5844
18.7812
52.5212
44.0508
3.43115
3.66776
3.99895
4.5523
5.42298
6.99638
10.5764
19.1751
54.0684
44.9087
3.4255
3.68642
3.98679
4.55303
5.44121
7.0837
10.7281
19.894
56.1211
45.1498
3.41813
3.66464
4.0539
4.54296
5.4436
7.15843
10.8327
19.9499
58.7135
46.1453
3.40448
3.65823
4.03616
4.67497
5.47349
7.16363
11.0823
20.7761
60.6117
46.3465
3.38531
3.638
4.03156
4.66188
5.70997
7.31964
10.9367
20.6281
64.2029
47.3145
3.39337
3.67081
4.03092
4.69005
5.67923
7.60682
11.7357
21.5334
66.2185
47.6098
57.852
49.6857
43.4318
38.5054
34.534
31.2705
28.5449
26.2369
24.2591
22.5467
21.0506
19.7329
18.5639
17.5204
16.5833
15.7376
14.9705
14.2719
13.6331
13.0468
12.5069
12.0082
11.5462
11.1171
10.7175
10.3445
9.99555
9.66852
9.36132
9.07234
8.7999
8.54277
8.29958
8.06938
7.85101
7.64377
7.44666
7.25913
7.08035
6.9099
6.74703
6.59144
6.44247
6.2999
6.16313
6.03203
5.90605
5.7851
5.66867
5.55676
5.44884
5.34499
5.24469
5.14808
5.05462
4.96451
4.87721
4.79298
4.71126
4.63235
4.55568
4.48161
4.40954
4.33988
4.27201
4.20638
4.14236
4.08043
4.01994
3.96142
3.90418
3.84881
3.79458
3.74213
3.69072
3.641
3.59222
3.54509
3.4988
3.45415
3.41026
3.36803
3.32651
3.28673
3.24765
3.21045
3.17404
3.13979
3.10656
3.076
3.04705
3.02176
2.99938
2.98274
2.97205
2.97781
2.98927
3.03962
3.11267
3.2742
57.8485
49.6785
43.4225
38.495
34.5231
31.2594
28.5338
26.2259
24.2484
22.5363
21.0405
19.7231
18.5544