/*--------------------------------*- C++ -*----------------------------------*\
  =========                 |
  \\      /  F ield         | OpenFOAM: The Open Source CFD Toolbox
   \\    /   O peration     | Website:  https://openfoam.org
    \\  /    A nd           | Version:  8
     \\/     M anipulation  |
\*---------------------------------------------------------------------------*/
FoamFile
{
    version     2.0;
    format      ascii;
    class       volScalarField;
    location    "0.500023";
    object      nut;
}
// * * * * * * * * * * * * * * * * * * * * * * * * * * * * * * * * * * * * * //

dimensions      [0 2 -1 0 0 0 0];

internalField   nonuniform List<scalar> 
6800
(
0.0755983
0.109099
0.111531
0.110071
0.110075
0.094217
0.0756842
0.0566577
0.0463646
0.0474487
0.0604198
0.0969636
0.106241
0.105383
0.0989981
0.0770237
0.0570039
0.0493902
0.0456244
0.0383903
0.0600967
0.0951968
0.104662
0.0993392
0.0815282
0.0605676
0.0511503
0.0450252
0.0351027
0.0318209
0.0615991
0.0928749
0.0994135
0.091327
0.069512
0.0565868
0.0465032
0.0378107
0.0327435
0.0305956
0.0614992
0.0920074
0.0972081
0.0831361
0.0612406
0.0484942
0.0396567
0.0354477
0.0310826
0.0265092
0.0619829
0.0941739
0.0940151
0.0721613
0.0549207
0.0467477
0.0395395
0.0329549
0.0274914
0.0251818
0.0617784
0.0960662
0.0908938
0.0672745
0.0540958
0.0420776
0.0343274
0.0291244
0.026319
0.0245395
0.0619748
0.0995107
0.0852609
0.058277
0.0463049
0.040515
0.0330499
0.0293547
0.0250152
0.0230793
0.0618585
0.10188
0.0768824
0.0613105
0.0496507
0.0373077
0.0304261
0.0264523
0.0237314
0.0226691
0.062116
0.104169
0.0731305
0.053336
0.0404683
0.036141
0.0295431
0.0264056
0.0234346
0.0217405
0.0709451
0.382368
0.713679
0.933643
0.989033
1.01381
1.03551
1.05828
1.07291
1.07858
0.0712052
0.36819
0.693635
0.89406
0.941955
0.957872
0.969782
0.977085
0.972634
0.966519
0.0641401
0.320327
0.650387
0.819009
0.860102
0.868809
0.866929
0.86328
0.86164
0.848057
0.0596135
0.277674
0.576584
0.717016
0.752234
0.744038
0.735276
0.719571
0.685748
0.612105
0.0554812
0.256323
0.504868
0.608633
0.616336
0.604456
0.580285
0.517119
0.467701
0.352478
0.0537163
0.242713
0.446755
0.50186
0.499752
0.457781
0.394317
0.296723
0.238067
0.170175
0.0601374
0.251409
0.400298
0.410945
0.35168
0.268901
0.197866
0.151822
0.138131
0.106923
0.0605466
0.256241
0.317723
0.269065
0.197047
0.156428
0.13223
0.110227
0.105395
0.0854393
0.27291
0.274547
0.23245
0.163353
0.134506
0.12111
0.107315
0.0958103
0.0919364
0.0667615
0.197617
0.158676
0.139092
0.121297
0.115726
0.10903
0.0946679
0.0832833
0.0600666
0.0483826
1.08144
1.06886
1.04978
1.02927
1.00998
0.992756
0.977643
0.964875
0.954139
0.944898
0.936826
0.929728
0.923428
0.917796
0.912723
0.90812
0.903913
0.900044
0.896462
0.893127
0.890006
0.887074
0.884307
0.881697
0.879219
0.876842
0.874554
0.872355
0.870235
0.868176
0.866178
0.864246
0.862384
0.860598
0.85889
0.85726
0.855712
0.854244
0.852859
0.851555
0.850332
0.849192
0.848136
0.847164
0.846271
0.845456
0.84471
0.844029
0.84341
0.842847
0.842334
0.841863
0.841429
0.841025
0.840647
0.840291
0.839954
0.839633
0.839328
0.839036
0.838756
0.838489
0.838232
0.837987
0.837751
0.837524
0.837307
0.837097
0.836895
0.836699
0.836509
0.836325
0.836147
0.835975
0.835808
0.835649
0.835495
0.83535
0.835211
0.835083
0.834962
0.834857
0.834755
0.834678
0.834598
0.834557
0.834496
0.8345
0.834452
0.834516
0.834464
0.834607
0.834532
0.834779
0.834636
0.834995
0.834884
0.835038
0.836176
0.834645
0.969046
0.964692
0.953079
0.940007
0.927411
0.915875
0.905588
0.896949
0.889619
0.883288
0.877784
0.872978
0.86877
0.865079
0.861813
0.858892
0.856259
0.853861
0.85166
0.849622
0.847725
0.84595
0.84428
0.842725
0.841206
0.839691
0.838219
0.836815
0.835438
0.834064
0.832745
0.831497
0.830325
0.829229
0.828205
0.827252
0.826366
0.825544
0.824791
0.824094
0.823465
0.822914
0.822438
0.822034
0.821694
0.821414
0.821181
0.821004
0.820881
0.820799
0.820745
0.820714
0.820699
0.820695
0.820701
0.820712
0.820728
0.820746
0.820766
0.820787
0.82081
0.820834
0.820857
0.820878
0.820896
0.820916
0.820934
0.820949
0.820962
0.820975
0.820988
0.821002
0.821018
0.821037
0.821059
0.821085
0.821115
0.821151
0.821192
0.821243
0.821298
0.821368
0.821438
0.821533
0.821619
0.821745
0.821844
0.82201
0.822115
0.822336
0.822429
0.822727
0.822787
0.823189
0.823172
0.823696
0.823687
0.824013
0.825265
0.823935
0.853592
0.85352
0.84443
0.834704
0.825688
0.817699
0.810859
0.804219
0.798185
0.793045
0.788734
0.785161
0.782238
0.779888
0.777954
0.776363
0.775079
0.774039
0.773199
0.77252
0.771978
0.77155
0.771228
0.770984
0.770864
0.770877
0.771003
0.771173
0.771509
0.772011
0.772604
0.773246
0.773913
0.77459
0.775265
0.775934
0.776595
0.777247
0.777899
0.778527
0.779212
0.779952
0.780717
0.78149
0.782264
0.783031
0.783791
0.78453
0.785241
0.785927
0.786592
0.787239
0.787868
0.788479
0.789072
0.789647
0.790204
0.790742
0.791264
0.791766
0.792258
0.792723
0.793161
0.793578
0.793978
0.794372
0.794736
0.795082
0.795419
0.79575
0.796077
0.796403
0.796726
0.79705
0.797372
0.797696
0.798022
0.798353
0.798686
0.799027
0.799368
0.799721
0.800068
0.800438
0.800789
0.80118
0.801532
0.801954
0.802296
0.802766
0.803081
0.803622
0.803893
0.804539
0.804714
0.80548
0.805655
0.806235
0.807646
0.806559
0.608454
0.610386
0.610288
0.610376
0.61139
0.613285
0.615725
0.619143
0.623067
0.627412
0.631732
0.636122
0.640606
0.645225
0.649506
0.653694
0.657783
0.661705
0.665448
0.669008
0.672404
0.675648
0.678765
0.681764
0.684667
0.687487
0.690235
0.692933
0.695521
0.698012
0.700444
0.702817
0.705132
0.707385
0.709567
0.711684
0.71373
0.71573
0.717655
0.719581
0.721373
0.72305
0.724651
0.726203
0.72772
0.729216
0.730688
0.732149
0.73359
0.735006
0.736402
0.737777
0.73913
0.740458
0.741761
0.743037
0.744285
0.745503
0.746693
0.747856
0.748987
0.750101
0.751202
0.752285
0.753353
0.754395
0.755447
0.756499
0.75754
0.75857
0.759581
0.760578
0.761553
0.762516
0.763452
0.764386
0.765311
0.766231
0.767134
0.76803
0.768904
0.769777
0.77062
0.771475
0.772288
0.773133
0.773913
0.774763
0.775503
0.776376
0.777061
0.777983
0.778586
0.779588
0.780064
0.781178
0.781613
0.782557
0.784219
0.783513
0.340782
0.33585
0.334758
0.33729
0.34264
0.350491
0.359605
0.369964
0.380753
0.392567
0.402931
0.413969
0.425471
0.437348
0.446806
0.457121
0.467008
0.476393
0.485346
0.493922
0.502181
0.510149
0.517869
0.525345
0.532612
0.539656
0.546514
0.553159
0.559634
0.565886
0.57198
0.577842
0.583472
0.588845
0.593971
0.598896
0.603641
0.608226
0.61268
0.616995
0.621237
0.625403
0.629484
0.633482
0.637387
0.641219
0.644945
0.648613
0.652145
0.65558
0.658947
0.662232
0.665423
0.668521
0.67152
0.674424
0.67723
0.679946
0.682572
0.685114
0.687575
0.689962
0.69228
0.694534
0.696729
0.698869
0.700947
0.702973
0.704949
0.706884
0.708773
0.710625
0.712433
0.714205
0.715942
0.717629
0.719259
0.720852
0.722399
0.723922
0.725399
0.726866
0.728282
0.729706
0.731066
0.732462
0.733766
0.735152
0.736394
0.737791
0.738956
0.740392
0.74146
0.74297
0.74389
0.745497
0.746354
0.747815
0.749799
0.749827
0.167327
0.165797
0.16501
0.165386
0.166641
0.169119
0.172242
0.176524
0.18148
0.187309
0.193269
0.199816
0.207785
0.215151
0.224422
0.234065
0.244622
0.255507
0.266537
0.277703
0.288997
0.300324
0.311653
0.322883
0.334049
0.345023
0.355894
0.366502
0.376978
0.387126
0.397143
0.406419
0.415202
0.423437
0.431381
0.439271
0.446982
0.454547
0.461977
0.469289
0.476481
0.483569
0.490543
0.497413
0.504157
0.510797
0.517251
0.523731
0.529666
0.535651
0.541655
0.547402
0.552944
0.558305
0.563478
0.568487
0.573325
0.578024
0.582572
0.586981
0.591268
0.595441
0.599505
0.60347
0.607337
0.611116
0.614802
0.618409
0.621923
0.625368
0.628716
0.632005
0.635188
0.638329
0.641353
0.644346
0.647258
0.650122
0.652904
0.655638
0.658283
0.660898
0.66342
0.665936
0.668341
0.670778
0.673072
0.675454
0.677634
0.679986
0.682038
0.684391
0.686297
0.688691
0.690396
0.692856
0.694426
0.696802
0.699204
0.700556
0.105701
0.10428
0.10298
0.102053
0.101314
0.100868
0.100617
0.100685
0.100992
0.101545
0.102435
0.103431
0.104958
0.106382
0.108222
0.10992
0.112223
0.114539
0.117836
0.121121
0.125142
0.129442
0.134187
0.139323
0.144961
0.151012
0.157538
0.164408
0.171764
0.179434
0.187535
0.196266
0.205841
0.215843
0.226061
0.23648
0.247021
0.257663
0.268327
0.278995
0.289595
0.30012
0.31051
0.320762
0.330828
0.340715
0.350375
0.359839
0.369068
0.377828
0.386196
0.394185
0.40194
0.409521
0.416894
0.424125
0.431177
0.438164
0.44489
0.451471
0.458004
0.464414
0.470693
0.476857
0.482886
0.488804
0.49458
0.500252
0.505769
0.511183
0.516415
0.521568
0.526499
0.531422
0.53604
0.540804
0.545296
0.549748
0.554014
0.558202
0.562246
0.566273
0.570158
0.574048
0.577773
0.581554
0.585125
0.588817
0.592225
0.595851
0.599076
0.602664
0.60568
0.609271
0.612021
0.615648
0.618111
0.62175
0.624674
0.62807
0.0843857
0.0829759
0.0815835
0.0802615
0.0788987
0.0776707
0.0763104
0.0750393
0.0735823
0.0722538
0.0706881
0.0692918
0.0677975
0.066583
0.0655796
0.0646301
0.0639109
0.0632402
0.0628527
0.0625387
0.0624931
0.0625143
0.0628266
0.0631615
0.0638482
0.0646796
0.0654991
0.0666888
0.0681896
0.0699545
0.0718783
0.074073
0.0765807
0.079462
0.0826979
0.0863811
0.0904376
0.0949666
0.0998841
0.1053
0.111117
0.117422
0.1241
0.131239
0.1387
0.14658
0.15471
0.163211
0.17187
0.181054
0.19057
0.200484
0.210474
0.220541
0.230589
0.240629
0.250571
0.260426
0.270126
0.279676
0.289034
0.298223
0.307193
0.315987
0.324542
0.332931
0.341068
0.349062
0.356685
0.364108
0.371178
0.378123
0.384808
0.39146
0.397852
0.404252
0.410415
0.416615
0.422551
0.428573
0.434277
0.440142
0.445679
0.451249
0.456604
0.462084
0.467221
0.472562
0.477462
0.482684
0.487312
0.492436
0.496754
0.501829
0.505774
0.510837
0.514397
0.51957
0.522818
0.529031
0.0648876
0.0630093
0.0612097
0.0593654
0.0575803
0.0558502
0.0542694
0.0527561
0.0514563
0.0501739
0.0491668
0.0480793
0.0470103
0.0458752
0.0449056
0.0440505
0.0433129
0.0426498
0.0420761
0.0415539
0.0411092
0.0407
0.0403647
0.0400539
0.0398159
0.0395957
0.0394542
0.0393131
0.0392616
0.0392099
0.0392575
0.0392953
0.0394519
0.0395904
0.0399398
0.0402748
0.0406709
0.041068
0.0414984
0.0423565
0.0431735
0.0441912
0.0452948
0.0466369
0.0480941
0.0498209
0.0516979
0.0538984
0.0562713
0.0590046
0.0619434
0.065303
0.068904
0.0729631
0.0772794
0.0820671
0.0871195
0.0926367
0.0984121
0.104635
0.111087
0.117958
0.125014
0.132449
0.140014
0.147909
0.15587
0.164106
0.172462
0.181156
0.189863
0.198826
0.207594
0.216521
0.225179
0.233963
0.242414
0.250981
0.259159
0.26746
0.27532
0.283328
0.290847
0.298569
0.305718
0.313177
0.319955
0.327186
0.333586
0.340515
0.346416
0.353126
0.358525
0.365136
0.37013
0.37679
0.381112
0.388194
0.391614
0.401243
0.0474955
0.0459899
0.0444252
0.0431289
0.0420153
0.041033
0.0401446
0.0393288
0.0385814
0.037879
0.0372199
0.0366061
0.0360286
0.035488
0.0349791
0.0345076
0.0340669
0.0336619
0.0332843
0.0329397
0.0326187
0.0323271
0.0320557
0.0318099
0.0315814
0.0313751
0.0311831
0.0310113
0.0308508
0.0307089
0.0305749
0.0304605
0.0303461
0.0302523
0.0301685
0.0301128
0.0300295
0.0299932
0.0299291
0.0299109
0.0298741
0.0298927
0.0298936
0.02995
0.0299973
0.030089
0.0302016
0.0303791
0.0305582
0.0307712
0.0308982
0.0312711
0.0314272
0.0320238
0.0323265
0.0330405
0.0334808
0.0343401
0.0350522
0.0360936
0.0370559
0.0383822
0.0396326
0.0413072
0.0428965
0.0449789
0.046956
0.0494981
0.0519109
0.0549678
0.0578739
0.0615017
0.0649442
0.0691731
0.0731618
0.0780004
0.0825257
0.0879663
0.0929982
0.0990156
0.104501
0.111054
0.116918
0.123949
0.130099
0.137544
0.143873
0.151665
0.158056
0.166271
0.172736
0.181306
0.187673
0.196507
0.202557
0.211631
0.217109
0.226703
0.229407
0.244931
0.0384232
0.0375492
0.0367019
0.0358957
0.0351403
0.0344414
0.033784
0.033181
0.0326114
0.0320935
0.0316238
0.0311997
0.0308087
0.0304524
0.030119
0.0298135
0.0295232
0.0292569
0.0290022
0.0287712
0.0285465
0.0283441
0.0281437
0.0279652
0.0277849
0.0276262
0.0274624
0.0273201
0.0271701
0.0270413
0.0269032
0.026786
0.0266581
0.0265513
0.0264319
0.0263339
0.0262219
0.0261331
0.0260325
0.0259566
0.0258665
0.025802
0.0257218
0.0256682
0.0255973
0.0255543
0.0254922
0.0254601
0.0254069
0.0253864
0.0253411
0.0253321
0.0252958
0.0252985
0.0252758
0.0252904
0.0252841
0.025312
0.0253244
0.0253709
0.0254044
0.0254784
0.0255407
0.0256403
0.0257674
0.0258826
0.0259868
0.0262253
0.026364
0.0266617
0.0268507
0.0272535
0.0274951
0.0280398
0.0283567
0.0290726
0.029499
0.0304144
0.0309825
0.0321477
0.0328731
0.0343613
0.0352602
0.0371489
0.0382529
0.0405861
0.0419301
0.044744
0.0463453
0.049692
0.0515743
0.055503
0.057685
0.0622371
0.0646586
0.0697809
0.0723994
0.0778455
0.0816633
0.0885716
0.031831
0.0314109
0.0309987
0.030594
0.0301899
0.0297851
0.0293988
0.0290253
0.0286761
0.0283446
0.0280372
0.0277463
0.0274767
0.0272218
0.0269851
0.026761
0.0265519
0.0263538
0.0261656
0.0259843
0.0258115
0.0256457
0.0254871
0.0253361
0.025191
0.025054
0.0249212
0.0247973
0.0246759
0.0245642
0.0244531
0.024353
0.0242516
0.0241623
0.0240701
0.0239907
0.023907
0.0238364
0.0237601
0.0236967
0.0236265
0.0235688
0.0235036
0.0234502
0.0233893
0.0233398
0.023283
0.0232371
0.0231841
0.023142
0.0230925
0.0230544
0.023008
0.0229743
0.0229307
0.0229018
0.0228605
0.0228368
0.0227979
0.022779
0.0227426
0.0227251
0.022689
0.0226725
0.0226374
0.0226281
0.0225994
0.0225962
0.0225735
0.0225763
0.0225576
0.0225654
0.0225523
0.0225661
0.0225619
0.0225829
0.0225917
0.0226233
0.022649
0.0226954
0.0227434
0.0228145
0.0229002
0.0230517
0.0231133
0.0232314
0.0233305
0.0235468
0.0236638
0.0239671
0.024118
0.0245729
0.0247085
0.0253625
0.0254961
0.0262808
0.0265052
0.0276688
0.0290267
0.0292632
0.02748
0.0272386
0.0269915
0.0267317
0.0264714
0.0262071
0.0259502
0.0256941
0.0254498
0.0252085
0.0249811
0.0247575
0.0245487
0.0243437
0.0241536
0.023967
0.0237947
0.0236255
0.0234699
0.0233169
0.0231768
0.0230389
0.0229131
0.0227888
0.0226759
0.0225641
0.0224628
0.0223623
0.0222714
0.022181
0.0220993
0.022018
0.0219443
0.0218712
0.0218046
0.0217388
0.0216783
0.0216191
0.0215641
0.021511
0.021461
0.0214133
0.0213678
0.0213251
0.0212836
0.0212455
0.0212075
0.0211734
0.0211385
0.0211081
0.0210759
0.0210487
0.0210188
0.0209945
0.0209666
0.020945
0.0209187
0.0208997
0.0208747
0.0208581
0.0208341
0.02082
0.0207966
0.020785
0.020762
0.0207528
0.02073
0.0207234
0.0207004
0.0206963
0.0206731
0.0206716
0.0206479
0.0206489
0.0206246
0.0206282
0.0206034
0.0206096
0.0205843
0.0205932
0.0205676
0.0205793
0.0205537
0.02057
0.020545
0.0205657
0.020541
0.0205665
0.0205436
0.0205749
0.0205546
0.0205929
0.0205776
0.0206224
0.0206177
0.0206681
0.0206691
0.0207337
0.0207822
0.0208567
0.0244821
0.0243375
0.0241845
0.0240163
0.0238448
0.023666
0.0234918
0.0233153
0.0231478
0.0229804
0.0228242
0.0226687
0.0225255
0.0223827
0.0222526
0.0221223
0.0220049
0.0218865
0.0217809
0.0216736
0.021579
0.0214819
0.0213972
0.0213091
0.0212333
0.0211532
0.0210851
0.0210121
0.0209509
0.0208841
0.020829
0.0207676
0.0207179
0.0206611
0.020616
0.0205633
0.0205223
0.0204731
0.0204357
0.0203898
0.0203557
0.0203127
0.0202817
0.0202414
0.0202133
0.0201756
0.0201502
0.0201149
0.0200919
0.0200587
0.0200378
0.0200066
0.0199876
0.0199581
0.0199408
0.0199128
0.0198971
0.0198704
0.019856
0.0198305
0.0198173
0.019793
0.0197807
0.0197575
0.0197462
0.0197239
0.0197136
0.0196921
0.0196827
0.0196619
0.0196534
0.0196334
0.0196255
0.0196062
0.0195991
0.0195803
0.0195737
0.0195555
0.0195494
0.0195316
0.019526
0.0195086
0.0195034
0.0194865
0.0194817
0.0194652
0.0194609
0.0194448
0.0194408
0.0194251
0.0194215
0.019406
0.0194025
0.0193867
0.0193836
0.0193681
0.0193632
0.0193473
0.0192851
0.0193719
0.0222982
0.0222143
0.022123
0.0220169
0.0219067
0.0217879
0.0216712
0.0215498
0.0214337
0.0213151
0.0212039
0.0210912
0.0209871
0.0208819
0.0207859
0.0206886
0.0206009
0.0205115
0.0204318
0.0203498
0.0202775
0.0202023
0.0201368
0.0200679
0.0200086
0.0199453
0.0198917
0.0198334
0.0197849
0.0197312
0.0196873
0.0196377
0.0195981
0.0195521
0.0195163
0.0194736
0.0194412
0.0194015
0.0193723
0.0193353
0.0193088
0.0192742
0.0192503
0.0192178
0.0191962
0.0191656
0.0191461
0.0191172
0.0190995
0.0190721
0.0190562
0.0190301
0.0190157
0.0189909
0.0189779
0.0189543
0.0189425
0.0189198
0.0189092
0.0188875
0.0188779
0.018857
0.0188483
0.0188281
0.0188203
0.0188008
0.0187937
0.0187748
0.0187683
0.0187501
0.0187442
0.0187264
0.018721
0.0187039
0.0186989
0.0186822
0.0186776
0.0186615
0.0186572
0.0186417
0.0186376
0.0186226
0.0186188
0.0186043
0.0186006
0.0185867
0.018583
0.0185697
0.018566
0.0185533
0.0185495
0.0185374
0.0185334
0.0185219
0.0185176
0.0185069
0.0185018
0.0184918
0.0184877
0.018473
0.0207835
0.0207391
0.0206891
0.0206241
0.020556
0.0204778
0.0204016
0.0203186
0.0202404
0.0201574
0.0200809
0.0200006
0.019928
0.0198518
0.0197841
0.0197129
0.0196504
0.0195843
0.0195271
0.0194659
0.0194138
0.0193574
0.01931
0.0192578
0.0192147
0.0191664
0.0191272
0.0190824
0.0190467
0.019005
0.0189725
0.0189336
0.018904
0.0188675
0.0188406
0.0188063
0.0187818
0.0187495
0.0187272
0.0186968
0.0186763
0.0186475
0.0186289
0.0186015
0.0185845
0.0185584
0.0185427
0.0185178
0.0185034
0.0184795
0.0184663
0.0184433
0.0184312
0.0184089
0.0183978
0.0183763
0.0183661
0.0183453
0.0183359
0.0183157
0.018307
0.0182874
0.0182794
0.0182604
0.018253
0.0182345
0.0182276
0.0182095
0.0182031
0.0181855
0.0181795
0.0181623
0.0181567
0.01814
0.0181347
0.0181184
0.0181133
0.0180975
0.0180927
0.0180773
0.0180727
0.0180577
0.0180533
0.0180388
0.0180344
0.0180205
0.0180161
0.0180027
0.0179983
0.0179854
0.0179809
0.0179686
0.0179639
0.0179522
0.0179472
0.0179363
0.0179311
0.0179212
0.0179147
0.0179022
0.0197394
0.0197178
0.0196919
0.0196515
0.0196086
0.0195553
0.0195038
0.0194446
0.0193897
0.0193286
0.0192735
0.019213
0.0191596
0.0191012
0.0190507
0.0189952
0.018948
0.0188956
0.0188519
0.0188027
0.0187624
0.0187163
0.0186792
0.0186361
0.018602
0.0185617
0.0185304
0.0184925
0.0184639
0.0184283
0.0184021
0.0183685
0.0183445
0.0183128
0.0182907
0.0182607
0.0182405
0.018212
0.0181935
0.0181664
0.0181493
0.0181235
0.0181079
0.0180832
0.0180688
0.0180451
0.0180319
0.0180092
0.0179971
0.0179752
0.017964
0.0179429
0.0179326
0.0179122
0.0179028
0.017883
0.0178743
0.017855
0.017847
0.0178283
0.0178209
0.0178027
0.0177959
0.0177782
0.0177718
0.0177546
0.0177486
0.0177318
0.0177263
0.0177099
0.0177047
0.0176887
0.0176838
0.0176682
0.0176636
0.0176484
0.0176439
0.0176291
0.0176248
0.0176104
0.0176062
0.0175923
0.0175881
0.0175746
0.0175704
0.0175573
0.0175531
0.0175405
0.0175361
0.017524
0.0175194
0.0175079
0.017503
0.0174922
0.0174875
0.0174762
0.0174649
0.0174553
0.0175036
0.0173983
0.0189943
0.0189845
0.018972
0.018946
0.0189183
0.0188804
0.0188445
0.0188004
0.0187605
0.0187137
0.0186726
0.0186252
0.0185847
0.0185382
0.0184994
0.0184546
0.018418
0.0183752
0.0183411
0.0183005
0.0182689
0.0182305
0.0182014
0.0181651
0.0181382
0.0181039
0.0180793
0.0180468
0.0180241
0.0179933
0.0179725
0.0179432
0.0179242
0.0178963
0.0178788
0.0178522
0.0178362
0.0178106
0.0177959
0.0177714
0.0177579
0.0177344
0.017722
0.0176992
0.0176878
0.0176658
0.0176554
0.0176341
0.0176244
0.0176037
0.0175949
0.0175748
0.0175667
0.0175471
0.0175396
0.0175204
0.0175136
0.0174949
0.0174885
0.0174703
0.0174644
0.0174466
0.0174412
0.0174237
0.0174187
0.0174016
0.0173969
0.0173802
0.0173758
0.0173594
0.0173553
0.0173393
0.0173354
0.0173197
0.0173159
0.0173006
0.017297
0.0172821
0.0172785
0.017264
0.0172604
0.0172463
0.0172427
0.0172291
0.0172254
0.0172122
0.0172084
0.0171957
0.0171917
0.0171795
0.0171752
0.0171637
0.017159
0.0171479
0.0171422
0.0171329
0.017133
0.0171232
0.0170652
0.0171424
0.0184551
0.018451
0.0184458
0.0184288
0.0184104
0.0183825
0.0183563
0.0183225
0.0182922
0.0182552
0.0182233
0.0181851
0.0181532
0.0181152
0.0180842
0.0180472
0.0180177
0.017982
0.0179543
0.0179201
0.0178944
0.0178616
0.0178378
0.0178065
0.0177846
0.0177546
0.0177344
0.0177058
0.0176873
0.0176598
0.0176428
0.0176164
0.0176008
0.0175754
0.0175611
0.0175366
0.0175235
0.0174997
0.0174878
0.0174647
0.0174539
0.0174314
0.0174216
0.0173997
0.0173908
0.0173694
0.0173613
0.0173404
0.0173332
0.0173126
0.0173061
0.017286
0.0172802
0.0172603
0.0172552
0.0172356
0.0172311
0.0172117
0.0172078
0.0171886
0.0171853
0.0171663
0.0171635
0.0171447
0.0171423
0.0171237
0.0171218
0.0171033
0.0171018
0.0170834
0.0170823
0.0170641
0.0170633
0.0170452
0.0170448
0.0170268
0.0170267
0.0170088
0.0170089
0.0169911
0.0169916
0.0169739
0.0169745
0.016957
0.0169578
0.0169404
0.0169414
0.0169242
0.0169252
0.0169082
0.0169093
0.0168925
0.0168934
0.0168767
0.0168791
0.0168634
0.0168628
0.0168521
0.0168465
0.0168331
0.0180486
0.018047
0.0180462
0.0180352
0.0180227
0.0180018
0.017982
0.0179554
0.0179315
0.0179016
0.0178758
0.0178445
0.0178182
0.0177866
0.0177609
0.0177298
0.017705
0.0176748
0.0176514
0.0176222
0.0176002
0.0175722
0.0175517
0.0175248
0.0175058
0.0174799
0.0174624
0.0174374
0.0174212
0.0173972
0.0173823
0.017359
0.0173453
0.0173228
0.0173101
0.0172883
0.0172767
0.0172554
0.0172448
0.017224
0.0172143
0.017194
0.0171851
0.0171652
0.0171571
0.0171376
0.0171302
0.0171111
0.0171044
0.0170855
0.0170795
0.0170608
0.0170555
0.017037
0.0170322
0.017014
0.0170097
0.0169916
0.0169879
0.01697
0.0169668
0.0169489
0.0169462
0.0169285
0.0169262
0.0169085
0.0169066
0.0168891
0.0168876
0.0168701
0.016869
0.0168516
0.0168508
0.0168334
0.016833
0.0168157
0.0168155
0.0167983
0.0167984
0.0167812
0.0167815
0.0167645
0.016765
0.016748
0.0167488
0.0167319
0.0167328
0.016716
0.016717
0.0167004
0.0167016
0.016685
0.0166861
0.0166694
0.0166714
0.0166569
0.0166619
0.016651
0.0165973
0.0166677
0.0177391
0.0177417
0.0177439
0.0177366
0.0177279
0.0177115
0.0176961
0.0176743
0.0176549
0.0176299
0.0176085
0.0175821
0.01756
0.0175331
0.0175113
0.0174846
0.0174635
0.0174374
0.0174173
0.017392
0.017373
0.0173487
0.0173308
0.0173073
0.0172906
0.0172679
0.0172524
0.0172305
0.017216
0.0171948
0.0171813
0.0171607
0.0171481
0.0171282
0.0171165
0.0170971
0.0170862
0.0170673
0.0170572
0.0170386
0.0170293
0.0170111
0.0170025
0.0169847
0.0169766
0.0169592
0.0169517
0.0169345
0.0169276
0.0169107
0.0169043
0.0168877
0.0168817
0.0168653
0.0168598
0.0168436
0.0168385
0.0168225
0.0168178
0.016802
0.0167976
0.016782
0.016778
0.0167625
0.0167587
0.0167434
0.0167399
0.0167248
0.0167216
0.0167066
0.0167036
0.0166888
0.0166859
0.0166714
0.0166686
0.0166543
0.0166515
0.0166375
0.0166348
0.0166211
0.0166183
0.0166049
0.0166021
0.016589
0.0165861
0.0165734
0.0165703
0.0165581
0.0165548
0.016543
0.0165393
0.016528
0.0165244
0.0165141
0.0165078
0.0164968
0.0164944
0.0164758
0.0165166
0.0164213
0.0175005
0.0175055
0.0175093
0.0175042
0.0174981
0.0174849
0.0174726
0.0174543
0.0174383
0.017417
0.017399
0.0173762
0.0173573
0.017334
0.0173152
0.0172919
0.0172736
0.0172508
0.0172331
0.0172109
0.0171942
0.0171727
0.0171569
0.0171361
0.0171212
0.0171011
0.0170871
0.0170676
0.0170545
0.0170355
0.0170232
0.0170048
0.0169933
0.0169753
0.0169645
0.016947
0.0169368
0.0169197
0.0169101
0.0168933
0.0168844
0.0168679
0.0168595
0.0168433
0.0168355
0.0168195
0.0168121
0.0167965
0.0167895
0.0167741
0.0167676
0.0167523
0.0167462
0.0167312
0.0167255
0.0167106
0.0167052
0.0166905
0.0166854
0.0166708
0.0166661
0.0166517
0.0166472
0.0166329
0.0166287
0.0166146
0.0166106
0.0165967
0.0165928
0.0165791
0.0165754
0.0165618
0.0165583
0.0165449
0.0165414
0.0165282
0.0165249
0.0165119
0.0165086
0.0164958
0.0164925
0.01648
0.0164767
0.0164644
0.0164611
0.0164491
0.0164456
0.016434
0.0164304
0.0164192
0.0164153
0.0164044
0.0164007
0.0163908
0.0163845
0.0163737
0.0163716
0.016353
0.0163936
0.0162999
0.0173196
0.0173254
0.0173304
0.0173267
0.0173226
0.0173114
0.0173017
0.0172858
0.0172725
0.0172538
0.0172385
0.0172183
0.0172021
0.0171813
0.017165
0.0171442
0.0171281
0.0171076
0.017092
0.0170721
0.0170571
0.0170377
0.0170235
0.0170047
0.0169912
0.0169729
0.0169601
0.0169424
0.0169302
0.016913
0.0169014
0.0168847
0.0168737
0.0168574
0.0168469
0.0168311
0.0168211
0.0168056
0.0167961
0.0167809
0.0167718
0.016757
0.0167483
0.0167338
0.0167255
0.0167112
0.0167033
0.0166893
0.0166817
0.0166679
0.0166606
0.0166471
0.0166401
0.0166269
0.01662
0.0166071
0.0166004
0.0165877
0.0165812
0.0165688
0.0165625
0.0165503
0.0165441
0.0165321
0.016526
0.0165144
0.0165083
0.016497
0.0164909
0.0164799
0.0164738
0.0164631
0.0164569
0.0164466
0.0164404
0.0164304
0.016424
0.0164145
0.0164079
0.0163988
0.016392
0.0163834
0.0163764
0.0163683
0.0163609
0.0163533
0.0163455
0.0163386
0.0163304
0.0163242
0.0163154
0.0163099
0.0163008
0.016296
0.0162849
0.0162806
0.0162718
0.0162642
0.0162575
0.0162495
0.0171846
0.01719
0.0171956
0.0171922
0.0171895
0.0171793
0.0171713
0.0171567
0.0171453
0.0171279
0.0171147
0.0170958
0.0170816
0.0170621
0.0170477
0.017028
0.0170138
0.0169944
0.0169806
0.0169616
0.0169483
0.0169298
0.0169171
0.0168991
0.016887
0.0168695
0.016858
0.016841
0.01683
0.0168134
0.016803
0.0167868
0.0167768
0.0167611
0.0167516
0.0167362
0.0167271
0.016712
0.0167033
0.0166886
0.0166802
0.0166658
0.0166577
0.0166436
0.0166358
0.016622
0.0166145
0.016601
0.0165938
0.0165805
0.0165735
0.0165604
0.0165536
0.0165408
0.0165342
0.0165217
0.0165152
0.0165029
0.0164966
0.0164846
0.0164783
0.0164666
0.0164604
0.0164489
0.0164427
0.0164316
0.0164254
0.0164146
0.0164084
0.0163978
0.0163916
0.0163814
0.0163751
0.0163652
0.0163588
0.0163494
0.0163427
0.0163337
0.0163269
0.0163183
0.0163112
0.0163032
0.0162957
0.0162882
0.0162805
0.0162735
0.0162653
0.016259
0.0162504
0.0162448
0.0162355
0.0162307
0.016221
0.0162171
0.0162059
0.0162012
0.0161865
0.0161799
0.0162214
0.0161286
0.0170746
0.0170794
0.0170852
0.0170819
0.0170801
0.0170704
0.0170637
0.0170498
0.01704
0.0170234
0.0170118
0.0169938
0.0169813
0.0169626
0.0169499
0.0169311
0.0169185
0.0168999
0.0168877
0.0168694
0.0168577
0.0168398
0.0168287
0.0168112
0.0168006
0.0167835
0.0167734
0.0167568
0.0167472
0.0167309
0.0167217
0.0167059
0.0166971
0.0166815
0.0166731
0.0166579
0.0166499
0.0166349
0.0166272
0.0166125
0.0166051
0.0165907
0.0165835
0.0165694
0.0165625
0.0165486
0.0165419
0.0165283
0.0165218
0.0165084
0.0165021
0.0164889
0.0164827
0.0164698
0.0164638
0.0164511
0.0164452
0.0164328
0.0164269
0.0164148
0.016409
0.0163971
0.0163913
0.0163797
0.016374
0.0163626
0.0163569
0.0163459
0.0163401
0.0163294
0.0163235
0.0163131
0.0163071
0.0162971
0.016291
0.0162814
0.0162751
0.0162659
0.0162594
0.0162506
0.0162438
0.0162356
0.0162285
0.0162208
0.0162133
0.0162062
0.0161983
0.0161918
0.0161834
0.0161775
0.0161687
0.0161637
0.016154
0.0161494
0.0161405
0.0161366
0.0161201
0.016122
0.016121
0.0161073
0.0169866
0.0169911
0.016997
0.0169938
0.0169928
0.0169836
0.016978
0.0169648
0.0169562
0.0169405
0.0169303
0.0169131
0.0169021
0.0168842
0.016873
0.0168549
0.0168439
0.0168258
0.0168151
0.0167972
0.016787
0.0167694
0.0167597
0.0167423
0.0167331
0.016716
0.0167072
0.0166904
0.0166821
0.0166655
0.0166576
0.0166413
0.0166337
0.0166176
0.0166104
0.0165945
0.0165876
0.0165719
0.0165654
0.0165499
0.0165436
0.0165283
0.0165223
0.0165072
0.0165015
0.0164865
0.016481
0.0164663
0.016461
0.0164464
0.0164413
0.016427
0.016422
0.0164079
0.0164031
0.0163892
0.0163845
0.0163708
0.0163662
0.0163528
0.0163483
0.0163351
0.0163306
0.0163176
0.0163132
0.0163005
0.0162961
0.0162837
0.0162792
0.0162672
0.0162626
0.0162509
0.0162462
0.0162349
0.01623
0.0162192
0.0162141
0.0162037
0.0161983
0.0161884
0.0161827
0.0161734
0.0161673
0.0161586
0.0161521
0.0161441
0.0161371
0.0161297
0.0161221
0.0161156
0.0161074
0.0161018
0.0160926
0.0160874
0.0160783
0.016075
0.0160639
0.0160653
0.0160149
0.0160855
0.0169223
0.0169265
0.016932
0.0169289
0.016928
0.0169193
0.016914
0.0169015
0.0168934
0.0168785
0.0168687
0.0168522
0.0168416
0.0168243
0.0168134
0.0167957
0.0167849
0.0167671
0.0167566
0.0167387
0.0167286
0.0167108
0.0167012
0.0166834
0.0166742
0.0166566
0.0166479
0.0166304
0.0166222
0.0166048
0.0165971
0.0165798
0.0165726
0.0165555
0.0165487
0.0165317
0.0165254
0.0165085
0.0165027
0.016486
0.0164806
0.0164639
0.0164591
0.0164424
0.0164379
0.0164213
0.0164172
0.0164006
0.016397
0.0163804
0.0163772
0.0163606
0.0163578
0.0163413
0.0163389
0.0163223
0.0163203
0.0163038
0.0163021
0.0162857
0.0162843
0.0162679
0.0162669
0.0162504
0.0162498
0.0162333
0.016233
0.0162165
0.0162165
0.0162
0.0162002
0.0161838
0.0161843
0.0161679
0.0161686
0.0161522
0.0161531
0.0161368
0.0161379
0.0161216
0.0161229
0.0161066
0.0161081
0.0160919
0.0160934
0.0160773
0.016079
0.016063
0.0160647
0.0160489
0.0160507
0.0160349
0.0160365
0.0160209
0.0160238
0.016009
0.016009
0.0159987
0.0159944
0.0159815
0.0168722
0.0168761
0.0168811
0.0168779
0.0168766
0.0168679
0.0168621
0.0168495
0.0168406
0.0168252
0.0168142
0.0167971
0.0167851
0.016767
0.0167545
0.016736
0.0167236
0.016705
0.0166927
0.0166737
0.0166616
0.0166427
0.0166311
0.0166125
0.0166015
0.0165834
0.0165732
0.0165555
0.016546
0.0165288
0.0165201
0.0165033
0.0164953
0.0164789
0.0164716
0.0164555
0.0164488
0.0164329
0.0164268
0.0164112
0.0164056
0.0163901
0.016385
0.0163698
0.0163652
0.0163501
0.0163459
0.016331
0.0163272
0.0163124
0.016309
0.0162943
0.0162912
0.0162765
0.0162738
0.0162591
0.0162567
0.0162421
0.01624
0.0162253
0.0162235
0.0162089
0.0162073
0.0161927
0.0161914
0.0161767
0.0161757
0.0161611
0.0161603
0.0161456
0.016145
0.0161304
0.01613
0.0161154
0.0161152
0.0161005
0.0161006
0.0160859
0.0160861
0.0160715
0.0160719
0.0160573
0.0160578
0.0160432
0.0160438
0.0160293
0.0160301
0.0160156
0.0160164
0.0160021
0.016003
0.0159887
0.0159896
0.0159751
0.0159769
0.0159644
0.0159691
0.0159599
0.01591
0.0159772
0.0168359
0.0168376
0.0168397
0.0168325
0.0168269
0.0168131
0.0168024
0.0167844
0.0167707
0.0167505
0.0167357
0.0167148
0.0166999
0.0166792
0.0166651
0.0166451
0.0166321
0.016613
0.0166014
0.0165838
0.0165737
0.0165572
0.0165483
0.0165327
0.0165248
0.0165098
0.0165026
0.016488
0.0164815
0.0164672
0.0164611
0.016447
0.0164413
0.0164274
0.0164221
0.0164082
0.0164032
0.0163894
0.0163848
0.016371
0.0163666
0.0163528
0.0163487
0.016335
0.0163311
0.0163174
0.0163138
0.0163001
0.0162967
0.016283
0.0162798
0.0162661
0.0162631
0.0162495
0.0162467