/*--------------------------------*- C++ -*----------------------------------*\
  =========                 |
  \\      /  F ield         | OpenFOAM: The Open Source CFD Toolbox
   \\    /   O peration     | Website:  https://openfoam.org
    \\  /    A nd           | Version:  8
     \\/     M anipulation  |
\*---------------------------------------------------------------------------*/
FoamFile
{
    version     2.0;
    format      ascii;
    class       volScalarField;
    location    "0.500023";
    object      p;
}
// * * * * * * * * * * * * * * * * * * * * * * * * * * * * * * * * * * * * * //

dimensions      [1 -1 -2 0 0 0 0];

internalField   nonuniform List<scalar> 
6800
(
99483.5
99815.6
99850.6
99873.8
99919.2
99969.9
100025
100084
100143
100190
99044.9
99613
99608.4
99656.6
99733
99806
99880.3
99956.6
100032
100102
98346.6
99245.2
99239.9
99359.2
99486.8
99597.8
99704
99807.3
99906.5
100000
97463.7
98735.5
98763
98994.9
99189.8
99353.2
99501.6
99639.2
99767.1
99885.1
96474.1
98124.6
98214
98587.6
98859.6
99086.3
99284.1
99460.8
99619.9
99763.4
95457.9
97464.6
97638.7
98167.7
98519.3
98815.5
99065.6
99283.2
99474.7
99644.1
94491.3
96809.1
97084.9
97766.7
98194.4
98560.9
98862
99120
99342.6
99537
93640.7
96209.4
96594.5
97414.6
97910.2
98342.6
98689.7
98984.4
99234.6
99451.7
92958.4
95708.5
96203.5
97137.3
97689.6
98178.2
98563.7
98889.2
99161.7
99398
92481.5
95341.5
95938
96954.2
97550.9
98082.7
98496.8
98845
99133.1
99384.1
100354
100213
100168
100174
100213
100277
100363
100468
100583
100699
100297
100183
100138
100141
100176
100237
100325
100436
100560
100687
100203
100120
100086
100087
100122
100186
100279
100397
100535
100680
100096
100049
100034
100041
100077
100150
100255
100379
100520
100675
99999.9
99994.9
100001
100023
100068
100149
100254
100374
100504
100653
99927.6
99968.5
100005
100039
100095
100173
100266
100369
100481
100608
99872.5
99971.3
100030
100077
100130
100194
100271
100357
100448
100550
99804
99964.9
100046
100096
100141
100195
100258
100329
100403
100483
99729.6
99921.9
100030
100077
100115
100161
100215
100277
100341
100412
99670.4
99876.1
99973.3
100009
100044
100087
100138
100195
100258
100328
100832
100965
101070
101157
101228
101285
101332
101371
101403
101430
101452
101471
101486
101499
101509
101517
101523
101527
101530
101532
101532
101532
101531
101529
101526
101524
101520
101516
101512
101508
101504
101499
101494
101490
101485
101480
101475
101470
101465
101461
101456
101451
101447
101442
101438
101434
101430
101426
101422
101418
101414
101411
101407
101404
101401
101398
101395
101392
101389
101386
101384
101381
101379
101376
101374
101372
101370
101368
101366
101364
101362
101360
101359
101357
101356
101354
101353
101351
101350
101349
101347
101346
101345
101344
101343
101342
101340
101339
101338
101337
101336
101335
101334
101333
101333
101332
101331
101330
101330
101330
100816
100954
101062
101149
101220
101278
101325
101365
101398
101426
101449
101468
101483
101496
101507
101515
101521
101525
101529
101530
101531
101531
101530
101528
101526
101523
101519
101516
101512
101508
101503
101499
101494
101489
101484
101479
101475
101470
101465
101460
101456
101451
101446
101442
101438
101433
101429
101425
101421
101418
101414
101411
101407
101404
101401
101397
101394
101392
101389
101386
101383
101381
101379
101376
101374
101372
101370
101368
101366
101364
101362
101360
101359
101357
101356
101354
101353
101351
101350
101349
101347
101346
101345
101344
101343
101341
101340
101339
101338
101337
101336
101335
101334
101333
101332
101332
101331
101330
101329
101329
100797
100934
101044
101132
101204
101264
101314
101355
101389
101418
101442
101462
101478
101492
101503
101511
101518
101523
101526
101528
101529
101529
101528
101527
101524
101522
101518
101515
101511
101507
101502
101498
101493
101488
101484
101479
101474
101469
101465
101460
101455
101451
101446
101442
101437
101433
101429
101425
101421
101417
101414
101410
101407
101404
101400
101397
101394
101391
101389
101386
101383
101381
101378
101376
101374
101372
101370
101368
101366
101364
101362
101360
101359
101357
101356
101354
101353
101351
101350
101349
101347
101346
101345
101344
101343
101341
101340
101339
101338
101337
101336
101335
101334
101333
101332
101332
101331
101330
101329
101329
100761
100895
101012
101105
101180
101243
101296
101340
101376
101407
101432
101453
101471
101485
101496
101506
101513
101518
101522
101524
101526
101526
101525
101524
101522
101519
101516
101513
101509
101505
101501
101497
101492
101487
101483
101478
101473
101468
101464
101459
101454
101450
101445
101441
101437
101433
101429
101425
101421
101417
101413
101410
101406
101403
101400
101397
101394
101391
101388
101386
101383
101381
101378
101376
101374
101371
101369
101367
101365
101364
101362
101360
101358
101357
101355
101354
101352
101351
101350
101348
101347
101346
101345
101344
101342
101341
101340
101339
101338
101337
101336
101335
101334
101333
101332
101331
101330
101330
101329
101328
100699
100833
100965
101067
101147
101215
101272
101319
101359
101392
101419
101442
101461
101476
101489
101499
101507
101512
101517
101520
101521
101522
101522
101521
101519
101517
101514
101511
101507
101503
101499
101495
101491
101486
101481
101477
101472
101467
101463
101458
101454
101449
101445
101440
101436
101432
101428
101424
101420
101416
101413
101409
101406
101403
101399
101396
101393
101391
101388
101385
101383
101380
101378
101375
101373
101371
101369
101367
101365
101363
101362
101360
101358
101357
101355
101354
101352
101351
101350
101348
101347
101346
101345
101343
101342
101341
101340
101339
101338
101337
101336
101335
101334
101333
101332
101331
101330
101329
101328
101328
100619
100752
100900
101015
101102
101174
101236
101289
101333
101369
101400
101425
101446
101463
101477
101489
101498
101505
101510
101514
101516
101517
101518
101517
101516
101514
101511
101508
101505
101501
101497
101493
101489
101484
101480
101475
101470
101466
101461
101457
101452
101448
101444
101439
101435
101431
101427
101423
101419
101416
101412
101409
101405
101402
101399
101396
101393
101390
101387
101385
101382
101380
101377
101375
101373
101371
101369
101367
101365
101363
101361
101360
101358
101356
101355
101353
101352
101351
101349
101348
101347
101346
101344
101343
101342
101341
101340
101339
101338
101337
101336
101335
101334
101333
101332
101331
101330
101329
101328
101327
100541
100671
100827
100951
101046
101124
101191
101249
101297
101338
101371
101400
101424
101443
101460
101473
101484
101492
101499
101504
101507
101509
101510
101510
101510
101508
101506
101504
101501
101498
101494
101490
101486
101482
101478
101473
101469
101464
101460
101456
101451
101447
101442
101438
101434
101430
101426
101422
101418
101415
101411
101408
101404
101401
101398
101395
101392
101389
101387
101384
101382
101379
101377
101375
101372
101370
101368
101366
101365
101363
101361
101359
101358
101356
101355
101353
101352
101350
101349
101348
101347
101345
101344
101343
101342
101341
101340
101339
101338
101337
101336
101335
101334
101333
101332
101331
101330
101329
101327
101326
100474
100596
100752
100884
100987
101071
101143
101205
101257
101302
101339
101371
101397
101419
101438
101453
101465
101475
101483
101489
101494
101497
101499
101500
101500
101499
101498
101496
101494
101491
101488
101485
101481
101477
101474
101470
101465
101461
101457
101453
101449
101445
101441
101437
101433
101429
101425
101421
101418
101414
101411
101407
101404
101401
101398
101395
101392
101389
101386
101384
101381
101379
101376
101374
101372
101370
101368
101366
101364
101362
101361
101359
101357
101356
101354
101353
101351
101350
101349
101348
101346
101345
101344
101343
101342
101341
101340
101339
101338
101337
101336
101335
101334
101333
101332
101331
101330
101328
101327
101325
100416
100529
100678
100812
100923
101016
101094
101161
101218
101267
101308
101343
101372
101396
101417
101434
101448
101460
101469
101476
101482
101486
101489
101490
101491
101491
101490
101489
101487
101485
101482
101479
101475
101472
101468
101465
101461
101457
101453
101449
101445
101441
101437
101433
101429
101426
101422
101419
101415
101412
101408
101405
101402
101399
101396
101393
101390
101388
101385
101383
101380
101378
101376
101373
101371
101369
101367
101365
101364
101362
101360
101359
101357
101355
101354
101353
101351
101350
101349
101347
101346
101345
101344
101343
101342
101341
101339
101338
101337
101336
101336
101335
101334
101333
101332
101330
101329
101328
101327
101325
100364
100467
100600
100729
100843
100942
101026
101100
101163
101217
101263
101302
101336
101364
101388
101408
101424
101438
101449
101458
101466
101471
101475
101478
101480
101481
101481
101480
101479
101477
101475
101472
101469
101466
101463
101460
101456
101453
101449
101445
101441
101438
101434
101430
101427
101423
101419
101416
101413
101409
101406
101403
101400
101397
101394
101391
101389
101386
101383
101381
101379
101376
101374
101372
101370
101368
101366
101364
101363
101361
101359
101358
101356
101355
101353
101352
101351
101350
101348
101347
101346
101345
101344
101343
101342
101341
101340
101339
101338
101337
101336
101335
101334
101333
101332
101331
101329
101328
101327
101325
100338
100457
100581
100704
100815
100914
100999
101073
101137
101193
101240
101281
101316
101345
101370
101391
101409
101424
101436
101445
101453
101460
101464
101468
101470
101471
101472
101472
101471
101469
101468
101465
101463
101460
101457
101454
101451
101447
101444
101440
101437
101433
101430
101426
101423
101419
101416
101413
101409
101406
101403
101400
101397
101394
101391
101389
101386
101384
101381
101379
101377
101374
101372
101370
101368
101366
101365
101363
101361
101360
101358
101356
101355
101354
101352
101351
101350
101348
101347
101346
101345
101344
101343
101342
101341
101340
101339
101338
101337
101336
101335
101334
101333
101332
101331
101330
101329
101328
101327
101325
100367
100490
100612
100727
100832
100924
101004
101075
101136
101189
101234
101273
101307
101336
101360
101381
101398
101413
101425
101435
101443
101449
101454
101458
101460
101462
101462
101462
101462
101461
101459
101457
101455
101452
101450
101447
101444
101441
101437
101434
101431
101427
101424
101421
101418
101414
101411
101408
101405
101402
101399
101396
101393
101391
101388
101386
101383
101381
101378
101376
101374
101372
101370
101368
101366
101364
101363
101361
101359
101358
101356
101355
101354
101352
101351
101350
101349
101347
101346
101345
101344
101343
101342
101341
101340
101339
101338
101337
101336
101335
101335
101334
101333
101332
101331
101330
101329
101328
101327
101325
100399
100514
100630
100738
100835
100921
100998
101065
101125
101176
101221
101260
101293
101322
101347
101368
101385
101400
101413
101423
101431
101438
101443
101447
101450
101452
101453
101453
101453
101452
101451
101449
101447
101445
101443
101440
101437
101434
101431
101428
101425
101422
101419
101416
101413
101410
101407
101404
101401
101398
101396
101393
101390
101388
101385
101383
101380
101378
101376
101374
101372
101370
101368
101366
101364
101363
101361
101359
101358
101356
101355
101354
101352
101351
101350
101349
101347
101346
101345
101344
101343
101342
101341
101340
101339
101338
101338
101337
101336
101335
101334
101333
101332
101331
101331
101330
101329
101328
101327
101326
100437
100545
100655
100757
100848
100930
101002
101066
101123
101173
101216
101253
101286
101314
101338
101358
101376
101391
101403
101413
101422
101428
101434
101438
101441
101443
101444
101445
101445
101444
101443
101442
101440
101438
101436
101433
101431
101428
101425
101423
101420
101417
101414
101411
101408
101405
101402
101400
101397
101394
101392
101389
101387
101384
101382
101380
101377
101375
101373
101371
101369
101367
101366
101364
101362
101361
101359
101358
101356
101355
101353
101352
101351
101350
101348
101347
101346
101345
101344
101343
101342
101341
101340
101339
101339
101338
101337
101336
101335
101334
101334
101333
101332
101331
101330
101329
101328
101327
101327
101326
100481
100580
100684
100779
100863
100939
101007
101068
101121
101169
101210
101246
101278
101305
101329
101349
101366
101381
101393
101403
101411
101418
101424
101428
101431
101434
101435
101436
101436
101436
101435
101434
101432
101431
101429
101427
101424
101422
101419
101417
101414
101411
101409
101406
101403
101401
101398
101395
101393
101390
101388
101386
101383
101381
101379
101377
101375
101373
101371
101369
101367
101365
101363
101362
101360
101359
101357
101356
101354
101353
101352
101351
101349
101348
101347
101346
101345
101344
101343
101342
101341
101340
101339
101339
101338
101337
101336
101335
101335
101334
101333
101332
101332
101331
101330
101329
101328
101327
101326
101326
100529
100619
100715
100804
100882
100952
101016
101073
101124
101168
101208
101243
101273
101299
101322
101341
101358
101372
101384
101394
101403
101410
101415
101419
101423
101425
101427
101428
101428
101428
101427
101426
101425
101424
101422
101420
101418
101415
101413
101411
101408
101406
101403
101401
101398
101396
101393
101391
101389
101386
101384
101382
101380
101378
101375
101373
101372
101370
101368
101366
101364
101363
101361
101360
101358
101357
101355
101354
101353
101351
101350
101349
101348
101347
101346
101345
101344
101343
101342
101341
101340
101339
101339
101338
101337
101336
101335
101335
101334
101333
101333
101332
101331
101330
101330
101329
101328
101327
101326
101326
100581
100661
100750
100831
100904
100968
101027
101080
101128
101170
101207
101240
101269
101294
101316
101335
101351
101365
101376
101386
101394
101401
101406
101411
101414
101417
101418
101419
101420
101420
101420
101419
101418
101416
101415
101413
101411
101409
101407
101405
101403
101400
101398
101396
101393
101391
101389
101387
101384
101382
101380
101378
101376
101374
101372
101370
101369
101367
101365
101363
101362
101360
101359
101357
101356
101355
101353
101352
101351
101350
101349
101348
101346
101345
101344
101344
101343
101342
101341
101340
101339
101338
101338
101337
101336
101336
101335
101334
101333
101333
101332
101331
101331
101330
101329
101329
101328
101327
101326
101326
100635
100707
100787
100861
100927
100987
101041
101090
101135
101174
101209
101240
101267
101291
101311
101329
101345
101358
101369
101379
101387
101393
101398
101403
101406
101409
101410
101411
101412
101412
101412
101411
101410
101409
101408
101406
101405
101403
101401
101399
101397
101395
101393
101391
101388
101386
101384
101382
101380
101378
101376
101374
101372
101371
101369
101367
101365
101364
101362
101361
101359
101358
101356
101355
101354
101353
101351
101350
101349
101348
101347
101346
101345
101344
101343
101342
101341
101341
101340
101339
101338
101338
101337
101336
101335
101335
101334
101333
101333
101332
101332
101331
101330
101330
101329
101328
101328
101327
101326
101326
100691
100754
100826
100894
100954
101008
101057
101102
101143
101180
101212
101241
101266
101288
101308
101325
101339
101352
101363
101372
101379
101386
101391
101395
101398
101401
101402
101404
101404
101405
101404
101404
101403
101402
101401
101400
101398
101396
101395
101393
101391
101389
101387
101385
101383
101382
101380
101378
101376
101374
101372
101370
101369
101367
101365
101364
101362
101361
101359
101358
101357
101355
101354
101353
101352
101350
101349
101348
101347
101346
101345
101344
101343
101343
101342
101341
101340
101339
101339
101338
101337
101337
101336
101335
101335
101334
101333
101333
101332
101332
101331
101330
101330
101329
101329
101328
101327
101327
101326
101326
100748
100803
100867
100928
100982
101030
101075
101116
101154
101187
101217
101243
101267
101288
101306
101321
101335
101347
101357
101365
101373
101379
101384
101387
101391
101393
101395
101396
101397
101397
101397
101397
101396
101395
101394
101393
101392
101390
101389
101387
101385
101384
101382
101380
101378
101377
101375
101373
101372
101370
101368
101367
101365
101364
101362
101361
101359
101358
101356
101355
101354
101353
101352
101350
101349
101348
101347
101346
101345
101344
101344
101343
101342
101341
101340
101340
101339
101338
101337
101337
101336
101336
101335
101334
101334
101333
101333
101332
101332
101331
101330
101330
101329
101329
101328
101328
101327
101327
101326
101325
100806
100853
100909
100963
101011
101055
101095
101132
101166
101196
101223
101247
101269
101288
101304
101319
101332
101342
101352
101360
101366
101372
101377
101380
101383
101386
101387
101389
101389
101390
101390
101390
101389
101388
101387
101386
101385
101384
101383
101381
101380
101378
101377
101375
101373
101372
101370
101369
101367
101366
101364
101363
101361
101360
101359
101357
101356
101355
101354
101352
101351
101350
101349
101348
101347
101346
101345
101344
101343
101343
101342
101341
101340
101340
101339
101338
101338
101337
101336
101336
101335
101335
101334
101334
101333
101332
101332
101331
101331
101330
101330
101329
101329
101328
101328
101327
101327
101326
101326
101325
100863
100903
100953
100999
101042
101080
101116
101149
101179
101206
101231
101252
101272
101289
101304
101317
101329
101339
101347
101355
101361
101366
101370
101374
101376
101379
101380
101381
101382
101383
101383
101383
101382
101382
101381
101380
101379
101378
101376
101375
101374
101372
101371
101370
101368
101367
101366
101364
101363
101361
101360
101359
101358
101356
101355
101354
101353
101352
101351
101350
101349
101348
101347
101346
101345
101344
101343
101342
101342
101341
101340
101339
101339
101338
101337
101337
101336
101336
101335
101335
101334
101334
101333
101333
101332
101332
101331
101331
101330
101330
101329
101329
101329
101328
101328
101327
101327
101326
101326
101325
100920
100954
100996
101037
101073
101107
101138
101167
101194
101218
101239
101259
101276
101291
101305
101316
101327
101336
101343
101350
101355
101360
101364
101367
101370
101372
101373
101374
101375
101376
101376
101376
101375
101375
101374
101373
101372
101371
101370
101369
101368
101367
101366
101364
101363
101362
101361
101360
101358
101357
101356
101355
101354
101353
101352
101351
101350
101349
101348
101347
101346
101345
101344
101343
101343
101342
101341
101340
101340
101339
101338
101338
101337
101337
101336
101335
101335
101334
101334
101334
101333
101333
101332
101332
101331
101331
101331
101330
101330
101329
101329
101329
101328
101328
101327
101327
101327
101326
101326
101325
100977
101005
101040
101075
101106
101135
101162
101186
101209
101230
101249
101266
101281
101294
101306
101316
101325
101333
101340
101346
101351
101355
101358
101361
101363
101365
101367
101368
101368
101369
101369
101369
101368
101368
101367
101367
101366
101365
101364
101363
101362
101361
101360
101359
101358
101357
101356
101355
101354
101353
101352
101351
101350
101349
101348
101347
101346
101345
101345
101344
101343
101342
101342
101341
101340
101340
101339
101338
101338
101337
101337
101336
101336
101335
101335
101334
101334
101333
101333
101332
101332
101332
101331
101331
101330
101330
101330
101329
101329
101329
101328
101328
101328
101327
101327
101327
101326
101326
101326
101325
101033
101056
101085
101113
101139
101163
101186
101207
101226
101243
101259
101273
101286
101298
101308
101317
101324
101331
101337
101342
101346
101350
101353
101355
101357
101359
101360
101361
101361
101362
101362
101362
101362
101361
101361
101360
101360
101359
101358
101357
101357
101356
101355
101354
101353
101352
101351
101350
101350
101349
101348
101347
101346
101345
101345
101344
101343
101342
101342
101341
101340
101340
101339
101338
101338
101337
101337
101336
101336
101335
101335
101334
101334
101334
101333
101333
101332
101332
101332
101331
101331
101331
101330
101330
101330
101329
101329
101329
101328
101328
101328
101328
101327
101327
101327
101326
101326
101326
101326
101325
101088
101106
101129
101152
101173
101192
101210
101227
101243
101257
101270
101282
101292
101302
101310
101317
101324
101329
101334
101338
101342
101345
101347
101349
101351
101352
101353
101354
101355
101355
101355
101355
101355
101355
101354
101354
101353
101353
101352
101352
101351
101350
101349
101349
101348
101347
101347
101346
101345
101344
101344
101343
101342
101342
101341
101340
101340
101339
101339
101338
101338
101337
101337
101336
101336
101335
101335
101334
101334
101333
101333
101333
101332
101332
101332
101331
101331
101331
101330
101330
101330
101330
101329
101329
101329
101329
101328
101328
101328
101328
101327
101327
101327
101327
101326
101326
101326
101326
101325
101325
101142
101155
101173
101190
101206
101221
101235
101249
101261
101272
101282
101291
101299
101306
101313
101319
101324
101328
101332
101335
101338
101340
101342
101344
101345
101346
101347
101348
101348
101348
101348
101348
101348
101348
101348
101347
101347
101347
101346
101346
101345
101345
101344
101343
101343
101342
101342
101341
101341
101340
101340
101339
101338
101338
101337
101337
101337
101336
101336
101335
101335
101334
101334
101334
101333
101333
101333
101332
101332
101332
101331
101331
101331
101330
101330
101330
101330
101329
101329
101329
101329
101329
101328
101328
101328
101328
101328
101327
101327
101327
101327
101327
101326
101326
101326
101326
101326
101326
101325
101325
101195
101204
101217
101229
101240
101251
101261
101270
101279
101287
101294
101300
101306
101311
101316
101320
101324
101327
101330
101332
101334
101336
101337
101338
101339
101340
101341
101341
101341
101342
101342
101342
101342
101341
101341
101341
101341
101340
101340
101340
101339
101339
101339
101338
101338
101337
101337
101337
101336
101336
101335
101335
101335
101334
101334
101334
101333
101333
101333
101332
101332
101332
101331
101331
101331
101331
101330
101330
101330
101330
101329
101329
101329
101329
101329
101329
101328
101328
101328
101328
101328
101328
101327
101327
101327
101327
101327
101327
101327
101326
101326
101326
101326
101326
101326
101326
101326
101325
101325
101325
101248
101253
101260
101268
101274
101281
101286
101292
101297
101302
101306
101310
101314
101317
101320
101322
101324
101326
101328
101329
101330
101331
101332
101333
101334
101334
101334
101335
101335
101335
101335
101335
101335
101335
101335
101335
101334
101334
101334
101334
101334
101333
101333
101333
101333
101332
101332
101332
101332
101331
101331
101331
101331
101331
101330
101330
101330
101330
101330
101329
101329
101329
101329
101329
101329
101328
101328
101328
101328
101328
101328
101328
101327
101327
101327
101327
101327
101327
101327
101327
101327
101327
101326
101326
101326
101326
101326
101326
101326
101326
101326
101326
101326
101326
101325
101325
101325
101325
101325
101325
101299
101301
101304
101306
101308
101310
101312
101314
101316
101317
101319
101320
101321
101322
101323
101324
101325
101325
101326
101326
101327
101327
101327
101328
101328
101328
101328
101328
101328
101328
101328
101328
101328
101328
101328
101328
101328
101328
101328
101328
101328
101328
101328
101328
101328
101327
101327
101327
101327
101327
101327
101327
101327
101327
101327
101327
101327
101327
101327
101326
101326
101326
101326
101326
101326
101326
101326
101326
101326
101326
101326
101326
101326
101326
101326
101326
101326
101326
101326
101326
101326
101326
101325
101325
101325
101325
101325
101325
101325
101325
101325
101325
101325
101325
101325
101325
101325
101325
101325
101325
99598.4
99604.6
99644.8
99712
99798.7
99896.9
99998.8
100096
100179
100225
99778.3
99776
99801
99847.9
99911.8
99986.4
100066
100146
100218
100263
99940.7
99931.4
99944.3
99975.3
100021
100076
100138
100201
100262
100307
100083
100070
100075
100096
100129
100170
100218
100267
100318
100358
100211
100196
100196
100208
100231
100262
100299
100338
100379
100414
100326
100310
100306
100313
100329
100351
100379
100410
100443
100473
100430
100414
100407
100410
100421
100437
100458
100483
100509
100534
100525
100509
100501
100501
100508
100520
100535
100554
100576
100597
100613
100597
100589
100587
100590
100599
100610
100625
100642
100660
100694
100679
100671
100667
100669
100674
100683
100694
100708
100723
100769
100756
100747
100743
100743
100747
100753
100762
100773
100785
100840
100827
100819
100815
100814
100816
100821
100828
100837
100847
100906
100895
100888
100884
100882
100883
100887
100892
100899
100907
100969
100959
100953
100949
100947
100948
100950
100954
100959
100966
101029
101021
101015
101012
101010
101010
101011
101014
101019
101025
101086
101080
101075
101072
101070
101070
101071
101073
101077
101081
101141
101137
101133
101131
101129
101129
101130
101131
101134
101137
101195
101192
101189
101187
101186
101186
101187
101188
101189
101192
101248
101246
101244
101243
101243
101242
101243
101243
101244
101246
101299
101299
101298
101298
101298
101298
101298
101298
101298
101299
101720
101677
101601
101500
101362
101169
100898
100481
100005
98715.6
101371
101278
101155
101006
100810
100545
100189
99652
99084.1
97514.4
101007
100875
100714
100521
100270
99936.1
99501.2
98847.1
98198.7
96356.2
100659
100493
100297
100062
99758.8
99361.3
98855.9
98090.1
97375.8
95276.7
100342
100145
99917.2
99642.3
99293
98838.9
98274.2
97405.8
96642.5
94312.7
100063
99839.3
99584.8
99275.7
98887.7
98385.6
97775.5
96818.1
96025.2
93500.4
99826.9
99583.6
99308
98971.8
98554.9
98016.2
97377.1
96350.3
95548.2
92869.9
99639.2
99382.8
99093
98738.3
98304.1
97742
97091.7
96023.1
95233.1
92437.3
99502.6
99240.3
98943.4
98579.7
98140.2
97570.9
96925.3
95842.7
95094.1
92218.6
99417.4
99157.2
98861
98499.7
98067.3
97508.2
96880.7
95814.8
95131.6
92231.9
103961
104182
104396
104622
104873
105151
105452
105768
106083
106379
103930
104151
104364
104588
104836
105111
105409
105719
106022
106327
103840
104051
104255
104467
104701
104959
105236
105521
105789
106075
103700
103895
104083
104275
104486
104715
104955
105196
105403
105615
103514
103686
103852
104019
104197
104387
104578
104759
104888
104980
103284
103429
103568
103702
103840
103981
104113
104221
104260
104194
103016
103129
103236
103331
103423
103507
103570
103591
103533
103271
102716
102793
102864
102916
102955
102976
102961
102885
102722
102234
102392
102430
102462
102466
102448
102400
102302
102118
101848
101108
102045
102047
102037
101990
101912
101793
101608
101310
100935
99924.9
101328
101328
101328
101328
101328
101328
101328
101328
101328
101328
101328
101329
101329
101329
101329
101330
101330
101330
101330
101331
101331
101332
101332
101333
101333
101334
101334
101335
101336
101337
101337
101338
101339
101340
101342
101343
101344
101346
101347
101349
101351
101353
101355
101357
101359
101362
101365
101368
101371
101375
101378
101382
101387
101391
101396
101402
101408
101414
101420
101428
101435
101444
101453
101462
101473
101484
101496
101508
101522
101537
101553
101570
101588
101608
101630
101652
101677
101704
101733
101763
101797
101833
101872
101914
101960
102010
102065
102124
102190
102261
102341
102428
102526
102636
102759
102898
103058
103241
103452
103697
101328
101328
101328
101328
101328
101328
101328
101328
101328
101328
101328
101329
101329
101329
101329
101330
101330
101330
101330
101331
101331
101332
101332
101333
101333
101334
101334
101335
101336
101337
101337
101338
101339
101340
101342
101343
101344
101346
101347
101349
101351
101353
101355
101357
101359
101362
101365
101368
101371
101375
101378
101382
101387
101391
101396
101402
101407
101414
101420
101428
101435
101444
101453
101462
101472
101484
101496
101508
101522
101537
101553
101570
101588
101608
101630
101652
101677
101704
101732
101763
101797
101833
101872
101914
101960
102010
102064
102124
102189
102260
102339
102426
102523
102631
102753
102891
103047
103226
103433
103670
101328
101328
101328
101328
101328
101328
101328
101328
101328
101328
101328
101329
101329
101329
101329
101330
101330
101330
101330
101331
101331
101332
101332
101333
101333
101334
101334
101335
101336
101337
101337
101338
101339
101340
101342
101343
101344
101346
101347
101349
101351
101353
101355
101357
101359
101362
101365
101368
101371
101374
101378
101382
101387
101391
101396
101402
101407
101414
101420
101427
101435
101444
101452
101462
101472
101483
101495
101508
101522
101537
101553
101570
101588
101608
101629
101652
101677
101704
101732
101763
101797
101833
101872
101914
101959
102009
102063
102122
102186
102257
102335
102420
102515
102621
102739
102872
103022
103192
103385
103602
101328
101328
101328
101328
101328
101328
101328
101328
101328
101328
101328
101329
101329
101329
101329
101329
101330
101330
101330
101331
101331
101332
101332
101333
101333
101334
101334
101335
101336
101337
101337
101338
101339
101340
101341
101343
101344
101346
101347
101349
101351
101352
101355
101357
101359
101362
101365
101368
101371
101374
101378
101382
101386
101391
101396
101401
101407
101413
101420
101427
101435
101443
101452
101462
101472
101483
101495
101508
101522
101537
101553
101570
101588
101608
101629
101652
101677
101704
101732
101763
101796
101832
101871
101913
101958
102008
102061
102119
102183
102252
102328
102412
102504
102606
102719
102844
102984
103140
103312
103498
101328
101328
101328
101328
101328
101328
101328
101328
101328
101328
101328
101329
101329
101329
101329
101329
101330
101330
101330
101331
101331
101332
101332
101332
101333
101334
101334
101335
101336
101336
101337
101338
101339
101340
101341
101343
101344
101345
101347
101349
101350
101352
101354
101357
101359
101362
101364
101367
101371
101374
101378
101382
101386
101391
101396
101401
101407
101413
101420
101427
101435
101443
101452
101462
101472
101483
101495
101508
101522
101537
101552
101570
101588
101608
101629
101652
101677
101703
101732
101763
101796
101832
101870
101912
101957
102005
102058
102116
102178
102246
102319
102400
102488
102585
102690
102806
102932
103068
103213
103357
101328
101328
101328
101328
101328
101328
101328
101328
101328
101328
101328
101328
101329
101329
101329
101329
101330
101330
101330
101331
101331
101331
101332
101332
101333
101334
101334
101335
101336
101336
101337
101338
101339
101340
101341
101342
101344
101345
101347
101348
101350
101352
101354
101356
101359
101361
101364
101367
101370
101374
101378
101382
101386
101391
101396
101401
101407
101413
101420
101427
101435
101443
101452
101462
101472