/*--------------------------------*- C++ -*----------------------------------*\
  =========                 |
  \\      /  F ield         | OpenFOAM: The Open Source CFD Toolbox
   \\    /   O peration     | Website:  https://openfoam.org
    \\  /    A nd           | Version:  8
     \\/     M anipulation  |
\*---------------------------------------------------------------------------*/
FoamFile
{
    version     2.0;
    format      ascii;
    class       surfaceScalarField;
    location    "0.500023";
    object      phi;
}
// * * * * * * * * * * * * * * * * * * * * * * * * * * * * * * * * * * * * * //

dimensions      [1 0 -1 0 0 0 0];

internalField   nonuniform List<scalar> 
13330
(
0.584266
-0.768044
0.185208
1.17398
-2.17382
1.58469
1.66965
-2.66764
2.17228
2.1014
-2.93577
2.50414
2.48014
-3.0862
2.70753
2.81686
-3.16695
2.83025
3.12244
-3.20836
2.9028
3.40573
-3.22699
2.94369
3.67532
-3.23346
2.96387
-3.23437
2.96906
3.94063
0.634019
-1.40165
1.20076
-2.74033
1.65549
-3.12222
2.04398
-3.32418
2.37933
-3.42151
2.67577
-3.46336
2.94413
-3.4767
3.19243
-3.47528
3.42618
-3.4672
-3.45644
3.64825
0.627554
-2.02896
1.16275
-3.27534
1.57288
-3.53223
1.91887
-3.6701
2.21448
-3.71707
2.47467
-3.72353
2.71011
-3.71212
2.92818
-3.69334
3.13363
-3.67264
-3.65195
3.32915
0.595426
-2.62426
1.08241
-3.76222
1.44485
-3.89458
1.75017
-3.97537
2.00812
-3.97498
2.23555
-3.95094
2.44231
-3.91886
2.63493
-3.88594
2.81741
-3.85512
-3.8262
2.99167
0.547084
-3.17127
0.975765
-4.19081
1.29044
-4.20918
1.55554
-4.24042
1.7784
-4.19781
1.97639
-4.14891
2.15736
-4.09981
2.32661
-4.05517
2.48726
-4.01577
-3.97962
2.64069
0.489541
-3.66076
0.854763
-4.55599
1.12237
-4.47674
1.34862
-4.46662
1.53845
-4.38761
1.70845
-4.31889
1.86433
-4.25567
2.01044
-4.20127
2.14934
-4.15465
-4.11216
2.28188
0.427198
-4.08794
0.727929
-4.85666
0.951151
-4.69992
1.13863
-4.65407
1.29649
-4.54545
1.4389
-4.46128
1.56957
-4.38633
1.69203
-4.32371
1.80825
-4.27086
-4.22239
1.9185
0.363537
-4.45145
0.601294
-5.0944
0.781749
-4.88034
0.930911
-4.80321
1.05761
-4.67213
1.17176
-4.57541
1.27615
-4.49071
1.37364
-4.42118
1.46583
-4.36304
-4.30915
1.5526
0.300471
-4.75192
0.478043
-5.27194
0.617637
-5.01991
0.728696
-4.91425
0.824
-4.76741
0.908801
-4.6602
0.985789
-4.56768
1.05707
-4.49245
1.12399
-4.42995
-4.37124
1.18609
0.23921
-4.99111
0.360057
-5.39275
0.459673
-5.1195
0.532909
-4.98746
0.5965
-4.83099
0.650925
-4.71461
0.699323
-4.61608
0.743143
-4.53624
0.783483
-4.47029
0.819848
-4.40759
-0.27059
0.270047
-0.461564
0.190623
-0.619732
0.157777
-0.743154
0.123257
-0.828305
0.0849814
-0.870785
0.0424272
-0.866303
-0.00457755
-0.81352
-0.0527798
-0.718889
-0.0946333
-0.122711
-0.596178
-0.202514
0.471073
-0.380018
0.366768
-0.508493
0.285586
-0.595887
0.210162
-0.638429
0.127216
-0.629408
0.0331653
-0.567156
-0.0669771
-0.455366
-0.1646
-0.304918
-0.245122
-0.299955
-0.127614
-0.148633
0.618652
-0.263509
0.481086
-0.332028
0.353475
-0.34906
0.226763
-0.299218
0.0770436
-0.180788
-0.0855389
-0.00886968
-0.239046
0.19767
-0.371223
0.425953
-0.473347
-0.542575
0.668576
-0.0852371
0.703308
-0.131051
0.526101
-0.114151
0.336212
-0.0113501
0.123544
0.181807
-0.116391
0.431787
-0.33575
0.708699
-0.516084
0.998003
-0.660533
1.29789
-0.773277
-0.851599
1.60698
-0.0256994
0.728663
0.00909032
0.491345
0.149942
0.195107
0.408423
-0.135177
0.732867
-0.441017
1.08297
-0.686014
1.44514
-0.878335
1.81215
-1.02763
2.18044
-1.14153
-1.22182
2.55066
0.0253618
0.703735
0.161494
0.355162
0.461619
-0.104964
0.853617
-0.527282
1.2691
-0.856598
1.69164
-1.10865
2.11333
-1.3001
2.52977
-1.44409
2.93727
-1.54907
-1.62176
3.33725
0.0669866
0.6369
0.357668
0.0650591
0.799981
-0.547133
1.27238
-0.999679
1.74458
-1.32883
2.2052
-1.56933
2.64825
-1.74319
3.07129
-1.86718
3.47572
-1.95348
-2.01202
3.86597
0.138698
0.499109
0.594442
-0.390234
1.11892
-1.07142
1.63511
-1.51584
2.12431
-1.81803
2.5806
-2.02565
3.00542
-2.16804
3.403
-2.26478
3.77888
-2.32939
-2.37076
4.13762
0.262996
0.236901
0.836592
-0.9634
1.39481
-1.62945
1.90722
-2.0282
2.37286
-2.28364
2.79657
-2.44938
3.18501
-2.55648
3.54463
-2.62443
3.88149
-2.66625
-2.69041
4.20113
0.422401
1.04383
1.58671
2.06269
2.48657
2.86744
3.21375
3.53301
3.83061
4.10925
-0.344864
-0.251294
-0.115983
-0.228919
0.0902274
-0.206253
0.273311
-0.183111
0.436461
-0.163163
0.584306
-0.147849
0.720001
-0.135691
0.845715
-0.125705
0.962999
-0.117273
1.07301
-0.109995
1.17662
-0.103605
1.27454
-0.0979084
1.36733
-0.0927694
1.45543
-0.0880898
1.53923
-0.0837922
1.61906
-0.0798167
1.69518
-0.0761197
1.76786
-0.0726677
1.8373
-0.0694326
1.90369
-0.0663916
1.96722
-0.0635257
2.02805
-0.0608196
2.08631
-0.0582604
2.14215
-0.0558366
2.19569
-0.0535382
2.24705
-0.0513568
2.29633
-0.0492852
2.34365
-0.047316
2.38909
-0.0454429
2.43275
-0.0436605
2.47472
-0.0419639
2.51506
-0.0403484
2.55387
-0.0388089
2.59121
-0.0373404
2.62715
-0.0359382
2.66174
-0.0345981
2.69506
-0.0333169
2.72715
-0.0320915
2.75807
-0.0309192
2.78786
-0.0297975
2.81659
-0.028724
2.84428
-0.0276969
2.87099
-0.0267139
2.89677
-0.0257727
2.92164
-0.0248714
2.94564
-0.0240079
2.96882
-0.0231805
2.99121
-0.0223875
3.01284
-0.0216272
3.03374
-0.0208976
3.05393
-0.0201973
3.07346
-0.0195249
3.09234
-0.0188792
3.1106
-0.0182587
3.12826
-0.0176625
3.14535
-0.0170893
3.16189
-0.0165381
3.1779
-0.0160079
3.1934
-0.0154978
3.2084
-0.015007
3.22294
-0.0145345
3.23702
-0.0140797
3.25066
-0.0136417
3.26388
-0.0132199
3.2767
-0.0128137
3.28912
-0.0124224
3.30116
-0.0120455
3.31285
-0.0116823
3.32418
-0.0113323
3.33518
-0.0109951
3.34585
-0.0106701
3.3562
-0.0103568
3.36626
-0.0100547
3.37602
-0.0097634
3.3855
-0.00948237
3.39472
-0.00921119
3.40367
-0.00894949
3.41236
-0.00869691
3.42082
-0.0084531
3.42904
-0.00821775
3.43703
-0.00799048
3.4448
-0.007771
3.45236
-0.00755893
3.45971
-0.00735401
3.46687
-0.00715584
3.47383
-0.00696417
3.48061
-0.00677849
3.48721
-0.00659856
3.49363
-0.00642364
3.49989
-0.00625339
3.50597
-0.00608657
3.5119
-0.00592252
3.51765
-0.00575903
3.52325
-0.00559455
3.52867
-0.00542491
3.53392
-0.0052464
3.53897
-0.00505079
3.54381
-0.00483426
3.54839
-0.00458539
-0.00407643
0.0902492
-0.469182
0.277591
-0.416348
0.444616
-0.373359
0.597973
-0.336518
0.739496
-0.304706
0.870113
-0.278465
0.99137
-0.256933
1.10459
-0.238906
1.21083
-0.22348
1.31091
-0.210051
1.40552
-0.198175
1.49516
-0.187518
1.58027
-0.177853
1.66122
-0.16902
1.73834
-0.160878
1.81186
-0.15332
1.88203
-0.146273
1.94907
-0.139684
2.01315
-0.1335
2.07445
-0.127679
2.13312
-0.122188
2.18931
-0.116999
2.24314
-0.112088
2.29475
-0.107435
2.34423
-0.103021
2.39171
-0.0988313
2.43728
-0.0948517
2.48103
-0.0910682
2.52306
-0.0874687
2.56344
-0.0840425
2.60225
-0.0807794
2.63957
-0.0776698
2.67546
-0.074704
2.70999
-0.0718726
2.74322
-0.069167
2.7752
-0.0665799
2.80598
-0.0641052
2.83563
-0.0617378
2.86418
-0.0594727
2.89168
-0.0573057
2.91819
-0.0552326
2.94374
-0.053249
2.96837
-0.0513503
2.99213
-0.0495326
3.01505
-0.047792
3.03717
-0.0461248
3.05851
-0.0445279
3.07912
-0.042998
3.09903
-0.0415317
3.11826
-0.0401254
3.13683
-0.0387761
3.15479
-0.0374814
3.17215
-0.0362388
3.18894
-0.0350456
3.20518
-0.0338994
3.22089
-0.0327981
3.23609
-0.0317394
3.2508
-0.0307214
3.26505
-0.0297424
3.27884
-0.0288005
3.2922
-0.027894
3.30515
-0.0270214
3.31769
-0.0261814
3.32984
-0.0253726
3.34162
-0.0245939
3.35305
-0.0238439
3.36412
-0.0231215
3.37487
-0.0224257
3.38529
-0.0217556
3.39541
-0.02111
3.40523
-0.020488
3.41476
-0.0198886
3.42402
-0.0193108
3.43301
-0.0187537
3.44174
-0.0182163
3.45023
-0.0176979
3.45848
-0.0171978
3.4665
-0.0167152
3.47429
-0.0162494
3.48188
-0.0157999
3.48925
-0.0153659
3.49643
-0.0149468
3.50341
-0.0145418
3.51021
-0.0141506
3.51683
-0.0137723
3.52327
-0.0134064
3.52954
-0.0130521
3.53565
-0.0127087
3.5416
-0.012375
3.5474
-0.0120503
3.55305
-0.0117322
3.55855
-0.0114194
3.56389
-0.0111077
3.56909
-0.0107939
3.57414
-0.0104703
3.57902
-0.0101296
3.58373
-0.00975581
3.58823
-0.00933564
3.59245
-0.00881012
-0.00814141
0.801582
-0.602148
0.923248
-0.538046
1.04147
-0.491616
1.15617
-0.451237
1.26598
-0.414517
1.37018
-0.382653
1.46884
-0.355577
1.56231
-0.332352
1.65096
-0.312094
1.73512
-0.294182
1.81511
-0.278139
1.8912
-0.263586
1.96367
-0.250292
2.03274
-0.23807
2.09863
-0.226746
2.16152
-0.216189
2.22159
-0.206321
2.27899
-0.197074
2.33389
-0.188382
2.38641
-0.180189
2.43668
-0.172451
2.48482
-0.165134
2.53095
-0.158206
2.57516
-0.15164
2.61755
-0.14541
2.65822
-0.139495
2.69724
-0.133873
2.7347
-0.128526
2.77066
-0.123437
2.80521
-0.118588
2.8384
-0.113968
2.87029
-0.109562
2.90094
-0.105358
2.93041
-0.101342
2.95874
-0.0975025
2.98599
-0.0938305
3.0122
-0.0903185
3.03742
-0.0869594
3.06169
-0.0837466
3.08506
-0.0806736
3.10756
-0.0777342
3.12923
-0.074922
3.15011
-0.0722315
3.17023
-0.0696574
3.18963
-0.0671943
3.20834
-0.0648369
3.22639
-0.0625802
3.24382
-0.0604201
3.26064
-0.058351
3.27688
-0.0563672
3.29257
-0.0544649
3.30773
-0.0526408
3.32238
-0.0508909
3.33655
-0.0492112
3.35025
-0.0475983
3.3635
-0.0460488
3.37632
-0.0445598
3.38873
-0.0431285
3.40074
-0.0417524
3.41237
-0.040429
3.42363
-0.0391557
3.43454
-0.0379307
3.44511
-0.036752
3.45536
-0.0356178
3.46529
-0.0345263
3.47492
-0.0334756
3.48427
-0.0324643
3.49333
-0.0314908
3.50213
-0.0305536
3.51067
-0.0296511
3.51897
-0.0287818
3.52703
-0.0279443
3.53485
-0.0271372
3.54246
-0.0263592
3.54985
-0.0256091
3.55704
-0.0248856
3.56403
-0.0241878
3.57083
-0.0235148
3.57745
-0.0228654
3.58389
-0.0222389
3.59016
-0.0216341
3.59626
-0.0210502
3.60221
-0.0204863
3.608
-0.0199417
3.61364
-0.0194154
3.61914
-0.0189067
3.6245
-0.0184142
3.62973
-0.0179373
3.63483
-0.0174741
3.63981
-0.0170236
3.64466
-0.0165826
3.64939
-0.0161492
3.654
-0.0157174
3.65849
-0.015283
3.66285
-0.0148348
3.66708
-0.0143627
3.67117
-0.0138438
3.6751
-0.0132594
3.67881
-0.0125287
-0.0116539
1.66649
-0.661638
1.72961
-0.60117
1.79877
-0.560787
1.8717
-0.524166
1.94566
-0.488474
2.01887
-0.455838
2.09035
-0.427036
2.15959
-0.401569
2.22631
-0.37878
2.29036
-0.358211
2.35174
-0.339496
2.4105
-0.322317
2.46672
-0.30649
2.5205
-0.291823
2.57192
-0.278145
2.6211
-0.265349
2.66814
-0.253351
2.71316
-0.242079
2.75625
-0.231459
2.79751
-0.221432
2.83701
-0.211951
2.87486
-0.202975
2.91113
-0.19447
2.9459
-0.1864
2.97923
-0.178736
3.01118
-0.171452
3.04184
-0.164523
3.07124
-0.157927
3.09944
-0.151643
3.12651
-0.145651
3.15247
-0.139938
3.1774
-0.134487
3.20132
-0.129281
3.22428
-0.124307
3.24633
-0.119552
3.2675
-0.115006
3.28784
-0.110663
3.3074
-0.106512
3.32619
-0.102546
3.34427
-0.098755
3.36167
-0.0951315
3.37841
-0.0916681
3.39454
-0.0883573
3.41007
-0.0851919
3.42504
-0.0821647
3.43947
-0.0792688
3.45339
-0.0764975
3.46681
-0.0738462
3.47977
-0.0713072
3.49228
-0.0688726
3.50435
-0.066539
3.51601
-0.0643018
3.52728
-0.0621558
3.53816
-0.0600959
3.54868
-0.0581179
3.55885
-0.0562179
3.56869
-0.0543925
3.5782
-0.0526389
3.5874
-0.0509538
3.59631
-0.049334
3.60493
-0.0477769
3.61328
-0.0462801
3.62137
-0.0448411
3.62921
-0.0434576
3.63681
-0.0421273
3.64418
-0.0408481
3.65134
-0.0396177
3.65828
-0.0384343
3.66503
-0.0372957
3.67158
-0.0362001
3.67794
-0.0351456
3.68413
-0.0341302
3.69014
-0.0331522
3.69599
-0.0322101
3.70169
-0.0313019
3.70723
-0.0304263
3.71262
-0.0295823
3.71788
-0.0287687
3.723
-0.0279843
3.72799
-0.027228
3.73285
-0.0264985
3.7376
-0.0257949
3.74223
-0.0251159
3.74675
-0.0244609
3.75116
-0.0238285
3.75547
-0.0232179
3.75969
-0.0226273
3.76381
-0.0220563
3.76783
-0.0215023
3.77178
-0.0209642
3.77563
-0.0204378
3.7794
-0.0199213
3.78309
-0.0194072
3.7867
-0.0188904
3.79022
-0.0183573
3.79366
-0.0177959
3.79699
-0.0171775
3.80021
-0.0164806
3.80329
-0.015607
-0.0145715
2.56736
-0.678283
2.59525
-0.629051
2.63047
-0.596002
2.67017
-0.563853
2.71274
-0.531027
2.75672
-0.499806
2.80096
-0.471247
2.84466
-0.445253
2.88738
-0.421474
2.92884
-0.399648
2.96892
-0.37956
3.00758
-0.360955
3.04479
-0.343682
3.08057
-0.327588
3.11498
-0.312541
3.14808
-0.298435
3.1799
-0.28516
3.21049
-0.272649
3.23986
-0.260829
3.26808
-0.249643
3.29518
-0.239042
3.3212
-0.228987
3.34618
-0.21944
3.37014
-0.210364
3.39314
-0.20173
3.4152
-0.193512
3.43636
-0.185683
3.45666
-0.178221
3.47612
-0.171105
3.49478
-0.164314
3.51267
-0.157827
3.52981
-0.151626
3.54622
-0.145699
3.56195
-0.140041
3.57704
-0.134637
3.59151
-0.129481
3.60541
-0.12456
3.61875
-0.119862
3.63158
-0.115377
3.64392
-0.111094
3.65579
-0.107004
3.66722
-0.103096
3.67822
-0.0993619
3.68882
-0.0957918
3.69903
-0.0923773
3.70888
-0.0891102
3.71836
-0.0859823
3.7275
-0.0829883
3.73632
-0.080121
3.74482
-0.0773721
3.75301
-0.0747371
3.76092
-0.0722096
3.76855
-0.0697843
3.77591
-0.0674565
3.78302
-0.0652222
3.78988
-0.0630774
3.7965
-0.0610185
3.80291
-0.0590427
3.8091
-0.0571466
3.81509
-0.0553255
3.82089
-0.0535771
3.82651
-0.0518984
3.83196
-0.0502866
3.83724
-0.0487388
3.84237
-0.0472521
3.84734
-0.0458239
3.85218
-0.0444515
3.85688
-0.0431327
3.86145
-0.0418652
3.8659
-0.0406466
3.87023
-0.0394746
3.87444
-0.0383472
3.87855
-0.037262
3.88256
-0.0362176
3.88647
-0.0352115
3.89029
-0.0342421
3.89402
-0.0333089
3.89766
-0.0324103
3.90122
-0.0315451
3.9047
-0.0307118
3.90812
-0.029909
3.91146
-0.0291356
3.91473
-0.0283905
3.91794
-0.027673
3.9211
-0.0269813
3.9242
-0.0263146
3.92724
-0.0256711
3.93023
-0.02505
3.93318
-0.0244484
3.93608
-0.0238654
3.93894
-0.0232961
3.94176
-0.0227387
3.94454
-0.0221847
3.94727
-0.0216289
3.94997
-0.0210561
3.95263
-0.0204536
3.95524
-0.0197889
3.9578
-0.019038
3.96029
-0.0180914
-0.0169634
3.3344
-0.675419
3.34609
-0.640722
3.36492
-0.614829
3.38735
-0.586278
3.41251
-0.556175
3.43952
-0.52681
3.46737
-0.49908
3.49524
-0.47311
3.52264
-0.448857
3.54926
-0.426258
3.57492
-0.40521
3.59952
-0.38554
3.62301
-0.367154
3.64539
-0.349951
3.66666
-0.333803
3.68685
-0.318616
3.706
-0.304303
3.72417
-0.290804
3.7414
-0.278054
3.75776
-0.265995
3.77329
-0.254571
3.78805
-0.243741
3.80208
-0.233463
3.81542
-0.223699
3.82811
-0.214417
3.84019
-0.205591
3.8517
-0.197192
3.86267
-0.189192
3.87313
-0.181572
3.88313
-0.174308
3.89268
-0.167381
3.90183
-0.160776
3.91061
-0.15448
3.91905
-0.148479
3.92716
-0.142752
3.93496
-0.137285
3.94246
-0.132065
3.94968
-0.12708
3.95662
-0.122318
3.96329
-0.117767
3.9697
-0.113419
3.97587
-0.109262
3.98179
-0.105288
3.98749
-0.101487
3.99296
-0.0978516
3.99822
-0.0943723
4.00328
-0.0910404
4.00814
-0.0878507
4.01282
-0.0847955
4.01731
-0.0818644
4.02163
-0.0790525
4.02577
-0.076357
4.02976
-0.0737754
4.03361
-0.0713022
4.03732
-0.0689326
4.04091
-0.0666623
4.04437
-0.0644864
4.04773
-0.0624017
4.05099
-0.0604041
4.05416
-0.0584886
4.05723
-0.0566524
4.06023
-0.0548919
4.06314
-0.0532033
4.06599
-0.0515835
4.06877
-0.0500291
4.07148
-0.0485372
4.07414
-0.0471048
4.07673
-0.0457294
4.07928
-0.0444083
4.08177
-0.0431389
4.08422
-0.0419185
4.08661
-0.0407454
4.08897
-0.0396172
4.09129
-0.0385329
4.09357
-0.0374902
4.09581
-0.0364875
4.09803
-0.0355238
4.10021
-0.0345971
4.10238
-0.0337063
4.10452
-0.03285
4.10663
-0.0320267
4.10873
-0.0312355
4.11082
-0.0304755
4.11289
-0.0297454
4.11495
-0.0290429
4.11701
-0.0283678
4.11906
-0.0277177
4.1211
-0.0270921
4.12314
-0.0264876
4.12518
-0.0259035
4.12722
-0.0253344
4.12926
-0.0247789
4.1313
-0.0242282
4.13335
-0.0236777
4.1354
-0.0231118
4.13747
-0.0225184
4.13955
-0.021864
4.14163
-0.0211216
4.14372
-0.0201811
-0.0190443
3.84572
-0.655158
3.84156
-0.636553
3.84643
-0.619701
3.85653
-0.596379
3.87068
-0.570324
3.88806
-0.544189
3.90766
-0.518676
3.92858
-0.494022
3.95016
-0.470433
3.97191
-0.448006
3.99347
-0.426769
4.01461
-0.406671
4.03513
-0.387669
4.05489
-0.369702
4.07379
-0.352696
4.09177
-0.336591
4.1088
-0.321329
4.12486
-0.306857
4.13993
-0.293123
4.15402
-0.280085
4.16715
-0.267694
4.17933
-0.255917
4.19058
-0.244718
4.20095
-0.234065
4.21047
-0.22393
4.21916
-0.214287
4.22708
-0.205111
4.23427
-0.196378
4.24077
-0.188072
4.24663
-0.180174
4.25192
-0.172666
4.25667
-0.165532
4.26094
-0.158751
4.26477
-0.152306
4.26819
-0.146178
4.27126
-0.140351
4.274
-0.134809
4.27645
-0.129536
4.27865
-0.12452
4.28063
-0.119746
4.28241
-0.1152
4.28402
-0.110872
4.28548
-0.106749
4.28681
-0.102821
4.28803
-0.099074
4.28916
-0.0954997
4.29021
-0.0920882
4.29119
-0.0888318
4.29212
-0.0857217
4.293
-0.0827485
4.29385
-0.0799073
4.29469
-0.0771921
4.29551
-0.0745952
4.29632
-0.0721108
4.29712
-0.0697326
4.29791
-0.0674561
4.2987
-0.0652764
4.29949
-0.0631889
4.30028
-0.0611903
4.30107
-0.0592756
4.30186
-0.0574416
4.30265
-0.0556847
4.30345
-0.0540012
4.30425
-0.052388
4.30507
-0.0508418
4.30589
-0.0493596
4.30672
-0.0479383
4.30757
-0.0465746
4.30843
-0.0452654
4.3093
-0.0440086
4.31018
-0.0428023
4.31108
-0.0416456
4.312
-0.0405365
4.31295
-0.0394739
4.31391
-0.0384551
4.3149
-0.0374783
4.31592
-0.0365423
4.31697
-0.0356452
4.31805
-0.0347854
4.31916
-0.0339618
4.32031
-0.0331725
4.32149
-0.0324161
4.32271
-0.0316919
4.32396
-0.0309982
4.32525
-0.0303332
4.32658
-0.0296964
4.32795
-0.0290851
4.32936
-0.0284989
4.3308
-0.0279345
4.33229
-0.0273911
4.33382
-0.0268635
4.33539
-0.0263508
4.33701
-0.0258445
4.33867
-0.0253417
4.34039
-0.0248278
4.34217
-0.0242931
4.34401
-0.023707
4.34593
-0.0230416
4.34794
-0.0221949
-0.0211476
4.10399
-0.621544
4.08506
-0.617633
4.07625
-0.610907
4.07452
-0.594655
4.07828
-0.574105
4.08642
-0.552339
4.09795
-0.53021
4.112
-0.508082
4.12787
-0.486309
4.14502
-0.465151
4.163
-0.444758
4.18152
-0.425191
4.20032
-0.406467
4.2192
-0.388581
4.23802
-0.371509
4.25665
-0.355218
4.27499
-0.339674
4.29298
-0.324841
4.31054
-0.31068
4.32762
-0.297162
4.34418
-0.284251
4.36018
-0.271917
4.3756
-0.260133
4.39041
-0.248871
4.40458
-0.238105
4.41811
-0.227815
4.43098
-0.217979
4.44318
-0.208576
4.45469
-0.199586
4.46551
-0.190995
4.47563
-0.182786
4.48504
-0.174941
4.49373
-0.167447
4.50172
-0.160293
4.50901
-0.153465
4.5156
-0.146952
4.52153
-0.140738
4.52681
-0.134813
4.53145
-0.129167
4.53549
-0.123788
4.53896
-0.118667
4.54188
-0.113793
4.54429
-0.109158
4.54622
-0.104751
4.54771
-0.100564
4.54879
-0.0965878
4.54952
-0.0928136
4.54992
-0.0892346
4.55004
-0.0858436
4.54992
-0.0826311
4.5496
-0.0795882
4.54912
-0.0767065
4.5485
-0.0739769
4.54778
-0.0713903
4.54699
-0.0689378
4.54614
-0.0666128
4.54527
-0.0644073
4.5444
-0.0623144
4.54354
-0.0603275
4.5427
-0.0584394
4.54191
-0.056644
4.54116
-0.0549358
4.54047
-0.0533094
4.53984
-0.0517599
4.53928
-0.0502826
4.53879
-0.0488734
4.53839
-0.047528
4.53805
-0.0462434
4.53781
-0.045016
4.53764
-0.0438433
4.53756
-0.0427222
4.53757
-0.0416506
4.53766
-0.0406254
4.53783
-0.0396452
4.53808
-0.038707
4.53841
-0.0378096
4.53882
-0.0369519
4.53931
-0.0361326
4.53988
-0.03535
4.54052
-0.0346031
4.54124
-0.0338898
4.54203
-0.033209
4.5429
-0.0325598
4.54384
-0.0319411
4.54486
-0.0313508
4.54596
-0.0307888
4.54712
-0.0302522
4.54837
-0.0297408
4.54968
-0.0292506
4.55107
-0.0287819
4.55254
-0.0283297
4.55408
-0.0278941
4.55571
-0.0274678
4.55742
-0.0270503
4.55922
-0.0266291
4.56113
-0.0261999
4.56316
-0.0257382
4.56534
-0.0252195
4.56771
-0.0245698
-0.0237593
4.16124
-0.581669
4.13411
-0.590504
4.11656
-0.593375
4.10737
-0.58548
4.10483
-0.571576
4.10732
-0.554843
4.11369
-0.536591
4.12308
-0.517487
4.1348
-0.498039
4.14828
-0.478643
4.16309
-0.45957
4.17888
-0.440986
4.19539
-0.422986
4.21243
-0.405616
4.22982
-0.3889
4.24743
-0.372835
4.26517
-0.35741
4.28293
-0.342607
4.30066
-0.328408
4.3183
-0.314797
4.33579
-0.301746
4.35311
-0.289229
4.3702
-0.277229
4.38705
-0.265722
4.40364
-0.25469
4.41994
-0.244113
4.43593
-0.233973
4.45161
-0.224252
4.46695
-0.214932
4.48196
-0.206
4.49661
-0.197441
4.51091
-0.189239
4.52484
-0.18138
4.5384
-0.17385
4.55157
-0.166637
4.56435
-0.159729
4.57672
-0.153116
4.58869
-0.146783
4.60025
-0.140722
4.61138
-0.134921
4.62208
-0.129371
4.63235
-0.124063
4.64218
-0.118986
4.65156
-0.114132
4.66049
-0.109493
4.66896
-0.10506
4.67697
-0.100827
4.68452
-0.0967865
4.69161
-0.0929297
4.69823
-0.0892494
4.70438
-0.085739
4.71006
-0.0823935
4.71529
-0.0792071
4.72008
-0.0761738
4.72443
-0.0732883
4.72836
-0.0705457
4.73189
-0.0679404
4.73505
-0.065467
4.73784
-0.0631212
4.7403
-0.0608979
4.74245
-0.0587923
4.74431
-0.0567999
4.74592
-0.0549161
4.7473
-0.0531367
4.74848
-0.0514573
4.74948
-0.0498737
4.75033
-0.0483822
4.75107
-0.0469793
4.75171
-0.0456602
4.75229
-0.0444209
4.75283
-0.0432572
4.75334
-0.0421649
4.75386
-0.0411392
4.75439
-0.0401768
4.75496
-0.0392732
4.75557
-0.0384248
4.75625
-0.037628
4.757
-0.0368801
4.75782
-0.0361774
4.75874
-0.0355177
4.75975
-0.0348973
4.76085
-0.0343144
4.76206
-0.0337662
4.76337
-0.0332511
4.76479
-0.0327657
4.76631
-0.0323094
4.76794
-0.0318791
4.76967
-0.0314744
4.77151
-0.031092
4.77346
-0.0307319
4.77552
-0.0303898
4.7777
-0.0300657
4.77998
-0.0297538
4.78239
-0.0294542
4.78492
-0.0291598
4.78759
-0.0288701
4.79043
-0.0285776
4.79347
-0.0282661
4.79681
-0.0279027
-0.0274701
4.06517
-0.537596
4.03044
-0.555785
4.00381
-0.566766
3.98677
-0.568462
3.97803
-0.562853
3.97574
-0.552572
3.97849
-0.539357
3.98522
-0.524238
3.99509
-0.507922
4.00739
-0.490956
4.02156
-0.47375
4.03716
-0.456595
4.05386
-0.439684
4.07137
-0.423137
4.0895
-0.407032
4.10808
-0.391412
4.12697
-0.3763
4.14607
-0.361706
4.16529
-0.347629
4.18455
-0.334063
4.20381
-0.320999
4.223
-0.308426
4.2421
-0.296328
4.26107
-0.284691
4.27988
-0.273501
4.29852
-0.262744
4.31695
-0.252406
4.33517
-0.242472
4.35316
-0.232929
4.37093
-0.223763
4.38845
-0.214963
4.40572
-0.206515
4.42275
-0.198406
4.43952
-0.190625
4.45604
-0.183159
4.47231
-0.176
4.48833
-0.169134
4.5041
-0.162552
4.51962
-0.156243
4.53489
-0.150196
4.54992
-0.144402
4.56471
-0.138852
4.57926
-0.133536
4.59357
-0.128446
4.60765
-0.123572
4.62149
-0.118907
4.63511
-0.114442
4.64849
-0.11017
4.66164
-0.106083
4.67457
-0.102174
4.68726
-0.0984335
4.69972
-0.0948567
4.71195
-0.0914358
4.72395
-0.0881661
4.7357
-0.0850413
4.74721
-0.0820551
4.75847
-0.0792015
4.76948
-0.0764756
4.78023
-0.0738724
4.79072
-0.0713871
4.80094
-0.0690146
4.8109
-0.0667507
4.82057
-0.064591
4.82997
-0.0625318
4.83908
-0.0605691
4.84791
-0.0586997
4.85644
-0.0569195
4.86469
-0.0552256
4.87265
-0.0536144
4.88031
-0.052084
4.88768
-0.0506309
4.89477
-0.049253
4.90158
-0.0479475
4.90812
-0.0467126
4.91439
-0.0455451
4.92041
-0.0444437
4.92619
-0.0434056
4.93174
-0.0424297
4.93708
-0.0415132
4.94222
-0.0406553
4.94717
-0.0398529
4.95196
-0.0391054
4.95661
-0.0384094
4.96112
-0.0377652
4.96553
-0.037169
4.96984
-0.0366201
4.97407
-0.0361153
4.97826
-0.0356544
4.9824
-0.0352336
4.98652
-0.0348532
4.99064
-0.0345079
4.99477
-0.0341986
4.99894
-0.0339185
5.00315
-0.0336703
5.00744
-0.0334472
5.01183
-0.0332569
5.01635
-0.0330999
5.02108
-0.0329944
5.02616
-0.0329872
-0.033234
5.11461
-0.483597
-5.16861
5.05975
-0.500919
5.00881
-0.515836
4.96287
-0.522532
4.92239
-0.522389
4.88727
-0.517458
4.8571
-0.509198
4.83141
-0.498559
4.80971
-0.486235
4.79153
-0.47278
4.7764
-0.458637
4.76394
-0.444135
4.75376
-0.429512
4.74556
-0.414938
4.73905
-0.400529
4.73401
-0.386368
4.73021
-0.37251
4.7275
-0.358991
4.72571
-0.345837
4.7247
-0.333062
4.72438
-0.320674
4.72463
-0.308676
4.72537
-0.297067
4.72653
-0.285844
4.72803
-0.275001
4.72982
-0.264534
4.73185
-0.254436
4.73407
-0.244698
4.73646
-0.235312
4.73896
-0.22627
4.74157
-0.217565
4.74424
-0.209185
4.74695
-0.201123
4.7497
-0.19337
4.75245
-0.185916
4.75521
-0.178753
4.75794
-0.171872
4.76065
-0.165263
4.76333
-0.158918
4.76596
-0.152829
4.76854
-0.146986
4.77107
-0.141381
4.77354
-0.136006
4.77595
-0.130853
4.77829
-0.125914
4.78056
-0.121181
4.78277
-0.116646
4.7849
-0.112303
4.78696
-0.108145
4.78895
-0.104162
4.79087
-0.10035
4.79271
-0.0967
4.79448
-0.0932067
4.79618
-0.0898643
4.79781
-0.0866669
4.79936
-0.0836084
4.80084
-0.0806829
4.80225
-0.0778852
4.80359
-0.0752102
4.80486
-0.0726529
4.80605
-0.0702085
4.80717
-0.0678722
4.80822
-0.0656396
4.8092
-0.0635067
4.8101
-0.0614693
4.81092
-0.0595238
4.81167
-0.057666
4.81234
-0.0558925
4.81292
-0.0541997
4.81343
-0.052585
4.81384
-0.0510445
4.81416
-0.049576
4.81439
-0.0481762
4.81452
-0.0468429
4.81455
-0.0455731
4.81447
-0.0443649
4.81428
-0.0432155
4.81398
-0.0421237
4.81355
-0.0410866
4.813
-0.0401032
4.81232
-0.0391708
4.81151
-0.0382889
4.81055
-0.0374548
4.80946
-0.0366683
4.80821
-0.0359261
4.80682
-0.0352296
4.80528
-0.0345747
4.80359
-0.0339633
4.80175
-0.0333907
4.79976
-0.0328598
4.79762
-0.0323653
4.79533
-0.0319112
4.7929
-0.0314919
4.79035
-0.0311145
4.78767
-0.0307744
4.7849
-0.0304865
4.78206
-0.0302558
4.77919
-0.0301197
4.77637
-0.0301723
-0.030746
5.15202
-0.42828
-5.20734
5.10078
-0.449679
5.05273
-0.467795
5.00947
-0.479288
4.97127
-0.484199
4.93784
-0.484042
4.9088
-0.480165
4.88373
-0.473504
4.86224
-0.464756
4.84394
-0.454487
4.82846
-0.443159
4.81545
-0.43113
4.8046
-0.418673
4.79565
-0.405988
4.78834
-0.393227
4.78247
-0.380498
4.77784
-0.367886
4.7743
-0.355449
4.7717
-0.343232
4.7699
-0.331268
4.76881
-0.319581
4.76832
-0.308185
4.76834
-0.297094
4.76881
-0.286313
4.76966
-0.275849
4.77083
-0.2657
4.77226
-0.255869
4.77392
-0.246355
4.77576
-0.237154
4.77775
-0.228262
4.77986
-0.219676
4.78207
-0.21139
4.78434
-0.203399
4.78667
-0.195695
4.78903
-0.188274
4.7914
-0.181129
4.79378
-0.174252
4.79616
-0.167636
4.79851
-0.161275
4.80084
-0.15516
4.80314
-0.149286
4.8054
-0.143643
4.80762
-0.138226
4.8098
-0.133026
4.81192
-0.128038
4.81399
-0.123253
4.81601
-0.118664
4.81797
-0.114265
4.81987
-0.11005
4.82172
-0.10601
4.82351
-0.10214
4.82524
-0.0984323
4.82692
-0.094882
4.82854
-0.0914828
4.8301
-0.0882292
4.83161
-0.0851152
4.83306
-0.0821354
4.83446
-0.0792843
4.83581
-0.0765571
4.83711
-0.0739488
4.83835
-0.0714546
4.83955
-0.0690699
4.8407
-0.0667903
4.84181
-0.0646115
4.84287
-0.0625296
4.84389
-0.0605408
4.84486
-0.0586411
4.8458
-0.0568268
4.84669
-0.0550946
4.84755
-0.0534414
4.84837
-0.0518638
4.84915
-0.0503588
4.8499
-0.0489238
4.85062
-0.0475559
4.8513
-0.0462525
4.85194
-0.0450111
4.85256
-0.0438295
4.85314
-0.0427054
4.85369
-0.0416367
4.85421
-0.0406215
4.8547
-0.0396579
4.85515
-0.0387442
4.85558
-0.0378784
4.85597
-0.0370595
4.85633
-0.0362852
4.85666
-0.0355551
4.85695
-0.0348668
4.85721
-0.0342203
4.85743
-0.033613
4.85761
-0.0330455
4.85777
-0.0325152
4.85788
-0.0320239
4.85796
-0.0315696
4.858
-0.0311565
4.85801
-0.0307859
4.85799
-0.0304681
4.85795
-0.0302149
4.85789
-0.0300596
4.85777
-0.030047
-0.0303158
5.17745
-0.374514
-5.23122
5.12873
-0.400954
5.08355
-0.422619
5.04243
-0.438177
5.00567
-0.447441
4.97313
-0.451511
4.94455
-0.451595
4.91964
-0.4486
4.89808
-0.443206
4.87956
-0.435971
4.86376
-0.427359
4.85036
-0.417743
4.8391
-0.407416
4.82972
-0.396605
4.82197
-0.385486
4.81567
-0.374194
4.81061
-0.362835
4.80665
-0.35149
4.80364
-0.340222
4.80145
-0.329082
4.79998
-0.318107
4.79912
-0.307327
4.7988
-0.296766
4.79892
-0.28644
4.79944
-0.276364
4.80029
-0.266546
4.80141
-0.256994
4.80277
-0.247714
4.80433
-0.238708
4.80604
-0.229977
4.80789
-0.22152
4.80983
-0.213337
4.81186
-0.205425
4.81395
-0.197782
4.81608
-0.190402
4.81823
-0.183283
4.8204
-0.176419
4.82257
-0.169805
4.82473
-0.163435
4.82687
-0.157303
4.82899
-0.151405
4.83108
-0.145732
4.83313
-0.140279
4.83514
-0.13504
4.83712
-0.130009
4.83904
-0.125178
4.84092
-0.120542
4.84275
-0.116093
4.84452
-0.111827
4.84625
-0.107735
4.84792
-0.103813
4.84955
-0.100054
4.85112
-0.0964521
4.85263
-0.0930016
4.8541
-0.089697
4.85552
-0.0865328
4.85689
-0.0835037
4.85821
-0.0806045
4.85948
-0.0778301
4.86071
-0.0751758
4.86189
-0.0726369
4.86303
-0.0702088
4.86413
-0.0678871
4.86519
-0.0656676
4.86621
-0.0635464
4.86719
-0.0615195
4.86813
-0.0595832
4.86904
-0.0577338
4.86991
-0.0559678
4.87075
-0.0542821
4.87156
-0.0526734
4.87234
-0.0511387
4.87309
-0.0496753
4.87382
-0.0482802
4.87452
-0.046951
4.87519
-0.0456851
4.87584
-0.0444802
4.87647
-0.0433341
4.87708
-0.0422446
4.87767
-0.0412098
4.87824
-0.0402279
4.87879
-0.039297
4.87933
-0.0384153
4.87986
-0.0375817
4.88036
-0.0367942
4.88086
-0.036052
4.88135
-0.0353534
4.88183
-0.0346975
4.8823
-0.0340832
4.88276
-0.0335098
4.88322
-0.0329767
4.88368
-0.0324842
4.88415
-0.0320329
4.88462
-0.0316251
4.8851
-0.0312646
4.88559
-0.0309592
4.88609
-0.0307201
4.8866
-0.030568
4.88708
-0.0305241
-0.0306083
5.19203
-0.323257
-5.24328
5.14572
-0.354645
5.10313
-0.380037
5.06424
-0.39929
5.02925
-0.412459
4.99813
-0.420395
4.97067
-0.424137
4.9466
-0.424542
4.92566
-0.422272
4.90756
-0.417877
4.89201
-0.411822
4.87876
-0.404489
4.86752
-0.39619
4.85809
-0.387171
4.85023
-0.377631
4.84376
-0.367726
4.8385
-0.357583
4.83432
-0.347302
4.83106
-0.336963
4.82861
-0.326632
4.82686
-0.31636
4.82572
-0.306189
4.82511
-0.296155
4.82495
-0.286283
4.82519
-0.276596
4.82575
-0.267111
4.8266
-0.257843
4.82769
-0.248801
4.82898
-0.239995
4.83043
-0.23143
4.83202
-0.223109
4.83372
-0.215035
4.8355
-0.20721
4.83736
-0.199632
4.83926
-0.192302
4.84119
-0.185216
4.84314
-0.178371
4.8451
-0.171765
4.84706
-0.165394
4.84901
-0.159252
4.85094
-0.153336
4.85285
-0.14764
4.85473
-0.142158
4.85657
-0.136886
4.85838
-0.131818
4.86015
-0.126948
4.86188
-0.122269
4.86357
-0.117777
4.8652
-0.113466
4.8668
-0.109329
4.86834
-0.10536
4.86984
-0.101554
4.8713
-0.0979052
4.87271
-0.0944081
4.87407
-0.0910574
4.87538
-0.0878476
4.87665
-0.0847736
4.87788
-0.0818303
4.87906
-0.0790129
4.8802
-0.0763165
4.8813
-0.0737365
4.88236
-0.0712686
4.88339
-0.0689082
4.88437
-0.0666514
4.88532
-0.064494
4.88623
-0.0624322
4.88711
-0.0604622
4.88796
-0.0585804
4.88877
-0.0567834
4.88956
-0.0550679
4.89032
-0.0534307
4.89105
-0.0518688
4.89176
-0.0503794
4.89244
-0.0489597
4.89309
-0.047607
4.89373
-0.0463189
4.89434
-0.045093
4.89493
-0.0439272
4.89551
-0.0428193
4.89607
-0.0417673
4.89661
-0.0407694
4.89714
-0.0398238
4.89765
-0.0389288
4.89815
-0.038083
4.89864
-0.0372849
4.89913
-0.0365333
4.8996
-0.0358269
4.90007
-0.0351648
4.90053
-0.0345461
4.90099
-0.0339702
4.90145
-0.033437
4.90192
-0.0329467
4.90238
-0.0325004
4.90286
-0.0321003
4.90335
-0.0317504
4.90384
-0.0314566
4.90435
-0.0312279
4.90486
-0.0310756
4.90534
-0.0310071
-0.0310119
5.19972
-0.275407
-5.24757
5.15636
-0.311284
5.11661
-0.340282
5.08023
-0.36291
5.04731