/*--------------------------------*- C++ -*----------------------------------*\
  =========                 |
  \\      /  F ield         | OpenFOAM: The Open Source CFD Toolbox
   \\    /   O peration     | Website:  https://openfoam.org
    \\  /    A nd           | Version:  8
     \\/     M anipulation  |
\*---------------------------------------------------------------------------*/
FoamFile
{
    version     2.0;
    format      ascii;
    class       volScalarField;
    location    "0.500023";
    object      T;
}
// * * * * * * * * * * * * * * * * * * * * * * * * * * * * * * * * * * * * * //

dimensions      [0 0 0 1 0 0 0];

internalField   nonuniform List<scalar> 
6800
(
375.398
375.38
375.093
374.333
373.558
373.165
372.907
372.796
372.706
372.605
375.34
375.206
374.37
373.436
372.998
372.729
372.553
372.459
372.369
372.358
375.187
374.536
373.352
372.821
372.466
372.283
372.194
372.187
372.206
372.244
374.575
373.497
372.694
372.18
371.983
371.946
371.961
372.003
372.037
372.058
373.779
372.535
371.796
371.584
371.575
371.623
371.695
371.764
371.834
371.928
372.771
371.403
371.151
371.089
371.185
371.329
371.471
371.599
371.716
371.819
371.713
370.478
370.438
370.568
370.841
371.066
371.254
371.408
371.542
371.672
370.639
369.55
369.868
370.218
370.552
370.83
371.069
371.27
371.442
371.591
369.661
368.862
369.401
369.86
370.298
370.645
370.925
371.15
371.338
371.504
368.808
368.27
369.035
369.618
370.125
370.517
370.827
371.076
371.282
371.464
375.776
375.903
375.959
375.984
375.987
375.993
376.009
376.036
376.071
376.111
375.757
375.869
375.941
375.962
375.969
375.973
375.988
376.018
376.059
376.106
375.789
375.886
375.926
375.937
375.932
375.933
375.947
375.976
376.018
376.078
375.848
375.893
375.92
375.906
375.882
375.865
375.866
375.885
375.915
375.998
375.905
375.936
375.918
375.863
375.788
375.741
375.736
375.746
375.747
375.804
375.992
375.976
375.9
375.752
375.638
375.593
375.574
375.55
375.489
375.455
376.047
375.983
375.804
375.571
375.503
375.461
375.391
375.241
375.101
374.801
376.051
375.934
375.561
375.467
375.401
375.268
374.997
374.641
374.326
373.903
375.954
375.718
375.44
375.359
375.156
374.72
374.191
373.785
373.419
373.224
375.662
375.445
375.362
375.089
374.472
373.826
373.396
373.109
372.992
372.919
376.165
376.218
376.254
376.278
376.293
376.3
376.3
376.297
376.289
376.279
376.266
376.251
376.234
376.216
376.197
376.177
376.156
376.134
376.112
376.089
376.065
376.041
376.017
375.992
375.967
375.942
375.917
375.892
375.866
375.841
375.816
375.791
375.767
375.742
375.718
375.695
375.672
375.649
375.627
375.605
375.583
375.562
375.542
375.521
375.501
375.482
375.462
375.443
375.424
375.406
375.388
375.37
375.352
375.335
375.319
375.303
375.287
375.272
375.257
375.242
375.228
375.215
375.201
375.188
375.175
375.163
375.15
375.138
375.126
375.114
375.102
375.09
375.079
375.067
375.056
375.045
375.034
375.023
375.012
375.001
374.991
374.98
374.97
374.96
374.95
374.94
374.931
374.921
374.912
374.903
374.893
374.884
374.875
374.866
374.857
374.849
374.84
374.832
374.822
374.814
376.16
376.217
376.258
376.287
376.305
376.314
376.316
376.314
376.307
376.297
376.285
376.27
376.253
376.234
376.215
376.194
376.172
376.15
376.127
376.103
376.078
376.054
376.028
376.003
375.977
375.951
375.925
375.9
375.874
375.848
375.822
375.797
375.772
375.747
375.723
375.699
375.676
375.653
375.63
375.608
375.587
375.565
375.544
375.524
375.504
375.484
375.464
375.445
375.426
375.408
375.39
375.372
375.354
375.337
375.321
375.305
375.289
375.274
375.259
375.244
375.23
375.216
375.203
375.19
375.177
375.164
375.152
375.14
375.127
375.115
375.104
375.092
375.08
375.069
375.057
375.046
375.035
375.024
375.013
375.003
374.992
374.982
374.972
374.962
374.952
374.942
374.932
374.923
374.913
374.904
374.895
374.886
374.877
374.868
374.859
374.851
374.841
374.834
374.824
374.816
376.138
376.207
376.258
376.294
376.317
376.33
376.334
376.333
376.327
376.317
376.304
376.288
376.27
376.251
376.23
376.208
376.185
376.161
376.136
376.111
376.085
376.059
376.032
376.006
375.979
375.952
375.925
375.898
375.872
375.845
375.819
375.794
375.768
375.743
375.718
375.694
375.671
375.648
375.625
375.603
375.581
375.559
375.539
375.518
375.498
375.478
375.458
375.439
375.421
375.402
375.384
375.367
375.349
375.333
375.316
375.3
375.285
375.27
375.255
375.241
375.227
375.213
375.2
375.187
375.174
375.161
375.149
375.137
375.125
375.113
375.101
375.089
375.078
375.067
375.055
375.044
375.033
375.022
375.012
375.001
374.991
374.981
374.971
374.961
374.951
374.941
374.932
374.922
374.913
374.904
374.895
374.886
374.877
374.868
374.859
374.851
374.842
374.834
374.825
374.816
376.062
376.152
376.217
376.262
376.29
376.306
376.313
376.312
376.306
376.295
376.28
376.263
376.243
376.221
376.198
376.174
376.149
376.123
376.097
376.07
376.043
376.016
375.989
375.961
375.934
375.907
375.88
375.853
375.826
375.8
375.774
375.749
375.724
375.699
375.675
375.652
375.629
375.607
375.585
375.563
375.542
375.521
375.501
375.482
375.462
375.443
375.424
375.406
375.388
375.371
375.354
375.337
375.321
375.305
375.289
375.274
375.259
375.245
375.231
375.217
375.204
375.191
375.178
375.166
375.154
375.142
375.13
375.118
375.107
375.095
375.084
375.073
375.062
375.051
375.04
375.029
375.019
375.009
374.998
374.988
374.978
374.969
374.959
374.95
374.94
374.931
374.922
374.913
374.904
374.895
374.886
374.877
374.869
374.86
374.852
374.844
374.835
374.827
374.819
374.809
375.859
375.959
376.034
376.083
376.112
376.129
376.137
376.136
376.13
376.118
376.104
376.086
376.067
376.045
376.023
376
375.976
375.951
375.926
375.902
375.877
375.852
375.827
375.802
375.777
375.753
375.729
375.705
375.681
375.658
375.636
375.614
375.592
375.571
375.55
375.53
375.51
375.491
375.472
375.453
375.435
375.417
375.4
375.382
375.366
375.349
375.333
375.317
375.302
375.287
375.272
375.258
375.244
375.23
375.217
375.204
375.191
375.179
375.166
375.155
375.143
375.132
375.121
375.11
375.099
375.088
375.078
375.067
375.057
375.047
375.037
375.027
375.017
375.008
374.998
374.989
374.979
374.97
374.961
374.952
374.943
374.934
374.925
374.917
374.908
374.9
374.892
374.883
374.875
374.867
374.859
374.851
374.843
374.835
374.828
374.82
374.812
374.804
374.797
374.788
375.467
375.52
375.579
375.608
375.618
375.621
375.618
375.612
375.602
375.59
375.577
375.563
375.55
375.536
375.523
375.509
375.496
375.483
375.47
375.457
375.445
375.432
375.419
375.407
375.394
375.382
375.37
375.358
375.345
375.334
375.322
375.31
375.298
375.287
375.275
375.263
375.252
375.241
375.23
375.218
375.208
375.197
375.186
375.175
375.165
375.155
375.145
375.135
375.125
375.115
375.105
375.096
375.087
375.078
375.069
375.06
375.051
375.043
375.035
375.027
375.018
375.011
375.003
374.995
374.987
374.979
374.972
374.964
374.957
374.949
374.942
374.934
374.927
374.919
374.912
374.905
374.897
374.89
374.883
374.876
374.869
374.862
374.855
374.848
374.842
374.835
374.828
374.821
374.815
374.808
374.802
374.795
374.788
374.782
374.775
374.769
374.763
374.755
374.75
374.741
374.755
374.792
374.826
374.831
374.827
374.818
374.802
374.79
374.773
374.757
374.742
374.727
374.714
374.702
374.693
374.684
374.677
374.672
374.668
374.666
374.666
374.667
374.669
374.672
374.677
374.683
374.689
374.696
374.704
374.712
374.72
374.728
374.736
374.743
374.75
374.757
374.764
374.769
374.775
374.779
374.784
374.788
374.791
374.794
374.796
374.799
374.8
374.802
374.803
374.803
374.804
374.804
374.804
374.804
374.803
374.802
374.801
374.8
374.799
374.798
374.796
374.794
374.792
374.79
374.788
374.786
374.783
374.781
374.778
374.775
374.772
374.769
374.766
374.762
374.759
374.756
374.752
374.749
374.745
374.741
374.737
374.734
374.73
374.726
374.722
374.718
374.714
374.71
374.706
374.702
374.698
374.693
374.689
374.685
374.68
374.676
374.672
374.666
374.663
374.656
373.86
373.914
373.967
374.003
374.026
374.04
374.051
374.058
374.062
374.064
374.064
374.061
374.059
374.055
374.051
374.047
374.043
374.038
374.035
374.031
374.027
374.025
374.022
374.02
374.019
374.018
374.018
374.019
374.021
374.024
374.028
374.033
374.039
374.046
374.055
374.065
374.076
374.087
374.1
374.114
374.129
374.144
374.16
374.177
374.194
374.211
374.228
374.245
374.263
374.28
374.296
374.312
374.328
374.342
374.356
374.37
374.382
374.394
374.405
374.415
374.425
374.434
374.443
374.451
374.458
374.465
374.471
374.477
374.482
374.487
374.492
374.496
374.5
374.504
374.507
374.51
374.512
374.515
374.517
374.519
374.521
374.522
374.523
374.524
374.525
374.525
374.526
374.526
374.526
374.526
374.526
374.525
374.525
374.524
374.523
374.522
374.521
374.519
374.518
374.515
373.256
373.32
373.411
373.485
373.542
373.588
373.625
373.656
373.68
373.7
373.714
373.726
373.734
373.741
373.744
373.746
373.746
373.745
373.743
373.74
373.737
373.732
373.727
373.722
373.717
373.711
373.705
373.699
373.693
373.688
373.683
373.678
373.673
373.668
373.664
373.661
373.658
373.656
373.655
373.654
373.655
373.656
373.658
373.661
373.664
373.669
373.675
373.681
373.689
373.698
373.708
373.718
373.73
373.743
373.758
373.773
373.789
373.805
373.822
373.84
373.859
373.877
373.896
373.915
373.934
373.953
373.972
373.99
374.008
374.026
374.043
374.06
374.076
374.091
374.106
374.119
374.133
374.145
374.157
374.168
374.178
374.188
374.197
374.206
374.214
374.222
374.229
374.236
374.243
374.249
374.255
374.26
374.266
374.27
374.275
374.279
374.283
374.286
374.29
374.293
372.943
373.017
373.101
373.181
373.249
373.308
373.357
373.398
373.432
373.46
373.483
373.501
373.514
373.525
373.533
373.538
373.541
373.543
373.543
373.542
373.541
373.538
373.535
373.531
373.527
373.522
373.518
373.512
373.507
373.502
373.496
373.491
373.485
373.48
373.475
373.47
373.464
373.46
373.455
373.45
373.446
373.442
373.438
373.434
373.431
373.428
373.425
373.423
373.421
373.419
373.418
373.417
373.417
373.417
373.418
373.419
373.42
373.422
373.425
373.429
373.433
373.438
373.443
373.45
373.457
373.465
373.473
373.483
373.493
373.504
373.516
373.528
373.541
373.555
373.569
373.584
373.6
373.616
373.632
373.649
373.666
373.683
373.7
373.718
373.735
373.752
373.769
373.786
373.802
373.819
373.834
373.85
373.864
373.879
373.891
373.906
373.917
373.931
373.939
373.953
372.607
372.708
372.81
372.905
372.989
373.061
373.122
373.175
373.218
373.255
373.286
373.311
373.332
373.35
373.364
373.375
373.384
373.391
373.396
373.4
373.402
373.404
373.404
373.403
373.402
373.4
373.398
373.396
373.392
373.389
373.386
373.382
373.378
373.374
373.37
373.366
373.362
373.358
373.353
373.349
373.345
373.342
373.338
373.334
373.33
373.327
373.323
373.32
373.317
373.314
373.311
373.308
373.305
373.303
373.3
373.298
373.296
373.294
373.292
373.29
373.289
373.288
373.286
373.286
373.285
373.285
373.284
373.284
373.284
373.285
373.286
373.287
373.288
373.29
373.292
373.294
373.297
373.3
373.304
373.308
373.313
373.318
373.323
373.33
373.336
373.344
373.351
373.36
373.368
373.379
373.387
373.399
373.409
373.422
373.432
373.446
373.456
373.472
373.482
373.5
372.546
372.645
372.74
372.829
372.907
372.975
373.034
373.086
373.13
373.168
373.2
373.228
373.251
373.27
373.286
373.3
373.311
373.32
373.326
373.332
373.336
373.339
373.34
373.341
373.341
373.34
373.339
373.337
373.335
373.332
373.33
373.327
373.323
373.32
373.316
373.313
373.309
373.305
373.301
373.298
373.294
373.29
373.287
373.283
373.28
373.276
373.273
373.27
373.266
373.263
373.26
373.257
373.254
373.251
373.249
373.246
373.243
373.241
373.239
373.237
373.234
373.232
373.23
373.229
373.227
373.225
373.224
373.222
373.221
373.219
373.218
373.217
373.216
373.214
373.213
373.213
373.212
373.211
373.21
373.21
373.209
373.209
373.208
373.208
373.208
373.208
373.208
373.209
373.209
373.21
373.211
373.212
373.213
373.215
373.216
373.218
373.22
373.223
373.223
373.23
372.515
372.61
372.702
372.786
372.86
372.926
372.984
373.035
373.079
373.117
373.149
373.177
373.2
373.22
373.236
373.25
373.261
373.27
373.277
373.283
373.287
373.29
373.292
373.293
373.293
373.292
373.291
373.29
373.288
373.285
373.283
373.28
373.277
373.274
373.27
373.267
373.264
373.26
373.257
373.253
373.25
373.246
373.243
373.239
373.236
373.233
373.23
373.227
373.224
373.221
373.218
373.215
373.212
373.21
373.207
373.204
373.202
373.2
373.197
373.195
373.193
373.191
373.189
373.188
373.186
373.184
373.182
373.181
373.179
373.178
373.177
373.175
373.174
373.173
373.171
373.17
373.169
373.168
373.167
373.166
373.165
373.164
373.163
373.163
373.162
373.161
373.16
373.16
373.159
373.158
373.158
373.157
373.156
373.156
373.155
373.154
373.154
373.153
373.152
373.152
372.5
372.59
372.677
372.756
372.827
372.889
372.944
372.993
373.035
373.072
373.103
373.13
373.153
373.173
373.189
373.203
373.214
373.224
373.231
373.237
373.242
373.245
373.247
373.249
373.249
373.249
373.249
373.248
373.246
373.244
373.242
373.24
373.237
373.235
373.232
373.229
373.226
373.222
373.219
373.216
373.213
373.21
373.207
373.204
373.201
373.198
373.195
373.192
373.189
373.187
373.184
373.181
373.179
373.176
373.174
373.171
373.169
373.167
373.165
373.163
373.161
373.159
373.157
373.156
373.154
373.152
373.151
373.149
373.148
373.147
373.145
373.144
373.143
373.142
373.14
373.139
373.138
373.137
373.136
373.135
373.134
373.133
373.133
373.132
373.131
373.13
373.129
373.129
373.128
373.127
373.126
373.126
373.125
373.124
373.123
373.123
373.122
373.121
373.12
373.119
372.495
372.58
372.662
372.736
372.802
372.861
372.913
372.959
373
373.035
373.066
373.092
373.115
373.134
373.151
373.165
373.176
373.186
373.194
373.2
373.205
373.208
373.211
373.213
373.214
373.214
373.214
373.213
373.212
373.21
373.209
373.206
373.204
373.202
373.199
373.196
373.194
373.191
373.188
373.185
373.182
373.179
373.177
373.174
373.171
373.168
373.166
373.163
373.16
373.158
373.155
373.153
373.15
373.148
373.146
373.144
373.141
373.139
373.137
373.136
373.134
373.132
373.13
373.129
373.127
373.126
373.124
373.123
373.122
373.12
373.119
373.118
373.117
373.116
373.114
373.113
373.112
373.111
373.111
373.11
373.109
373.108
373.107
373.106
373.106
373.105
373.104
373.103
373.103
373.102
373.101
373.101
373.1
373.099
373.098
373.098
373.097
373.096
373.095
373.094
372.5
372.578
372.655
372.724
372.785
372.84
372.889
372.933
372.971
373.005
373.035
373.06
373.082
373.101
373.117
373.131
373.143
373.152
373.16
373.166
373.171
373.175
373.178
373.18
373.181
373.182
373.182
373.181
373.181
373.179
373.178
373.176
373.174
373.172
373.17
373.167
373.165
373.162
373.16
373.157
373.155
373.152
373.15
373.147
373.144
373.142
373.139
373.137
373.135
373.132
373.13
373.128
373.126
373.123
373.121
373.119
373.117
373.115
373.114
373.112
373.11
373.109
373.107
373.105
373.104
373.103
373.101
373.1
373.099
373.098
373.096
373.095
373.094
373.093
373.092
373.091
373.09
373.089
373.089
373.088
373.087
373.086
373.085
373.085
373.084
373.083
373.083
373.082
373.081
373.081
373.08
373.079
373.079
373.078
373.077
373.077
373.076
373.075
373.074
373.074
372.512
372.583
372.654
372.717
372.774
372.825
372.871
372.912
372.948
372.981
373.009
373.033
373.055
373.073
373.089
373.102
373.113
373.123
373.13
373.137
373.142
373.146
373.149
373.151
373.153
373.154
373.154
373.154
373.153
373.152
373.151
373.15
373.148
373.146
373.144
373.142
373.14
373.138
373.135
373.133
373.131
373.128
373.126
373.124
373.121
373.119
373.117
373.115
373.112
373.11
373.108
373.106
373.104
373.102
373.1
373.098
373.096
373.095
373.093
373.091
373.09
373.088
373.087
373.086
373.084
373.083
373.082
373.081
373.079
373.078
373.077
373.076
373.075
373.074
373.073
373.073
373.072
373.071
373.07
373.069
373.068
373.068
373.067
373.066
373.066
373.065
373.064
373.064
373.063
373.063
373.062
373.061
373.061
373.06
373.06
373.059
373.058
373.058
373.057
373.056
372.53
372.594
372.658
372.717
372.769
372.816
372.858
372.897
372.931
372.961
372.988
373.011
373.031
373.049
373.064
373.077
373.088
373.097
373.105
373.111
373.116
373.12
373.123
373.126
373.128
373.129
373.129
373.129
373.129
373.128
373.127
373.126
373.125
373.123
373.121
373.12
373.118
373.116
373.114
373.112
373.11
373.107
373.105
373.103
373.101
373.099
373.097
373.095
373.093
373.091
373.089
373.087
373.086
373.084
373.082
373.08
373.079
373.077
373.076
373.074
373.073
373.071
373.07
373.069
373.068
373.066
373.065
373.064
373.063
373.062
373.061
373.06
373.059
373.058
373.058
373.057
373.056
373.055
373.054
373.054
373.053
373.052
373.052
373.051
373.051
373.05
373.049
373.049
373.048
373.048
373.047
373.047
373.046
373.046
373.045
373.044
373.044
373.043
373.043
373.042
372.553
372.61
372.668
372.722
372.769
372.812
372.851
372.887
372.918
372.946
372.971
372.993
373.012
373.029
373.044
373.056
373.066
373.075
373.083
373.089
373.094
373.098
373.102
373.104
373.106
373.107
373.108
373.108
373.108
373.107
373.107
373.106
373.105
373.103
373.102
373.1
373.099
373.097
373.095
373.093
373.091
373.09
373.088
373.086
373.084
373.082
373.08
373.079
373.077
373.075
373.073
373.072
373.07
373.068
373.067
373.065
373.064
373.062
373.061
373.06
373.058
373.057
373.056
373.055
373.054
373.053
373.051
373.051
373.05
373.049
373.048
373.047
373.046
373.045
373.045
373.044
373.043
373.042
373.042
373.041
373.04
373.04
373.039
373.039
373.038
373.038
373.037
373.037
373.036
373.036
373.035
373.035
373.034
373.034
373.033
373.033
373.032
373.032
373.031
373.03
372.581
372.631
372.684
372.731
372.774
372.813
372.849
372.881
372.91
372.936
372.96
372.98
372.998
373.014
373.027
373.039
373.049
373.057
373.065
373.071
373.076
373.08
373.083
373.085
373.087
373.088
373.089
373.09
373.09
373.09
373.089
373.088
373.087
373.086
373.085
373.084
373.082
373.081
373.079
373.078
373.076
373.074
373.073
373.071
373.07
373.068
373.066
373.065
373.063
373.062
373.06
373.058
373.057
373.056
373.054
373.053
373.051
373.05
373.049
373.048
373.046
373.045
373.044
373.043
373.042
373.041
373.04
373.039
373.039
373.038
373.037
373.036
373.035
373.035
373.034
373.033
373.033
373.032
373.032
373.031
373.03
373.03
373.029
373.029
373.028
373.028
373.027
373.027
373.027
373.026
373.026
373.025
373.025
373.024
373.024
373.023
373.023
373.022
373.022
373.021
372.613
372.657
372.703
372.746
372.784
372.819
372.851
372.881
372.907
372.931
372.952
372.971
372.988
373.002
373.015
373.026
373.035
373.043
373.05
373.055
373.06
373.064
373.067
373.07
373.072
373.073
373.074
373.074
373.075
373.075
373.074
373.074
373.073
373.072
373.071
373.07
373.069
373.067
373.066
373.065
373.063
373.062
373.06
373.059
373.057
373.056
373.055
373.053
373.052
373.05
373.049
373.048
373.046
373.045
373.044
373.042
373.041
373.04
373.039
373.038
373.037
373.036
373.035
373.034
373.033
373.032
373.031
373.031
373.03
373.029
373.028
373.028
373.027
373.026
373.026
373.025
373.025
373.024
373.024
373.023
373.022
373.022
373.022
373.021
373.021
373.02
373.02
373.019
373.019
373.019
373.018
373.018
373.017
373.017
373.017
373.016
373.016
373.015
373.015
373.014
372.649
372.686
372.727
372.764
372.798
372.829
372.858
372.884
372.908
372.929
372.949
372.966
372.981
372.994
373.005
373.015
373.024
373.031
373.038
373.043
373.048
373.051
373.054
373.057
373.058
373.06
373.061
373.061
373.062
373.062
373.061
373.061
373.06
373.06
373.059
373.058
373.057
373.056
373.055
373.053
373.052
373.051
373.05
373.049
373.047
373.046
373.045
373.044
373.042
373.041
373.04
373.039
373.037
373.036
373.035
373.034
373.033
373.032
373.031
373.03
373.029
373.028
373.027
373.027
373.026
373.025
373.024
373.024
373.023
373.022
373.022
373.021
373.02
373.02
373.019
373.019
373.018
373.018
373.017
373.017
373.016
373.016
373.015
373.015
373.015
373.014
373.014
373.014
373.013
373.013
373.013
373.012
373.012
373.011
373.011
373.011
373.01
373.01
373.01
373.009
372.686
372.719
372.753
372.786
372.815
372.843
372.868
372.891
372.912
372.931
372.948
372.963
372.977
372.989
372.999
373.008
373.016
373.023
373.028
373.033
373.037
373.041
373.043
373.046
373.047
373.049
373.05
373.05
373.051
373.051
373.051
373.05
373.05
373.049
373.049
373.048
373.047
373.046
373.045
373.044
373.043
373.042
373.041
373.04
373.039
373.038
373.036
373.035
373.034
373.033
373.032
373.031
373.03
373.029
373.028
373.027
373.026
373.025
373.025
373.024
373.023
373.022
373.021
373.021
373.02
373.019
373.019
373.018
373.017
373.017
373.016
373.016
373.015
373.015
373.014
373.014
373.013
373.013
373.012
373.012
373.012
373.011
373.011
373.01
373.01
373.01
373.009
373.009
373.009
373.008
373.008
373.008
373.008
373.007
373.007
373.007
373.006
373.006
373.006
373.005
372.726
372.753
372.783
372.81
372.836
372.859
372.881
372.901
372.919
372.935
372.95
372.964
372.975
372.986
372.995
373.003
373.01
373.016
373.021
373.025
373.029
373.032
373.034
373.036
373.038
373.039
373.04
373.041
373.041
373.041
373.041
373.041
373.041
373.04
373.04
373.039
373.038
373.038
373.037
373.036
373.035
373.034
373.033
373.032
373.031
373.03
373.029
373.029
373.028
373.027
373.026
373.025
373.024
373.023
373.022
373.021
373.021
373.02
373.019
373.018
373.018
373.017
373.016
373.016
373.015
373.014
373.014
373.013
373.013
373.012
373.012
373.011
373.011
373.01
373.01
373.009
373.009
373.009
373.008
373.008
373.008
373.007
373.007
373.007
373.006
373.006
373.006
373.005
373.005
373.005
373.005
373.004
373.004
373.004
373.003
373.003
373.003
373.003
373.002
373.002
372.767
372.789
372.814
372.837
372.858
372.877
372.896
372.912
372.928
372.942
372.954
372.966
372.976
372.985
372.993
373
373.005
373.011
373.015
373.019
373.022
373.025
373.027
373.029
373.03
373.031
373.032
373.033
373.033
373.033
373.033
373.033
373.033
373.032
373.032
373.031
373.031
373.03
373.029
373.028
373.028
373.027
373.026
373.025
373.025
373.024
373.023
373.022
373.021
373.021
373.02
373.019
373.018
373.017
373.017
373.016
373.015
373.015
373.014
373.013
373.013
373.012
373.011
373.011
373.01
373.01
373.009
373.009
373.008
373.008
373.008
373.007
373.007
373.006
373.006
373.006
373.005
373.005
373.005
373.004
373.004
373.004
373.003
373.003
373.003
373.003
373.002
373.002
373.002
373.002
373.001
373.001
373.001
373.001
373
373
373
373
372.999
372.999
372.809
372.827
372.846
372.865
372.882
372.898
372.913
372.926
372.939
372.95
372.961
372.97
372.978
372.986
372.992
372.998
373.003
373.007
373.011
373.014
373.016
373.019
373.02
373.022
373.023
373.024
373.024
373.025
373.025
373.025
373.025
373.025
373.025
373.024
373.024
373.023
373.023
373.022
373.022
373.021
373.02
373.02
373.019
373.018
373.018
373.017
373.016
373.016
373.015
373.014
373.014
373.013
373.012
373.012
373.011
373.01
373.01
373.009
373.009
373.008
373.008
373.007
373.007
373.006
373.006
373.005
373.005
373.004
373.004
373.004
373.003
373.003
373.002
373.002
373.002
373.002
373.001
373.001
373.001
373
373
373
373
372.999
372.999
372.999
372.999
372.999
372.998
372.998
372.998
372.998
372.998
372.997
372.997
372.997
372.997
372.997
372.996
372.996
372.851
372.864
372.879
372.894
372.907
372.919
372.93
372.941
372.951
372.96
372.968
372.975
372.981
372.987
372.992
372.997
373
373.004
373.006
373.009
373.011
373.012
373.014
373.015
373.015
373.016
373.016
373.017
373.017
373.017
373.017
373.016
373.016
373.016
373.015
373.015
373.014
373.014
373.013
373.013
373.012
373.012
373.011
373.011
373.01
373.009
373.009
373.008
373.008
373.007
373.007
373.006
373.006
373.005
373.005
373.004
373.004
373.003
373.003
373.002
373.002
373.002
373.001
373.001
373
373
373
372.999
372.999
372.999
372.999
372.998
372.998
372.998
372.997
372.997
372.997
372.997
372.997
372.996
372.996
372.996
372.996
372.996
372.996
372.995
372.995
372.995
372.995
372.995
372.995
372.994
372.994
372.994
372.994
372.994
372.994
372.994
372.993
372.993
372.894
372.903
372.914
372.924
372.933
372.942
372.95
372.957
372.964
372.971
372.976
372.981
372.985
372.989
372.993
372.995
372.998
373
373.002
373.003
373.004
373.005
373.006
373.006
373.007
373.007
373.007
373.007
373.007
373.007
373.007
373.007
373.006
373.006
373.006
373.005
373.005
373.005
373.004
373.004
373.003
373.003
373.003
373.002
373.002
373.001
373.001
373.001
373
373
373
372.999
372.999
372.999
372.998
372.998
372.998
372.997
372.997
372.997
372.997
372.996
372.996
372.996
372.996
372.995
372.995
372.995
372.995
372.995
372.995
372.994
372.994
372.994
372.994
372.994
372.994
372.994
372.993
372.993
372.993
372.993
372.993
372.993
372.993
372.993
372.993
372.993
372.992
372.992
372.992
372.992
372.992
372.992
372.992
372.992
372.992
372.992
372.992
372.992
372.937
372.942
372.948
372.954
372.959
372.964
372.968
372.972
372.976
372.978
372.981
372.983
372.986
372.987
372.989
372.99
372.991
372.992
372.993
372.994
372.994
372.995
372.995
372.995
372.996
372.996
372.996
372.996
372.996
372.996
372.996
372.996
372.996
372.996
372.996
372.996
372.996
372.996
372.996
372.996
372.996
372.995
372.995
372.995
372.995
372.995
372.995
372.995
372.995
372.995
372.995
372.995
372.995
372.995
372.994
372.994
372.994
372.994
372.994
372.994
372.994
372.994
372.994
372.994
372.993
372.993
372.993
372.993
372.993
372.993
372.993
372.993
372.993
372.993
372.993
372.993
372.993
372.993
372.993
372.992
372.992
372.992
372.992
372.992
372.992
372.992
372.992
372.992
372.992
372.992
372.992
372.992
372.992
372.992
372.992
372.992
372.992
372.992
372.992
372.992
372.971
372.973
372.974
372.975
372.976
372.976
372.977
372.978
372.978
372.979
372.98
372.98
372.981
372.981
372.982
372.983
372.983
372.984
372.984
372.985
372.986
372.986
372.987
372.987
372.988
372.988
372.989
372.989
372.99
372.99
372.99
372.991
372.991
372.991
372.992
372.992
372.992
372.992
372.992
372.993
372.993
372.993
372.993
372.993
372.993
372.993
372.993
372.993
372.993
372.994
372.994
372.994
372.994
372.994
372.994
372.994
372.994
372.994
372.994
372.994
372.994
372.994
372.994
372.993
372.993
372.993
372.993
372.993
372.993
372.993
372.993
372.993
372.993
372.993
372.993
372.993
372.993
372.993
372.993
372.993
372.993
372.993
372.993
372.993
372.993
372.993
372.993
372.993
372.993
372.993
372.993
372.993
372.993
372.993
372.993
372.992
372.992
372.992
372.992
372.992
371.635
371.659
371.714
371.797
371.879
372.015
372.095
372.245
372.337
372.498
371.782
371.794
371.83
371.894
371.951
372.057
372.123
372.238
372.327
372.444
371.9
371.906
371.932
371.979
372.024
372.105
372.162
372.247
372.328
372.421
372.004
372.006
372.023
372.058
372.094
372.151
372.21
372.268
372.338
372.416
372.1
372.097
372.107
372.13
372.163
372.201
372.253
372.301
372.357
372.422
372.187
372.181
372.186
372.201
372.227
372.255
372.295
372.336
372.381
372.436
372.267
372.259
372.261
372.27
372.288
372.311
372.34
372.374
372.411
372.456
372.341
372.332
372.331
372.337
372.349
372.366
372.388
372.415
372.445
372.482
372.411
372.401
372.398
372.401
372.409
372.421
372.438
372.458
372.482
372.512
372.476
372.466
372.462
372.463
372.467
372.476
372.488
372.504
372.522
372.546
372.537
372.528
372.523
372.522
372.525
372.53
372.539
372.551
372.565
372.583
372.594
372.586
372.581
372.579
372.58
372.584
372.59
372.599
372.61
372.623
372.649
372.641
372.636
372.634
372.634
372.636
372.641
372.647
372.655
372.666
372.701
372.694
372.69
372.687
372.687
372.688
372.691
372.695
372.701
372.709
372.751
372.745
372.741
372.739
372.738
372.738
372.74
372.743
372.748
372.753
372.8
372.795
372.791
372.789
372.788
372.788
372.789
372.791
372.795
372.799
372.846
372.843
372.84
372.838
372.837
372.836
372.837
372.838
372.84
372.843
372.893
372.89
372.888
372.887
372.886
372.885
372.885
372.886
372.887
372.888
372.937
372.935
372.934
372.933
372.933
372.932
372.932
372.932
372.933
372.934
372.978
372.977
372.976
372.975
372.974
372.973
372.972
372.971
372.971
372.97
373.303
373.287
373.222
373.124
372.987
372.798
372.532
372.154
371.645
370.973
372.972
372.925
372.836
372.708
372.526
372.28
371.947
371.484
370.86
370.163
372.659
372.576
372.462
372.304
372.083
371.785
371.383
370.836
370.126
369.419
372.375
372.257
372.115
371.926
371.666
371.321
370.866
370.246
369.434
368.81
372.124
371.976
371.807
371.589
371.298
370.912
370.404
369.721
368.844
368.258
371.908
371.736
371.544
371.302
370.983
370.566
370.026
369.296
368.343
367.818
371.732
371.543
371.335
371.075
370.739
370.3
369.736
368.979
367.991
367.479
371.598
371.4
371.183
370.912
370.567
370.12
369.548
368.79
367.771
367.53
371.508
371.309
371.089
370.817
370.473
370.03
369.463
368.732
367.764
367.712
371.464
371.27
371.054
370.789
370.456
370.034
369.49
368.824
367.923
368.156
375.287
375.46
375.637
375.823
376.036
376.26
376.508
376.747
376.979
377.002
375.256
375.424
375.597
375.777
375.982
376.197
376.433
376.657
376.885
376.927
375.175
375.334
375.495
375.663
375.851
376.048
376.261
376.454
376.659
376.666
375.053
375.197
375.342
375.489
375.656
375.821
376.003
376.15
376.3
376.27
374.893
375.014
375.142
375.261
375.399
375.53
375.665
375.761
375.837
375.751
374.696
374.794
374.894
374.988
375.084
375.174
375.26
375.29
375.281
375.118
374.464
374.541
374.609
374.669
374.73
374.763
374.788
374.751
374.652
374.391
374.208
374.254
374.296
374.312
374.328
374.314
374.265
374.156
373.95
373.588
373.931
373.949
373.955
373.935
373.895
373.828
373.708
373.507
373.21
372.733
373.645
373.635
373.599
373.537
373.446
373.315
373.125
372.84
372.425
371.854
373
373
373
373
373
373
373
373
373.001
373.001
373.001
373.001
373.001
373.001
373.002
373.002
373.002
373.002
373.003
373.003
373.003
373.004
373.004
373.004
373.005
373.005
373.006
373.006
373.007
373.008
373.009
373.009
373.011
373.011
373.012
373.013
373.015
373.016
373.017
373.018
373.021
373.022
373.024
373.025
373.028
373.03
373.033
373.035
373.039
373.041
373.045
373.047
373.052
373.055
373.061
373.064
373.071
373.075
373.082
373.087
373.095
373.1
373.111
373.116
373.128
373.135
373.148
373.157
373.171
373.182
373.198
373.21
373.229
373.244
373.266
373.282
373.307
373.327
373.356
373.379
373.412
373.439
373.478
373.511
373.556
373.595
373.647
373.695
373.756
373.816
373.889
373.963
374.054
374.147
374.26
374.381
374.527
374.687
374.881
375.117
373
373
373
373
373
373
373
373
373.001
373.001
373.001
373.001
373.001
373.001
373.002
373.002
373.002
373.002
373.003
373.003
373.003
373.004
373.004
373.004
373.005
373.005
373.006
373.006