/*--------------------------------*- C++ -*----------------------------------*\
  =========                 |
  \\      /  F ield         | OpenFOAM: The Open Source CFD Toolbox
   \\    /   O peration     | Website:  https://openfoam.org
    \\  /    A nd           | Version:  8
     \\/     M anipulation  |
\*---------------------------------------------------------------------------*/
FoamFile
{
    version     2.0;
    format      ascii;
    class       volVectorField;
    location    "0.500023";
    object      U;
}
// * * * * * * * * * * * * * * * * * * * * * * * * * * * * * * * * * * * * * //

dimensions      [0 1 -1 0 0 0 0];

internalField   nonuniform List<vector> 
6800
(
(26.4635 4.43746 -4.70549e-15)
(70.5664 -19.4421 0)
(95.9466 -19.7393 1.17126e-15)
(111.072 -18.3281 -1.98309e-15)
(120.502 -16.7065 -4.39542e-19)
(126.535 -15.0111 4.64834e-19)
(130.403 -13.4378 -1.56021e-15)
(132.875 -12.051 1.49125e-15)
(134.482 -10.8041 0)
(135.51 -9.71322 -6.90095e-16)
(47.2738 -2.94512 6.10417e-15)
(87.855 -26.328 -6.63947e-16)
(110.384 -21.9765 0)
(122.522 -19.1331 0)
(129.533 -16.666 0)
(133.707 -14.422 8.02159e-16)
(136.145 -12.5449 -7.69019e-16)
(137.524 -11.0279 1.47872e-15)
(138.286 -9.79864 7.1635e-16)
(138.636 -8.91851 -6.93426e-16)
(67.9913 -8.01674 -2.16392e-15)
(104.421 -32.1279 -1.15916e-15)
(123.374 -23.0844 0)
(132.393 -19.3255 -1.75594e-15)
(137.097 -16.1602 -8.25802e-16)
(139.569 -13.497 -8.71132e-19)
(140.749 -11.4086 1.52901e-15)
(141.206 -9.79114 -1.48325e-15)
(141.279 -8.52095 1.44701e-15)
(141.1 -7.58988 -1.40907e-15)
(89.2516 -10.3888 1.70359e-15)
(120.499 -36.1334 5.91123e-18)
(135.259 -22.7066 0)
(141.134 -18.7109 8.52413e-16)
(143.664 -15.0135 5.54252e-19)
(144.597 -12.1033 7.88508e-16)
(144.694 -9.90086 0)
(144.386 -8.22164 1.50275e-15)
(143.902 -6.91708 9.25017e-19)
(143.303 -5.93615 0)
(109.965 -9.64484 6.98676e-16)
(135.826 -37.8717 4.8211e-16)
(146.098 -20.6305 4.39268e-16)
(148.986 -17.1275 8.34962e-16)
(149.521 -13.0503 -4.04967e-16)
(149.091 -10.0938 3.97953e-16)
(148.251 -7.87947 -7.77387e-16)
(147.288 -6.20244 1.14655e-15)
(146.325 -4.91098 -1.50211e-15)
(145.357 -3.92559 -1.84748e-15)
(129.261 -5.80401 -1.2222e-15)
(150.075 -37.0964 4.43723e-16)
(155.825 -16.7783 -4.27275e-16)
(156.038 -14.4384 4.11272e-16)
(154.781 -10.1197 -1.22039e-15)
(153.159 -7.34609 8.01155e-16)
(151.5 -5.2353 0)
(149.959 -3.646 -7.81686e-16)
(148.564 -2.43982 3.85714e-16)
(147.25 -1.50676 3.81266e-16)
(146.421 0.850462 0)
(162.898 -33.7505 4.24757e-16)
(164.285 -11.2077 4.18561e-16)
(162.23 -10.5662 7.13832e-19)
(159.408 -6.15079 -4.08375e-16)
(156.764 -3.80069 4.07454e-16)
(154.389 -1.90782 4.04339e-16)
(152.331 -0.506937 4.02196e-16)
(150.543 0.52144 -1.59504e-15)
(148.904 1.34524 1.18437e-15)
(160.895 9.86654 2.46622e-16)
(173.941 -27.9209 -4.11606e-16)
(171.276 -4.10917 -4.13715e-16)
(167.417 -5.51548 -6.20523e-16)
(163.269 -1.15803 1.24358e-15)
(159.774 0.537467 -4.14378e-16)
(156.786 2.09773 -4.15983e-16)
(154.279 3.19915 4.15507e-16)
(152.147 3.95187 -8.27537e-16)
(150.209 4.61768 -6.1997e-16)
(172.296 20.6899 -1.14951e-16)
(182.863 -19.8359 9.98277e-17)
(176.589 4.22393 0)
(171.402 0.637543 2.07474e-16)
(166.185 4.73119 0)
(162.02 5.58587 -3.19778e-16)
(158.53 6.70797 3.21532e-16)
(155.655 7.40268 0)
(153.249 7.7894 -1.08003e-16)
(151.054 8.26154 3.24496e-16)
(180.399 32.709 0)
(189.366 -9.83169 -9.87817e-17)
(180.05 13.4108 -5.1634e-17)
(174.004 7.73501 5.23022e-17)
(167.971 11.315 1.91667e-31)
(163.325 11.2127 -1.10278e-16)
(159.469 11.7965 1.10964e-16)
(156.327 11.9894 1.12834e-16)
(153.732 11.9403 1.1389e-16)
(151.331 12.1871 -3.4309e-16)
(-9.73646 4.48322 0)
(-14.2836 3.07075 -1.80937e-16)
(-19.3961 2.10297 0)
(-22.555 1.33104 0)
(-24.1452 0.614772 0)
(-24.355 -0.107202 1.48126e-16)
(-23.3216 -0.851258 -1.46786e-16)
(-21.1612 -1.58859 -1.45029e-16)
(-18.1612 -2.19726 2.90063e-16)
(-14.5071 -2.55666 8.35849e-20)
(-9.44039 12.1051 3.66869e-16)
(-12.5354 8.34008 2.40692e-16)
(-16.714 5.96101 0)
(-18.9205 3.83242 4.04213e-16)
(-19.4085 1.71843 0)
(-18.3954 -0.468051 -2.02937e-16)
(-15.9515 -2.71557 2.02185e-16)
(-12.4699 -4.83981 0)
(-8.33774 -6.53472 -2.01947e-16)
(-3.656 -7.46929 6.82105e-16)
(-9.68858 17.3372 -6.97745e-16)
(-10.8903 12.9774 -9.96301e-16)
(-12.8248 8.98572 9.14382e-16)
(-12.8986 5.50815 -1.3675e-15)
(-10.9635 2.06014 -9.58625e-16)
(-6.99038 -1.53844 1.0031e-15)
(-1.7567 -5.08431 7.43064e-19)
(4.06498 -8.22532 -1.92597e-15)
(9.62442 -10.4261 3.43248e-15)
(15.5421 -11.4265 -1.24753e-15)
(-10.0493 21.0893 0)
(-9.13651 15.8657 1.07068e-15)
(-8.06475 10.7014 -1.04897e-15)
(-4.68007 5.94841 2.2939e-15)
(1.9702 0.803034 -1.18073e-15)
(10.1745 -4.04581 1.03e-15)
(18.0456 -7.95437 8.78082e-16)
(25.3144 -10.8928 7.70518e-16)
(31.8614 -12.9635 1.06137e-18)
(38.76 -13.6672 -6.74007e-16)
(-10.4302 22.911 4.08061e-19)
(-7.24232 16.7229 -1.18617e-15)
(-1.81062 10.1644 1.22412e-15)
(7.50645 3.76881 -1.19578e-15)
(19.2937 -2.33985 1.00251e-15)
(30.1432 -7.07374 -1.65615e-15)
(39.7876 -10.5042 0)
(48.2669 -12.845 -1.28631e-15)
(55.594 -14.374 5.91298e-16)
(63.0966 -14.5869 2.83382e-15)
(-10.7662 22.7783 1.43603e-15)
(-4.39793 15.0542 3.87687e-15)
(7.5531 6.90091 -1.30643e-15)
(23.8515 -0.712586 -2.08307e-15)
(38.4948 -6.33681 4.07765e-15)
(51.0232 -10.1927 -2.06981e-15)
(61.6567 -12.7224 0)
(70.6593 -14.2448 -5.60201e-16)
(78.0829 -15.0069 -4.18412e-19)
(85.2355 -14.6189 -4.85165e-16)
(-10.9742 21 2.9102e-15)
(0.775666 10.979 -3.21845e-19)
(22.6305 0.706036 0)
(42.2137 -6.02242 1.7034e-15)
(58.3618 -10.2565 2.77618e-15)
(71.5045 -12.8405 -1.20728e-15)
(82.0671 -14.2457 0)
(90.467 -14.8423 -1.96802e-15)
(97.0114 -14.9093 3.60825e-15)
(102.914 -14.0909 0)
(-9.74467 17.4341 -3.03698e-15)
(13.1732 3.12054 -6.18756e-15)
(40.4887 -6.08768 1.909e-15)
(61.6098 -10.9392 4.81956e-19)
(77.8341 -13.4137 -2.43749e-15)
(90.1285 -14.5511 0)
(99.3366 -14.8871 -9.53426e-16)
(106.242 -14.7049 0)
(111.386 -14.2283 -1.62112e-15)
(115.793 -13.1629 1.52859e-15)
(-5.42305 13.3741 1.80544e-15)
(30.9791 -4.88577 0)
(60.0006 -12.0402 0)
(80.5701 -14.6406 0)
(95.1473 -15.4127 0)
(105.444 -15.313 9.45854e-16)
(112.763 -14.7696 2.58976e-15)
(117.997 -14.0093 -1.60374e-15)
(121.722 -13.1779 -2.26701e-15)
(124.749 -12.0145 2.16299e-15)
(3.52743 11.0792 -5.1207e-15)
(51.0769 -12.2485 0)
(79.1567 -16.5425 -1.35074e-15)
(97.2731 -16.9577 2.20079e-15)
(109.287 -16.3581 3.899e-19)
(117.37 -15.3445 -1.73732e-15)
(122.857 -14.1994 1.61601e-15)
(126.578 -13.0648 -1.52601e-15)
(129.086 -11.9876 0)
(130.905 -10.7957 -7.0207e-16)
(-10.0661 -2.54998 -1.40667e-16)
(-4.8639 -2.33047 0)
(-0.0967616 -2.08794 0)
(4.16095 -1.83589 0)
(7.87896 -1.62387 0)
(11.2616 -1.46449 0)
(14.3527 -1.34056 -4.65349e-18)
(17.2079 -1.24009 1.45973e-16)
(19.8686 -1.15605 -1.38663e-16)
(22.3636 -1.08405 0)
(24.7146 -1.02122 4.31579e-18)
(26.9384 -0.965477 4.24445e-18)
(29.0484 -0.915398 4.17768e-18)
(31.0552 -0.869965 4.11513e-18)
(32.9679 -0.82838 4.05649e-18)
(34.7938 -0.790029 0)
(36.5392 -0.754456 -1.22449e-16)
(38.2098 -0.721305 3.89682e-18)
(39.8103 -0.690292 1.27238e-16)
(41.345 -0.661187 3.8128e-18)
(42.8179 -0.633802 0)
(44.2323 -0.60798 3.7343e-18)
(45.5916 -0.583592 -1.14649e-16)
(46.8986 -0.560518 1.20927e-16)
(48.1561 -0.538651 3.63231e-18)
(49.3665 -0.517905 -1.11661e-16)
(50.5323 -0.498216 1.1435e-16)
(51.6557 -0.479518 3.54624e-18)
(52.7388 -0.46174 3.52055e-18)
(53.7834 -0.44483 -1.08381e-16)
(54.7914 -0.428748 1.14616e-16)
(55.7646 -0.413453 3.45122e-18)
(56.7047 -0.398899 3.43034e-18)
(57.6131 -0.385038 -1.05721e-16)
(58.4912 -0.371823 1.08528e-16)
(59.3405 -0.359214 -1.11314e-16)
(60.1623 -0.347174 1.07389e-16)
(60.9575 -0.335673 0)
(61.7276 -0.324682 0)
(62.4734 -0.314175 1.05843e-16)
(63.196 -0.304131 -1.05373e-16)
(63.8965 -0.294525 -1.0819e-16)
(64.5757 -0.285338 1.04474e-16)
(65.2346 -0.276546 -1.04044e-16)
(65.874 -0.268132 1.00397e-16)
(66.4948 -0.260074 0)
(67.0976 -0.252358 -3.21407e-18)
(67.6833 -0.244966 0)
(68.2525 -0.237884 -3.19117e-18)
(68.8059 -0.231093 0)
(69.3442 -0.224577 0)
(69.868 -0.218324 0)
(70.3778 -0.21232 -3.14972e-18)
(70.8743 -0.206555 0)
(71.3578 -0.201017 4.69645e-17)
(71.829 -0.195696 -4.9955e-17)
(72.2883 -0.190582 0)
(72.7362 -0.185666 -3.10526e-18)
(73.1731 -0.18094 0)
(73.5994 -0.176394 -3.08948e-18)
(74.0155 -0.172022 0)
(74.4218 -0.167817 0)
(74.8187 -0.16377 0)
(75.2065 -0.159876 -4.89729e-17)
(75.5855 -0.156128 4.88682e-17)
(75.9561 -0.152521 -3.04782e-18)
(76.3185 -0.149047 0)
(76.6731 -0.145703 0)
(77.0202 -0.142484 -3.02971e-18)
(77.36 -0.139383 -4.8384e-17)
(77.6928 -0.136397 4.5278e-17)
(78.0188 -0.13352 4.82099e-17)
(78.3384 -0.130749 -5.11352e-17)
(78.6516 -0.128078 0)
(78.9589 -0.125503 0)
(79.2603 -0.123021 0)
(79.5561 -0.120628 -2.98844e-18)
(79.8465 -0.11832 2.38709e-17)
(80.1318 -0.116095 -2.38356e-17)
(80.4119 -0.113949 2.38005e-17)
(80.6873 -0.111879 -2.0796e-17)
(80.958 -0.109882 0)
(81.2242 -0.107955 -2.37008e-17)
(81.4861 -0.106095 4.73379e-17)
(81.7438 -0.104299 -2.06831e-17)
(81.9974 -0.102564 0)
(82.2471 -0.100884 0)
(82.4931 -0.0992586 0)
(82.7354 -0.0976796 0)
(82.9741 -0.0961437 2.93607e-18)
(83.2093 -0.0946393 0)
(83.4412 -0.0931598 -1.1716e-17)
(83.6696 -0.0916837 1.09219e-22)
(83.8946 -0.0901958 8.76646e-18)
(84.1162 -0.0886567 0)
(84.3341 -0.08703 -5.83097e-18)
(84.5479 -0.0852388 2.9127e-18)
(84.757 -0.0832457 5.81818e-18)
(84.9607 -0.0808839 0)
(85.2086 -0.0761542 0)
(0.747392 -7.11476 6.48034e-18)
(4.83874 -6.34046 -1.35349e-17)
(8.61715 -5.68671 -8.45579e-16)
(12.0773 -5.084 8.05143e-16)
(15.2488 -4.56275 0)
(18.1895 -4.1489 0)
(20.9228 -3.81757 1.7388e-17)
(23.4753 -3.54415 0)
(25.8718 -3.31275 -5.52842e-18)
(28.1322 -3.11304 1.08178e-17)
(30.272 -2.93772 -5.29874e-18)
(32.3033 -2.7814 -5.19621e-18)
(34.236 -2.6404 -5.10091e-18)
(36.0784 -2.51207 -5.01218e-18)
(37.8376 -2.39423 4.92919e-18)
(39.5194 -2.28521 0)
(41.1289 -2.18387 6.07119e-16)
(42.6708 -2.0893 -5.98547e-16)
(44.1492 -2.0007 -4.65016e-18)
(45.5678 -1.91743 -4.5912e-18)
(46.9299 -1.83898 0)
(48.2386 -1.76492 4.48384e-18)
(49.4967 -1.6949 -5.72125e-16)
(50.7069 -1.62861 1.11923e-15)
(51.8716 -1.56581 -5.60621e-16)
(52.9932 -1.50625 -1.29152e-17)
(54.0737 -1.4497 0)
(55.1151 -1.39597 -4.23028e-18)
(56.1194 -1.34492 -4.19588e-18)
(57.0883 -1.29636 5.37054e-16)
(58.0236 -1.25015 -5.33092e-16)
(58.9266 -1.20613 -2.66692e-16)
(59.799 -1.16417 5.25689e-16)
(60.642 -1.12413 -4.06071e-18)
(61.457 -1.0859 -2.57487e-16)
(62.2451 -1.04936 3.99893e-18)
(63.0075 -1.01442 0)
(63.7453 -0.981019 0)
(64.4595 -0.949069 2.51679e-16)
(65.1511 -0.918512 -2.50395e-16)
(65.8211 -0.889293 -2.49141e-16)
(66.4705 -0.86135 4.99777e-16)
(67.1 -0.834616 -1.09514e-20)
(67.7106 -0.809028 -2.45702e-16)
(68.3031 -0.784528 3.82239e-18)
(68.8781 -0.761065 0)
(69.4364 -0.738589 2.46411e-16)
(69.9788 -0.717053 -2.49233e-16)
(70.5059 -0.69641 -2.36995e-16)
(71.0183 -0.676613 2.39886e-16)
(71.5166 -0.65762 0)
(72.0015 -0.639396 -2.38213e-16)
(72.4735 -0.621906 2.41145e-16)
(72.933 -0.605112 -2.3667e-16)
(73.3807 -0.588983 2.39635e-16)
(73.817 -0.573486 0)
(74.2422 -0.558592 -2.34562e-16)
(74.657 -0.544274 4.71482e-16)
(75.0616 -0.530507 -2.33287e-16)
(75.4565 -0.517266 3.63559e-18)
(75.842 -0.504526 0)
(76.2184 -0.492267 0)
(76.5862 -0.480468 0)
(76.9457 -0.469113 0)
(77.297 -0.458182 0)
(77.6406 -0.44766 3.58516e-18)
(77.9768 -0.437528 0)
(78.3057 -0.427773 1.14256e-16)
(78.6278 -0.418382 -1.10471e-16)
(78.9431 -0.409339 -1.13817e-16)
(79.2521 -0.400632 3.55223e-18)
(79.5548 -0.392247 1.13406e-16)
(79.8516 -0.384169 1.16745e-16)
(80.1427 -0.376386 -1.75578e-21)
(80.4283 -0.368884 -1.12833e-16)
(80.7085 -0.361652 0)
(80.9837 -0.354679 1.1599e-16)
(81.2539 -0.347956 -1.519e-21)
(81.5193 -0.341472 -1.05131e-16)
(81.7802 -0.33522 -1.18975e-16)
(82.0367 -0.329188 1.08325e-16)
(82.2889 -0.323368 -6.2811e-17)
(82.537 -0.317751 4.87878e-17)
(82.7812 -0.312328 -6.26434e-17)
(83.0216 -0.30709 -3.4751e-18)
(83.2582 -0.302029 4.85984e-17)
(83.4914 -0.297132 6.93399e-18)
(83.721 -0.29239 4.84781e-17)
(83.9474 -0.287785 -5.53384e-17)
(84.1705 -0.283307 -5.87264e-17)
(84.3904 -0.27892 5.52098e-17)
(84.6073 -0.274607 2.06794e-17)
(84.821 -0.270306 -2.57062e-22)
(85.0317 -0.265971 -3.09507e-17)
(85.2392 -0.261488 6.87095e-18)
(85.4434 -0.256749 -6.86332e-18)
(85.6438 -0.251525 1.37139e-17)
(85.8399 -0.245646 -2.39736e-17)
(86.0322 -0.238444 6.84542e-18)
(86.264 -0.227393 -7.34313e-18)
(18.7347 -10.5191 -1.44534e-15)
(21.0078 -9.36504 3.39991e-17)
(23.4613 -8.47741 3.34521e-17)
(25.9159 -7.70797 1.40524e-15)
(28.2836 -7.02561 -1.35994e-15)
(30.5514 -6.45022 -1.33818e-15)
(32.7174 -5.97326 1.34647e-15)
(34.7832 -5.57208 2.05362e-17)
(36.7525 -5.22681 1.31379e-15)
(38.6306 -4.92456 -1.26313e-15)
(40.4227 -4.65619 1.95927e-17)
(42.1339 -4.41474 1.93064e-17)
(43.7695 -4.19555 1.23735e-15)
(45.3339 -3.99501 -1.20163e-15)
(46.8314 -3.81001 1.19541e-15)
(48.2656 -3.63822 8.93711e-20)
(49.6402 -3.47812 -1.13929e-15)
(50.9585 -3.32846 -8.93971e-18)
(52.2236 -3.18804 0)
(53.4382 -3.05592 0)
(54.6052 -2.93132 0)
(55.7268 -2.81364 8.58271e-18)
(56.8055 -2.70233 -5.44361e-16)
(57.8434 -2.59691 5.56545e-16)
(58.8425 -2.49695 -1.67256e-17)
(59.8048 -2.40212 8.29677e-18)
(60.7321 -2.31209 5.43418e-16)
(61.6259 -2.22653 -5.23134e-16)
(62.4878 -2.14511 -5.03217e-16)
(63.3194 -2.06763 -8.04041e-18)
(64.1219 -1.99388 5.12614e-16)
(64.8966 -1.92364 5.09392e-16)
(65.6447 -1.85667 -1.02061e-15)
(66.3674 -1.79275 5.03447e-16)
(67.0658 -1.73167 5.16288e-16)
(67.7408 -1.67327 -1.01156e-15)
(68.3935 -1.61742 4.95477e-16)
(69.0249 -1.564 -5.08438e-16)
(69.6357 -1.5129 5.0607e-16)
(70.2271 -1.46402 -1.52656e-17)
(70.7997 -1.41724 0)
(71.3544 -1.37248 0)
(71.892 -1.32967 0)
(72.4132 -1.28871 0)
(72.9187 -1.24953 0)
(73.4093 -1.21203 0)
(73.8856 -1.17614 -1.48495e-17)
(74.3482 -1.14179 2.21983e-17)
(74.7977 -1.1089 4.57249e-16)
(75.2347 -1.07736 -4.7052e-16)
(75.6597 -1.04713 -4.69063e-16)
(76.0732 -1.01814 4.67693e-16)
(76.4757 -0.990342 -4.66343e-16)
(76.8677 -0.963663 4.65072e-16)
(77.2495 -0.938052 0)
(77.6217 -0.913457 0)
(77.9846 -0.889829 0)
(78.3384 -0.867125 0)
(78.6837 -0.845303 -1.43531e-17)
(79.0208 -0.824318 0)
(79.3499 -0.804136 2.2863e-16)
(79.6713 -0.784725 -2.28153e-16)
(79.9854 -0.766051 0)
(80.2924 -0.748084 0)
(80.5927 -0.730793 0)
(80.8864 -0.714154 0)
(81.1738 -0.698144 0)
(81.4553 -0.682735 2.11474e-16)
(81.7309 -0.667902 -4.19457e-21)
(82.0009 -0.653622 -4.63691e-16)
(82.2656 -0.639872 2.38489e-16)
(82.5251 -0.626629 0)
(82.7796 -0.613873 -1.39853e-17)
(83.0294 -0.601583 0)
(83.2746 -0.589739 2.23107e-16)
(83.5153 -0.578323 -2.22795e-16)
(83.7518 -0.56732 -1.39053e-17)
(83.9842 -0.556714 -9.72049e-17)
(84.2126 -0.546487 9.01437e-17)
(84.4373 -0.536625 2.07753e-17)
(84.6583 -0.527112 -1.24493e-16)
(84.8758 -0.517935 1.17432e-16)
(85.0898 -0.509077 2.06979e-17)
(85.3007 -0.500527 6.89105e-18)
(85.5083 -0.492269 0)
(85.713 -0.484291 -6.87501e-18)
(85.9147 -0.476572 6.86727e-18)
(86.1136 -0.469102 1.16612e-16)
(86.3097 -0.461848 -1.23339e-16)
(86.5032 -0.454796 -5.47568e-17)
(86.6942 -0.44789 4.10255e-17)
(86.8826 -0.441104 -4.7811e-17)
(87.0685 -0.434338 6.82348e-17)
(87.2519 -0.42752 -6.81618e-18)
(87.4327 -0.420472 6.80986e-18)
(87.6109 -0.413026 -2.04082e-17)
(87.786 -0.404807 1.35942e-17)
(87.9575 -0.395506 1.35802e-17)
(88.1264 -0.383812 -6.78656e-18)
(88.3297 -0.369427 1.45276e-17)
(40.8657 -12.347 -1.24303e-15)
(41.6345 -11.1122 -2.18334e-17)
(42.7174 -10.2411 1.26887e-15)
(44.102 -9.49019 0)
(45.5815 -8.7893 -5.69964e-21)
(47.0722 -8.16417 1.23559e-15)
(48.5547 -7.62353 -1.87867e-17)
(50.0176 -7.15494 -1.24266e-15)
(51.4472 -6.7433 1.18903e-15)
(52.8346 -6.3767 -1.21029e-15)
(54.1742 -6.04631 -1.83844e-17)
(55.4655 -5.74555 1.14372e-15)
(56.7092 -5.46991 -2.31301e-15)
(57.9052 -5.21544 1.13394e-15)
(59.0546 -4.97885 -1.75201e-17)
(60.159 -4.75795 -1.09193e-15)
(61.2208 -4.55119 1.08058e-15)
(62.2413 -4.35719 0)
(63.2226 -4.17467 -1.07686e-15)
(64.1662 -4.00262 1.06725e-15)
(65.074 -3.84016 1.05821e-15)
(65.9475 -3.68657 -1.06603e-15)
(66.7884 -3.54119 0)
(67.598 -3.40345 -1.61533e-17)
(68.3778 -3.27281 1.60388e-17)
(69.1291 -3.14879 1.59295e-17)
(69.8531 -3.03094 -1.5826e-17)
(70.5509 -2.91889 0)
(71.2236 -2.81228 -1.56328e-17)
(71.8723 -2.71072 0)
(72.4979 -2.61393 9.89241e-16)
(73.1014 -2.52164 -9.84049e-16)
(73.6837 -2.43358 0)
(74.2457 -2.34949 -9.59026e-16)
(74.7882 -2.26914 9.54602e-16)
(75.3122 -2.19234 1.50844e-17)
(75.8183 -2.11891 0)
(76.3075 -2.04871 1.49578e-17)
(76.7806 -1.98159 -1.35178e-22)
(77.2383 -1.91743 1.48417e-17)
(77.6814 -1.85611 4.73182e-16)
(78.1105 -1.79749 -2.10421e-20)
(78.5263 -1.74141 -4.69947e-16)
(78.9294 -1.68776 -4.53759e-16)
(79.3203 -1.63643 4.66944e-16)
(79.6997 -1.58732 0)
(80.0679 -1.54033 1.45047e-17)
(80.4256 -1.49536 -1.44634e-17)
(80.7732 -1.45231 1.44237e-17)
(81.1111 -1.41105 4.45937e-16)
(81.4396 -1.37152 -1.62795e-20)
(81.7593 -1.33363 -4.72325e-16)
(82.0704 -1.2973 0)
(82.3733 -1.26244 1.42448e-17)
(82.6684 -1.22898 -4.54799e-16)
(82.9558 -1.19685 4.5382e-16)
(83.236 -1.16599 4.52847e-16)
(83.5092 -1.13634 -4.51933e-16)
(83.7757 -1.10786 2.81895e-17)
(84.0359 -1.08049 0)
(84.2898 -1.05417 0)
(84.5378 -1.02887 0)
(84.7802 -1.00454 -1.39916e-17)
(85.0172 -0.981151 -4.32994e-16)
(85.249 -0.958664 4.4623e-16)
(85.4758 -0.937037 -1.3922e-17)
(85.6979 -0.916232 4.44797e-16)
(85.9153 -0.896224 -8.74354e-16)
(86.1284 -0.87698 6.51317e-16)
(86.3373 -0.858467 -3.92505e-21)
(86.5422 -0.840652 -2.34901e-16)
(86.7432 -0.823504 2.06972e-16)
(86.9405 -0.806991 -1.92914e-16)
(87.1342 -0.791088 2.20175e-16)
(87.3245 -0.775764 -4.3978e-16)
(87.5116 -0.76099 3.15582e-21)
(87.6954 -0.746751 1.37115e-17)
(87.8763 -0.733029 1.91685e-16)
(88.0542 -0.719803 2.01601e-23)
(88.2293 -0.707055 -2.73183e-17)
(88.4018 -0.694764 1.82284e-23)
(88.5717 -0.682911 0)
(88.7391 -0.671477 1.90579e-16)
(88.9042 -0.660447 -1.22384e-16)
(89.067 -0.649799 -1.22252e-16)
(89.2276 -0.639519 1.3569e-17)
(89.3861 -0.629579 -2.711e-17)
(89.5427 -0.619968 -1.3541e-17)
(89.6974 -0.610641 1.0822e-16)
(89.8502 -0.601582 -1.0811e-16)
(90.0012 -0.592719 1.08006e-16)
(90.1504 -0.584018 -1.75335e-16)
(90.298 -0.575348 -2.69495e-17)
(90.4439 -0.566622 1.21154e-16)
(90.5879 -0.557602 -2.69005e-17)
(90.7303 -0.548077 -8.06203e-17)
(90.8705 -0.537555 2.68527e-17)
(91.0083 -0.525648 -6.46516e-23)
(91.1444 -0.510662 -1.34071e-17)
(91.3088 -0.49294 -2.86138e-17)
(64.6428 -13.0845 -4.64905e-15)
(64.5669 -11.9894 2.38069e-15)
(64.6696 -11.2375 1.2143e-15)
(65.1934 -10.5629 -1.17481e-15)
(65.9035 -9.90538 -1.85974e-17)
(66.6679 -9.29244 1.20203e-15)
(67.4621 -8.74131 -2.34875e-15)
(68.2788 -8.2487 1.16384e-15)
(69.1034 -7.80525 0)
(69.9228 -7.4037 0)
(70.728 -7.03751 0)
(71.5153 -6.70015 1.74887e-17)
(72.2829 -6.38865 1.73131e-17)
(73.0275 -6.10002 1.71456e-17)
(73.7507 -5.83125 1.69842e-17)
(74.452 -5.5795 -1.07722e-15)
(75.1316 -5.34303 1.66051e-17)
(75.7894 -5.12064 1.07488e-15)
(76.4258 -4.91069 1.64005e-17)
(77.0411 -4.71213 1.62707e-17)
(77.6357 -4.524 1.61467e-17)
(78.2101 -4.34559 0)
(78.7648 -4.17621 1.03446e-15)
(79.3003 -4.01523 -9.9579e-16)
(79.8171 -3.86212 1.57017e-17)
(80.3158 -3.7164 -4.5921e-22)
(80.7968 -3.57762 -9.76934e-16)
(81.2608 -3.44536 9.86639e-16)
(81.7084 -3.31924 1.53285e-17)
(82.14 -3.1989 1.52453e-17)
(82.5563 -3.08399 -9.55422e-16)
(82.9574 -2.97416 1.51312e-17)
(83.3439 -2.86915 1.92239e-15)
(83.7164 -2.76883 -9.56892e-16)
(84.0756 -2.67306 -9.3784e-16)
(84.4223 -2.58167 4.35821e-20)
(84.7573 -2.49447 9.5983e-16)
(85.081 -2.41127 0)
(85.3941 -2.33189 -1.46556e-17)
(85.6971 -2.25612 1.46031e-17)
(85.9905 -2.18377 9.31355e-16)
(86.2748 -2.11471 -9.13772e-16)
(86.5504 -2.04877 0)
(86.8176 -1.98579 -1.30334e-22)
(87.0768 -1.92562 0)
(87.3284 -1.86809 1.43247e-17)
(87.5725 -1.81306 0)
(87.8095 -1.76041 -8.97349e-16)
(88.0396 -1.71001 9.09195e-16)
(88.2631 -1.66172 1.4169e-17)
(88.4803 -1.61546 4.6639e-16)
(88.6915 -1.5711 -4.37069e-16)
(88.8967 -1.52854 1.40655e-17)
(89.0962 -1.48768 -1.40336e-17)
(89.2904 -1.44844 1.40027e-17)
(89.4793 -1.41074 0)
(89.6632 -1.37452 1.39445e-17)
(89.8425 -1.33973 0)
(90.0172 -1.3063 -1.38905e-17)
(90.1876 -1.27417 4.57534e-16)
(90.3539 -1.24329 -8.85765e-16)
(90.5164 -1.21362 4.55937e-16)
(90.6751 -1.18511 1.37929e-17)
(90.8304 -1.15771 4.40645e-16)
(90.9822 -1.13139 -4.39954e-16)
(91.1309 -1.10609 -4.11809e-16)
(91.2766 -1.08177 4.38609e-16)
(91.4193 -1.0584 -4.24269e-16)
(91.5593 -1.03593 4.51001e-16)
(91.6967 -1.01433 1.36474e-17)
(91.8315 -0.993546 -4.22486e-16)
(91.964 -0.973556 8.84676e-16)
(92.0941 -0.954316 -4.34966e-16)
(92.2221 -0.935797 0)
(92.3479 -0.917963 1.35581e-17)
(92.4718 -0.90079 0)
(92.5938 -0.884258 1.35252e-17)
(92.7139 -0.868334 1.35093e-17)
(92.8324 -0.852995 1.34938e-17)
(92.9492 -0.83822 1.34786e-17)
(93.0644 -0.823984 -2.01954e-16)
(93.1782 -0.810268 2.15185e-16)
(93.2906 -0.797053 -2.01518e-16)
(93.4017 -0.784322 1.34227e-17)
(93.5115 -0.772045 1.34088e-17)
(93.6202 -0.760209 2.28873e-21)
(93.7278 -0.748779 2.27445e-16)
(93.8343 -0.737744 -9.35572e-17)
(93.9399 -0.72705 1.20171e-16)
(94.0445 -0.71668 0)
(94.1483 -0.706548 1.33262e-17)
(94.2513 -0.696619 1.33127e-17)
(94.3534 -0.686739 1.33007e-17)
(94.4548 -0.676813 0)
(94.5553 -0.666567 1.32757e-17)
(94.6552 -0.655761 0)
(94.754 -0.643814 1.32518e-17)
(94.8518 -0.630293 -2.64763e-17)
(94.949 -0.613232 2.64642e-17)
(95.0674 -0.593058 2.81277e-17)
(86.496 -13.1684 0)
(86.0563 -12.3415 1.70597e-17)
(85.6422 -11.746 -2.21461e-15)
(85.6558 -11.1502 4.37165e-15)
(85.8932 -10.5477 1.89772e-17)
(86.1989 -9.97075 -2.24116e-15)
(86.5397 -9.43299 2.20545e-15)
(86.9127 -8.93584 -2.19906e-15)
(87.3087 -8.47723 2.19302e-15)
(87.7143 -8.05432 7.20045e-19)
(88.1211 -7.66429 5.98034e-19)
(88.5223 -7.30247 -4.33015e-15)
(88.9133 -6.96648 -4.11669e-19)
(89.2928 -6.65317 4.26928e-15)
(89.6595 -6.35974 -2.13094e-15)
(90.0121 -6.08507 -1.65544e-17)
(90.3502 -5.8269 -1.82275e-21)
(90.6737 -5.58413 -1.63559e-17)
(90.9837 -5.35547 -1.42923e-21)
(91.2802 -5.13952 -1.26896e-21)
(91.5641 -4.93526 -1.12817e-21)
(91.8357 -4.74181 0)
(92.0955 -4.55837 -8.96524e-22)
(92.3442 -4.38421 -1.57832e-17)
(92.5822 -4.21868 -1.03576e-15)
(92.8102 -4.06124 9.83209e-16)
(93.0287 -3.91135 -9.93346e-16)
(93.2382 -3.76853 9.88095e-16)
(93.4391 -3.63235 9.52195e-16)
(93.632 -3.50236 -1.97118e-15)
(93.8174 -3.37833 9.73134e-16)
(93.9959 -3.26001 -1.51335e-17)
(94.1682 -3.14703 -1.50647e-17)
(94.3348 -3.03899 9.44961e-16)
(94.496 -2.93548 -9.55956e-16)
(94.6519 -2.83639 0)
(94.8028 -2.74158 9.48109e-16)
(94.9488 -2.65086 -9.44393e-16)
(95.0901 -2.56403 1.46984e-17)
(95.2268 -2.48095 -1.46428e-17)
(95.359 -2.40145 1.45881e-17)
(95.4867 -2.32537 -1.45351e-17)
(95.6102 -2.25255 1.44832e-17)
(95.7296 -2.18286 -1.44329e-17)
(95.845 -2.11613 1.43838e-17)
(95.9564 -2.05225 -9.3184e-16)
(96.0642 -1.99106 9.28878e-16)
(96.1683 -1.93253 -1.42455e-17)
(96.269 -1.87646 1.4203e-17)
(96.3663 -1.82258 9.06334e-16)
(96.4602 -1.77091 -9.17924e-16)
(96.5509 -1.7214 1.40831e-17)
(96.6386 -1.67401 -1.40464e-17)
(96.7236 -1.62862 1.4011e-17)
(96.806 -1.58518 -1.39771e-17)
(96.886 -1.54358 -8.78473e-16)
(96.9638 -1.50375 -1.38872e-17)
(97.0396 -1.4656 1.39064e-17)
(97.1135 -1.42907 4.43299e-16)
(97.1856 -1.39406 1.12717e-20)
(97.2561 -1.36051 4.41483e-16)
(97.3251 -1.32836 -6.7449e-23)
(97.3927 -1.29752 0)
(97.4589 -1.26794 -2.74347e-17)
(97.5239 -1.23955 0)
(97.5877 -1.2123 4.37376e-16)
(97.6504 -1.18613 -4.36627e-16)
(97.712 -1.16098 -2.72426e-17)
(97.7727 -1.13683 0)
(97.8324 -1.11361 -4.20875e-16)
(97.8912 -1.09128 -1.35479e-17)
(97.9492 -1.0698 4.19565e-16)
(98.0063 -1.04913 -1.35139e-17)
(98.0628 -1.02924 -4.18303e-16)
(98.1185 -1.01008 4.17708e-16)
(98.1737 -0.991627 4.44013e-16)
(98.2282 -0.973858 -4.43401e-16)
(98.2824 -0.956748 -4.15951e-16)
(98.336 -0.940274 4.288e-16)
(98.3893 -0.924418 0)
(98.4422 -0.909153 2.27203e-16)
(98.4949 -0.894463 -2.0022e-16)
(98.5473 -0.88033 -1.99967e-16)
(98.5996 -0.866739 4.39383e-16)
(98.6517 -0.853654 -2.12777e-16)
(98.7038 -0.841064 1.32822e-17)
(98.7558 -0.828929 2.2553e-16)
(98.8079 -0.817237 -1.98759e-16)
(98.8599 -0.805931 -2.11763e-16)
(98.9121 -0.794995 1.98292e-16)
(98.9643 -0.784333 0)
(99.0168 -0.773913 0)
(99.0693 -0.763572 0)
(99.1221 -0.753216 -1.31587e-17)
(99.1751 -0.742553 1.31451e-17)
(99.2284 -0.731348 1.31292e-17)
(99.282 -0.718971 0)
(99.336 -0.704939 -1.31005e-17)
(99.3908 -0.687157 3.83541e-23)
(99.459 -0.665896 2.76861e-17)
(103.743 -12.8841 -1.56438e-17)
(102.967 -12.3762 -1.58726e-17)
(102.138 -11.9527 0)
(101.724 -11.4402 1.02967e-20)
(101.582 -10.897 2.05076e-15)
(101.559 -10.3673 3.38814e-17)
(101.606 -9.86015 -2.0778e-15)
(101.714 -9.37685 0)
(101.873 -8.91943 -2.09988e-15)
(102.068 -8.48917 2.08303e-15)
(102.287 -8.08582 1.62687e-17)
(102.52 -7.70753 -1.62613e-17)
(102.759 -7.3526 2.06271e-15)
(103.001 -7.01971 1.65871e-17)
(103.238 -6.70702 -1.58902e-17)
(103.468 -6.41255 1.64103e-17)
(103.689 -6.13484 -1.59364e-17)
(103.898 -5.87244 -4.12153e-15)
(104.095 -5.62431 2.05588e-15)
(104.278 -5.38963 2.03508e-15)
(104.448 -5.16726 5.6372e-20)
(104.602 -4.95659 -2.04037e-15)
(104.742 -4.75683 -1.58974e-17)
(104.868 -4.56725 1.58513e-17)
(104.979 -4.38724 1.5806e-17)
(105.077 -4.21629 -2.03277e-15)
(105.161 -4.05388 3.0005e-15)
(105.232 -3.89954 -2.6443e-20)
(105.291 -3.75288 -9.67769e-16)
(105.339 -3.61348 0)
(105.377 -3.48085 9.61261e-16)
(105.405 -3.35456 -1.97757e-15)
(105.424 -3.23453 1.98557e-15)
(105.436 -3.12068 -1.97796e-15)
(105.441 -3.01263 9.62249e-16)
(105.44 -2.90998 1.52131e-17)
(105.433 -2.8124 -1.51533e-17)
(105.421 -2.71954 0)
(105.406 -2.63114 -9.7711e-16)
(105.386 -2.54691 9.58292e-16)
(105.364 -2.46661 -2.5636e-22)
(105.339 -2.38999 0)
(105.312 -2.31683 -9.47017e-16)
(105.283 -2.24693 9.58154e-16)
(105.253 -2.18007 -1.46848e-17)
(105.221 -2.11606 9.50925e-16)
(105.189 -2.05471 -1.46126e-17)
(105.157 -1.99587 -9.29543e-16)
(105.124 -1.9395 -1.30787e-22)
(105.091 -1.88546 9.23121e-16)
(105.058 -1.83356 -9.05749e-16)
(105.025 -1.78365 9.02835e-16)
(104.993 -1.73559 -9.14358e-16)
(104.962 -1.68934 9.11557e-16)
(104.931 -1.64483 -9.08887e-16)
(104.9 -1.60202 -9.20381e-16)
(104.871 -1.56083 9.03676e-16)
(104.841 -1.52126 -1.40803e-17)
(104.813 -1.48324 1.40422e-17)
(104.785 -1.44667 -1.40049e-17)
(104.758 -1.41156 0)
(104.731 -1.37785 -7.36866e-23)
(104.705 -1.34551 8.89435e-16)
(104.68 -1.31447 -1.33089e-15)
(104.655 -1.2847 8.85129e-16)
(104.631 -1.25615 -1.38065e-17)
(104.607 -1.22877 -8.67251e-16)
(104.585 -1.20251 4.53255e-16)
(104.563 -1.17729 4.38551e-16)
(104.541 -1.1531 -4.51297e-16)
(104.52 -1.12988 0)
(104.5 -1.10763 -4.35822e-16)
(104.481 -1.08631 4.34973e-16)
(104.462 -1.06589 -4.70532e-23)
(104.445 -1.04633 0)
(104.428 -1.02756 -1.35155e-17)
(104.412 -1.00962 0)
(104.397 -0.992419 -1.34665e-17)
(104.383 -0.975955 1.34429e-17)
(104.37 -0.960173 0)
(104.358 -0.945031 -1.3397e-17)
(104.347 -0.930505 -2.81124e-23)
(104.337 -0.916568 -2.26989e-16)
(104.328 -0.903201 1.86626e-16)
(104.32 -0.890365 -1.33089e-17)
(104.313 -0.878049 -1.32872e-17)
(104.307 -0.866202 -2.65327e-17)
(104.302 -0.854814 -1.3245e-17)
(104.298 -0.843823 -2.24819e-16)
(104.296 -0.833214 2.09013e-21)
(104.294 -0.82289 2.10944e-16)
(104.294 -0.812827 -1.05303e-16)
(104.295 -0.802861 9.20091e-17)
(104.297 -0.79292 1.31232e-17)
(104.3 -0.782718 -2.62103e-17)
(104.305 -0.772045 -1.30841e-17)
(104.311 -0.760296 -1.30673e-17)
(104.319 -0.746975 3.91379e-17)
(104.33 -0.729999 -3.90982e-17)
(104.346 -0.709253 -2.73742e-17)
(116.106 -12.2475 1.9338e-15)
(115.051 -12.0324 -1.97064e-15)
(113.888 -11.7898 1.53972e-17)
(113.079 -11.3903 1.55207e-17)
(112.563 -10.935 -2.01528e-15)
(112.214 -10.4819 1.99303e-15)
(111.973 -10.0398 2.01907e-15)
(111.822 -9.60853 -1.46823e-17)
(111.748 -9.1906 1.68432e-17)
(111.737 -8.78885 -1.50866e-17)
(111.774 -8.40479 -1.52481e-17)
(111.85 -8.03838 -2.0583e-15)
(111.956 -7.68922 0)
(112.083 -7.35662 -3.19683e-17)
(112.227 -7.03984 -2.04671e-15)
(112.383 -6.73814 -3.22589e-17)
(112.548 -6.45079 -2.27584e-19)
(112.717 -6.17714 2.04533e-15)
(112.889 -5.91638 -3.19392e-17)
(113.06 -5.66788 0)
(113.23 -5.431 -3.18845e-17)
(113.396 -5.20508 0)
(113.556 -4.98962 -2.05193e-15)
(113.711 -4.78409 -1.5899e-17)
(113.857 -4.58801 2.01472e-15)
(113.995 -4.40101 1.58414e-17)
(114.124 -4.22265 -2.04034e-15)
(114.243 -4.05245 4.04265e-15)
(114.352 -3.89012 -3.15787e-17)
(114.449 -3.73547 -2.01431e-15)
(114.534 -3.58821 2.02628e-15)
(114.607 -3.44807 -2.0225e-15)
(114.668 -3.31469 0)
(114.715 -3.1877 7.69926e-22)
(114.75 -3.06678 0)
(114.771 -2.95165 -3.10875e-17)
(114.78 -2.84206 -9.76951e-16)
(114.775 -2.73777 9.7461e-16)
(114.759 -2.63858 0)
(114.73 -2.54426 1.00036e-15)
(114.69 -2.45459 -1.98005e-15)
(114.639 -2.36939 9.94957e-16)
(114.578 -2.28845 -3.05267e-17)
(114.507 -2.21159 -1.52191e-17)
(114.427 -2.13861 -1.51736e-17)
(114.339 -2.06934 -1.51279e-17)
(114.243 -2.00359 0)
(114.142 -1.94124 0)
(114.034 -1.88204 9.29144e-16)
(113.922 -1.82579 -1.912e-15)
(113.806 -1.7724 9.23041e-16)
(113.686 -1.72181 0)
(113.565 -1.6739 9.46236e-16)
(113.442 -1.62847 -9.57713e-16)
(113.317 -1.58534 0)
(113.192 -1.54437 -1.46319e-17)
(113.068 -1.50542 0)
(112.943 -1.46832 -9.30018e-16)
(112.82 -1.43297 1.83929e-15)
(112.698 -1.39925 -9.38222e-16)
(112.577 -1.36704 0)
(112.458 -1.33622 8.89006e-16)
(112.341 -1.30671 -9.14743e-16)
(112.227 -1.27842 8.12819e-23)
(112.114 -1.25127 0)
(112.003 -1.22518 1.41583e-17)
(111.895 -1.20009 -9.31604e-16)
(111.789 -1.17597 9.00679e-16)
(111.686 -1.15277 -1.4032e-17)
(111.585 -1.13043 0)
(111.487 -1.10889 -1.39528e-17)
(111.391 -1.08812 4.59174e-16)
(111.297 -1.06807 -4.57954e-16)
(111.206 -1.04875 -4.56725e-16)
(111.118 -1.03013 8.83486e-16)
(111.031 -1.01219 -8.81188e-16)
(110.947 -0.994922 8.78964e-16)
(110.865 -0.978326 -4.38372e-16)
(110.785 -0.962382 -4.05308e-23)
(110.707 -0.947094 0)
(110.632 -0.932432 -4.35173e-16)
(110.558 -0.918386 8.54681e-16)
(110.487 -0.904971 -8.66228e-16)
(110.418 -0.892138 4.45604e-16)
(110.35 -0.879856 -2.02087e-16)
(110.285 -0.868133 2.15064e-16)
(110.222 -0.856929 1.34118e-17)