/*--------------------------------*- C++ -*----------------------------------*\
  =========                 |
  \\      /  F ield         | OpenFOAM: The Open Source CFD Toolbox
   \\    /   O peration     | Website:  https://openfoam.org
    \\  /    A nd           | Version:  8
     \\/     M anipulation  |
\*---------------------------------------------------------------------------*/
FoamFile
{
    version     2.0;
    format      ascii;
    class       volScalarField;
    location    "0.999962";
    object      alphat;
}
// * * * * * * * * * * * * * * * * * * * * * * * * * * * * * * * * * * * * * //

dimensions      [1 -1 -1 0 0 0 0];

internalField   nonuniform List<scalar> 
6800
(
0.00625685
0.0166561
0.0193545
0.0219926
0.024527
0.0258219
0.0225281
0.0204998
0.0126039
0.00934131
0.00539793
0.0165854
0.0204871
0.0229651
0.0271728
0.024426
0.0181499
0.0116049
0.00866355
0.00757274
0.00675944
0.0186773
0.0213411
0.0255036
0.0270591
0.0185361
0.01143
0.00893958
0.00791391
0.00728621
0.00748802
0.0201828
0.0230066
0.0276819
0.0221567
0.0136596
0.0107695
0.00920574
0.00756254
0.00654428
0.00813135
0.0211545
0.0242822
0.0278854
0.0165457
0.0115784
0.00861864
0.00684159
0.00595004
0.00562976
0.00865653
0.022294
0.026745
0.0242994
0.0146309
0.0097378
0.00772326
0.00693998
0.0063573
0.00587754
0.00912964
0.0248889
0.0296852
0.0185817
0.0101732
0.0079877
0.00740935
0.00650622
0.00560552
0.00512303
0.00961481
0.0275808
0.0289125
0.0144117
0.0115361
0.00906076
0.00717847
0.00605969
0.0053987
0.00512032
0.0100333
0.0315175
0.0267862
0.014508
0.00850084
0.00717019
0.00664802
0.0058286
0.00524843
0.00496428
0.0105424
0.0348284
0.0245979
0.0112495
0.00990285
0.00828477
0.00663779
0.00552485
0.00505234
0.0048132
0.0346073
0.147758
0.204517
0.220409
0.224552
0.225086
0.227156
0.230467
0.234195
0.235808
0.0332217
0.14245
0.197772
0.213919
0.216601
0.215175
0.215062
0.216296
0.217992
0.219257
0.030706
0.131044
0.18387
0.201387
0.202327
0.199501
0.197494
0.195705
0.193804
0.193624
0.0277184
0.118013
0.167518
0.184015
0.183306
0.179766
0.174022
0.169554
0.162948
0.152871
0.0245901
0.105076
0.150381
0.160584
0.156856
0.149913
0.14094
0.129608
0.118123
0.0894182
0.0218514
0.0937328
0.127719
0.12862
0.11962
0.110389
0.0954705
0.0680907
0.0537406
0.0378615
0.0195433
0.079522
0.0990367
0.0886879
0.077078
0.0544482
0.0377412
0.0311993
0.0292254
0.024996
0.0183787
0.0625345
0.0578768
0.046614
0.0315535
0.0276022
0.0256885
0.0240197
0.0236775
0.0217418
0.015904
0.0335181
0.0261762
0.0244898
0.0238769
0.0238703
0.0236402
0.022619
0.0220107
0.0203062
0.0116131
0.0182864
0.0197782
0.0216908
0.023343
0.023867
0.024087
0.021433
0.0224081
0.0146887
0.236864
0.237402
0.235892
0.233966
0.232139
0.230555
0.229189
0.228043
0.227106
0.226325
0.225657
0.225042
0.224456
0.223888
0.223326
0.222785
0.22231
0.221858
0.221435
0.221022
0.220604
0.220198
0.219803
0.219439
0.219116
0.218849
0.218639
0.218483
0.218376
0.218307
0.218267
0.218251
0.218254
0.218266
0.218283
0.218301
0.218314
0.218322
0.218323
0.218315
0.218301
0.218283
0.21826
0.218235
0.218205
0.218172
0.218135
0.218095
0.218054
0.218012
0.21797
0.217929
0.217887
0.217843
0.217794
0.217736
0.217667
0.217583
0.217483
0.217366
0.217231
0.217081
0.216918
0.216745
0.216565
0.216382
0.216199
0.21602
0.215846
0.21568
0.215522
0.215374
0.215234
0.215103
0.214978
0.214858
0.214741
0.214626
0.214513
0.2144
0.214287
0.214172
0.214055
0.213937
0.213817
0.213698
0.213575
0.213459
0.213337
0.213232
0.213111
0.213027
0.212907
0.212857
0.212733
0.212725
0.212597
0.212649
0.212392
0.212807
0.220452
0.220931
0.22005
0.218667
0.217322
0.216212
0.215336
0.214681
0.214193
0.213821
0.213532
0.213246
0.212968
0.212699
0.212419
0.212148
0.211906
0.211688
0.211493
0.211306
0.211111
0.210932
0.210768
0.210636
0.210541
0.210493
0.210491
0.21053
0.210607
0.210708
0.210834
0.21098
0.211141
0.211305
0.211469
0.211624
0.211771
0.211904
0.212027
0.212137
0.212244
0.212346
0.212441
0.212528
0.212608
0.212681
0.212748
0.212809
0.212866
0.21292
0.212973
0.213022
0.213067
0.213105
0.213134
0.213148
0.213145
0.213122
0.21308
0.213016
0.212932
0.21283
0.212714
0.212588
0.212455
0.21232
0.212186
0.212055
0.211931
0.211816
0.211709
0.211612
0.211523
0.211442
0.211367
0.211295
0.211226
0.211159
0.211092
0.211025
0.210955
0.210884
0.21081
0.210734
0.210654
0.210576
0.210493
0.210418
0.210335
0.210271
0.210188
0.210145
0.21006
0.210051
0.209962
0.209995
0.209898
0.209997
0.209752
0.210238
0.196625
0.195771
0.194445
0.192958
0.191653
0.19083
0.190391
0.190262
0.19033
0.190528
0.190795
0.191108
0.19143
0.191802
0.192228
0.192688
0.193133
0.193587
0.19403
0.194409
0.194729
0.195046
0.195349
0.195666
0.196018
0.196413
0.196846
0.197307
0.197786
0.198267
0.198768
0.199278
0.199782
0.200261
0.200716
0.201137
0.201531
0.2019
0.202244
0.202571
0.202868
0.203148
0.203412
0.203661
0.203894
0.204112
0.204319
0.204516
0.204707
0.204893
0.205076
0.205255
0.205428
0.205591
0.205735
0.205855
0.20595
0.20602
0.206065
0.20608
0.206071
0.206042
0.205996
0.205938
0.205871
0.205802
0.205732
0.205667
0.20561
0.205563
0.205526
0.205501
0.205485
0.205476
0.205473
0.205473
0.205474
0.205476
0.205477
0.205476
0.205471
0.205463
0.20545
0.205435
0.205415
0.205396
0.205373
0.205359
0.205334
0.20533
0.205305
0.205323
0.205294
0.205348
0.205311
0.205407
0.205356
0.205528
0.205301
0.20591
0.154189
0.155082
0.15651
0.15753
0.158531
0.159965
0.16143
0.16302
0.164483
0.166025
0.167455
0.168731
0.169879
0.170931
0.171944
0.173005
0.173948
0.174803
0.175538
0.17622
0.176782
0.177358
0.177963
0.178606
0.179294
0.180024
0.180787
0.181571
0.182355
0.183151
0.183886
0.184567
0.185215
0.18582
0.186395
0.186936
0.187443
0.187923
0.188385
0.188843
0.189289
0.189725
0.190147
0.190554
0.190946
0.191325
0.191693
0.192053
0.19241
0.192764
0.193117
0.193464
0.193803
0.194125
0.194433
0.19472
0.194984
0.195219
0.195427
0.195616
0.195782
0.195926
0.196046
0.19615
0.196238
0.19632
0.196398
0.19648
0.196572
0.196674
0.196785
0.196903
0.197026
0.197154
0.197281
0.197408
0.197533
0.197653
0.197769
0.197879
0.197982
0.19808
0.19817
0.198257
0.198336
0.198417
0.198486
0.198565
0.198629
0.198717
0.198776
0.198883
0.198935
0.199076
0.199114
0.199297
0.199313
0.199581
0.199372
0.200138
0.089484
0.091136
0.0931835
0.0963427
0.0996233
0.103868
0.107668
0.111624
0.114814
0.118453
0.121549
0.124266
0.126663
0.128912
0.131072
0.133537
0.135816
0.13824
0.140134
0.141851
0.143113
0.144357
0.145461
0.146594
0.147855
0.149226
0.150668
0.152142
0.153616
0.155071
0.156497
0.157908
0.159265
0.160513
0.161698
0.162844
0.163954
0.165041
0.166082
0.167076
0.168065
0.169061
0.170014
0.170927
0.171795
0.172626
0.173426
0.174204
0.174972
0.175732
0.176484
0.17722
0.177933
0.178615
0.17926
0.179864
0.180423
0.180938
0.181416
0.181855
0.182253
0.182613
0.182935
0.183226
0.183492
0.18374
0.183982
0.184218
0.18445
0.184686
0.184927
0.185176
0.185431
0.185689
0.185948
0.186205
0.186459
0.186708
0.18695
0.187185
0.187412
0.187633
0.187845
0.188054
0.188253
0.188456
0.188646
0.188849
0.189033
0.189246
0.189424
0.189658
0.189826
0.190097
0.190253
0.190567
0.190691
0.1911
0.190954
0.191926
0.0393959
0.0414274
0.0431125
0.0453997
0.0485357
0.051456
0.0552209
0.0587619
0.0625299
0.0661757
0.0697038
0.0729907
0.0760379
0.0792028
0.0822806
0.086423
0.0894121
0.094086
0.0967648
0.0991962
0.0998877
0.102249
0.102843
0.103716
0.105258
0.107162
0.109259
0.111443
0.113638
0.115849
0.117958
0.12013
0.122149
0.123832
0.125559
0.127281
0.129046
0.130961
0.132725
0.134388
0.13598
0.137788
0.139384
0.140917
0.142371
0.143772
0.145135
0.146467
0.147797
0.149116
0.150416
0.151684
0.152905
0.154082
0.155199
0.156269
0.157273
0.158213
0.159131
0.160006
0.160817
0.16156
0.16224
0.162868
0.163453
0.16401
0.16455
0.165086
0.165625
0.166171
0.166724
0.167283
0.167843
0.168401
0.168953
0.169498
0.170031
0.170553
0.17106
0.171556
0.172036
0.172506
0.17296
0.17341
0.173842
0.174278
0.174692
0.175121
0.175521
0.175954
0.17634
0.176782
0.177144
0.177612
0.177946
0.17845
0.17873
0.179338
0.179303
0.180514
0.0252016
0.0265568
0.0268039
0.0274361
0.0287282
0.0295654
0.0322816
0.0331905
0.0356024
0.0367627
0.0386827
0.0401681
0.0410933
0.0425119
0.0438061
0.0451433
0.046474
0.048929
0.0508418
0.0517126
0.0553063
0.0561071
0.0558389
0.056013
0.0577432
0.0597994
0.0620859
0.0644966
0.0669563
0.0694554
0.0719465
0.0744481
0.0769451
0.0793858
0.0817951
0.0841615
0.0865209
0.0888498
0.0911576
0.093294
0.0954116
0.0973909
0.0993828
0.10153
0.103445
0.105374
0.107292
0.109215
0.111189
0.113162
0.115105
0.117
0.11883
0.120612
0.122311
0.123967
0.125537
0.127011
0.128536
0.130019
0.13131
0.132476
0.133571
0.134603
0.135585
0.136535
0.137474
0.138404
0.139339
0.140283
0.141234
0.142187
0.143135
0.144074
0.144998
0.145907
0.146795
0.147667
0.148515
0.149348
0.150155
0.150951
0.15172
0.152485
0.153219
0.153962
0.154668
0.155397
0.156077
0.156798
0.157462
0.158185
0.158818
0.159552
0.160128
0.160895
0.161386
0.162251
0.162373
0.163869
0.0222323
0.0229571
0.0236603
0.0244731
0.0252147
0.025956
0.0264767
0.0269088
0.0271054
0.0271692
0.0269091
0.0264971
0.0258628
0.0252205
0.0245661
0.0240495
0.0239012
0.0235905
0.0235836
0.0237333
0.02396
0.0238993
0.0239029
0.0243497
0.0247037
0.0249098
0.0255635
0.0264449
0.0274071
0.0285133
0.0296742
0.0309282
0.0322886
0.0337112
0.0352715
0.0368584
0.0385822
0.0403195
0.0421735
0.0441769
0.0463252
0.0486072
0.0509127
0.0532917
0.0556986
0.0581509
0.0606465
0.0631868
0.0657828
0.0684029
0.071009
0.0735743
0.0760582
0.0784777
0.0808021
0.0830544
0.0852187
0.0872899
0.0892864
0.0911922
0.0929821
0.094685
0.0963063
0.0978601
0.099362
0.100815
0.102278
0.103659
0.10508
0.106514
0.107953
0.109384
0.110796
0.112192
0.113563
0.114916
0.116237
0.11754
0.118806
0.120055
0.121262
0.122457
0.123608
0.12476
0.125859
0.126981
0.128034
0.129138
0.130163
0.131195
0.13214
0.133148
0.134153
0.135093
0.135988
0.137074
0.137834
0.139015
0.139316
0.141216
0.0204736
0.0207157
0.0210016
0.0212612
0.0214391
0.021426
0.0212265
0.0208406
0.020294
0.0195906
0.0187633
0.0178806
0.0169709
0.016022
0.0151117
0.0142255
0.0134904
0.0128831
0.0124519
0.0120921
0.0118535
0.0116551
0.0115565
0.0114723
0.011462
0.011443
0.0114809
0.0115464
0.0116058
0.0118119
0.0117994
0.0119994
0.0122024
0.0125055
0.0128707
0.0132221
0.0136184
0.0140695
0.0145651
0.0151374
0.0157693
0.0164961
0.0172915
0.0181903
0.0191727
0.0202806
0.0214834
0.0227945
0.0242108
0.0257474
0.0273737
0.0290957
0.0308635
0.0326953
0.0345454
0.0364436
0.0383444
0.040296
0.0423194
0.0444118
0.0465516
0.0487045
0.0508478
0.0529901
0.0551142
0.0572283
0.0593243
0.0614045
0.0634556
0.0654947
0.0674996
0.069484
0.0714249
0.073338
0.0752027
0.0770399
0.0788256
0.0805758
0.0822419
0.0838885
0.0854535
0.0870268
0.0885301
0.0900638
0.0915155
0.0930262
0.0944334
0.0959369
0.0973023
0.0988092
0.10012
0.101643
0.102875
0.104412
0.105701
0.107249
0.108314
0.110095
0.110924
0.112988
0.0142767
0.0138742
0.0134392
0.0130381
0.0126743
0.0123254
0.0120416
0.0117218
0.0113175
0.0108398
0.0103402
0.0098426
0.00936315
0.00891093
0.00849927
0.00813499
0.00782579
0.00757063
0.0073736
0.00722129
0.0071156
0.00704318
0.00700183
0.00697797
0.00696767
0.00696533
0.0069663
0.00696846
0.00698176
0.00699463
0.0069929
0.00697187
0.00696292
0.00695611
0.00695607
0.00698607
0.00698346
0.00704217
0.00705501
0.00711559
0.0071612
0.00720797
0.00728466
0.00735238
0.0074458
0.00759503
0.00780634
0.00799892
0.0082171
0.00851161
0.0088437
0.00925135
0.00967998
0.0101753
0.0106742
0.011238
0.0118009
0.0124407
0.0130877
0.0138331
0.0145945
0.0154698
0.0163633
0.0173759
0.0184073
0.0195605
0.0207304
0.0220233
0.023325
0.0247481
0.0261685
0.0277077
0.0292275
0.0308628
0.0324611
0.0341714
0.0358305
0.0376155
0.0393672
0.0412443
0.0430589
0.0449947
0.0468186
0.048779
0.0505949
0.0525701
0.0543615
0.0563455
0.0580941
0.0600838
0.06177
0.0637671
0.0653641
0.0673719
0.0688587
0.070899
0.0722294
0.0743295
0.0752476
0.0781676
0.00760707
0.00755195
0.00755335
0.00754194
0.00761161
0.00745223
0.00753946
0.00741338
0.00774973
0.00712629
0.00674415
0.00647218
0.00626312
0.00609607
0.00596199
0.00585653
0.00577768
0.00572259
0.00568849
0.00567234
0.00567086
0.00567996
0.00569477
0.00571228
0.00572825
0.00574201
0.00575082
0.00575549
0.00575477
0.00575026
0.00574228
0.00573047
0.00571688
0.00570132
0.00568396
0.00566847
0.00565
0.0056353
0.00561961
0.00560517
0.00559443
0.00558134
0.00557583
0.00556546
0.00556294
0.0055606
0.00556175
0.00557176
0.0055649
0.00559884
0.00558123
0.00561825
0.00564175
0.0056826
0.00570323
0.0057479
0.00577475
0.00583289
0.00587116
0.00595179
0.00600804
0.0061165
0.00619398
0.00634226
0.00645173
0.00665399
0.00679781
0.00704921
0.00723628
0.00755488
0.00780031
0.00819649
0.0085053
0.00898776
0.00936947
0.00994964
0.010413
0.0111032
0.0116572
0.0124748
0.0131287
0.0140899
0.0148508
0.0159656
0.0168353
0.0181086
0.0190803
0.0205144
0.0215706
0.0231665
0.0242805
0.0260415
0.0271768
0.0290968
0.030242
0.0322906
0.0333884
0.0356186
0.0362579
0.0399838
0.00640967
0.00631074
0.00615844
0.00603834
0.00595565
0.00588689
0.0058168
0.00574708
0.00564132
0.00555587
0.00547907
0.00540565
0.00533656
0.005274
0.00522068
0.00517831
0.00514805
0.00512979
0.00512246
0.00512387
0.00513416
0.00515027
0.00516912
0.00518834
0.00520589
0.00522091
0.00523205
0.00523971
0.00524275
0.00524252
0.00523807
0.00523148
0.00522157
0.00521047
0.00519713
0.0051835
0.0051684
0.0051539
0.00513835
0.00512417
0.00510898
0.00509603
0.0050815
0.00506998
0.00505716
0.00504734
0.00503587
0.00502644
0.00501674
0.00501202
0.00500304
0.00500033
0.00499431
0.00499666
0.00499347
0.00499765
0.00499518
0.00499797
0.00499786
0.00499624
0.00500017
0.00499508
0.00500478
0.00499985
0.00501152
0.00502524
0.00502867
0.00504779
0.00506385
0.00509976
0.00511987
0.00515744
0.00517195
0.00519964
0.00521715
0.00526014
0.00528613
0.0053468
0.00538355
0.00546612
0.00551694
0.00562776
0.00569452
0.00584473
0.00593885
0.00614183
0.00625637
0.00653798
0.00668298
0.00705414
0.00723982
0.00771498
0.00794639
0.00854798
0.00885355
0.00955511
0.00989303
0.0107532
0.011135
0.0125548
0.00569727
0.00565277
0.00560683
0.00555619
0.00549854
0.00543414
0.00536729
0.00530416
0.00524812
0.00519523
0.00514479
0.00510213
0.00507203
0.00505506
0.00505186
0.00505944
0.00507588
0.00509716
0.00512151
0.00514375
0.00515747
0.00516147
0.00515795
0.00514821
0.00513445
0.00511759
0.00509911
0.00507948
0.00505949
0.0050395
0.00501975
0.0050007
0.00498209
0.00496465
0.0049476
0.00493205
0.00491671
0.00490306
0.00488925
0.00487721
0.0048646
0.00485376
0.00484195
0.00483184
0.00482046
0.00481063
0.00479946
0.00478964
0.00477854
0.00476871
0.00475769
0.00474809
0.00473732
0.00472825
0.00471797
0.00470972
0.00470013
0.00469291
0.0046842
0.00467742
0.00466914
0.00466281
0.00465494
0.00464945
0.00464128
0.0046373
0.00463031
0.00462709
0.00462161
0.00461928
0.00461553
0.00461345
0.0046102
0.00460823
0.0046053
0.00460424
0.00460177
0.00460211
0.00460073
0.00460249
0.00460418
0.0046047
0.00461474
0.00460929
0.00463381
0.00464764
0.00464182
0.00466943
0.00467039
0.00470683
0.00470417
0.00475115
0.00476306
0.00482527
0.00484496
0.00491867
0.00495694
0.00503461
0.00507494
0.00524446
0.00524874
0.0052377
0.0052284
0.00521374
0.00519132
0.00516176
0.00512607
0.00507868
0.00502098
0.00495694
0.00489314
0.00483249
0.00477851
0.0047323
0.00469647
0.00467064
0.00465588
0.00465014
0.00465374
0.00466221
0.00467348
0.0046835
0.0046915
0.00469514
0.00469526
0.00469089
0.00468379
0.00467353
0.00466209
0.00464893
0.00463584
0.00462209
0.00460917
0.00459614
0.00458424
0.00457246
0.00456191
0.00455146
0.00454219
0.00453289
0.00452472
0.00451632
0.004509
0.00450121
0.00449442
0.00448699
0.00448042
0.0044731
0.0044665
0.00445912
0.0044524
0.00444497
0.00443819
0.00443091
0.00442425
0.00441741
0.00441112
0.00440497
0.00439928
0.00439396
0.00438903
0.00438464
0.00438057
0.00437697
0.00437383
0.00437095
0.00436843
0.00436596
0.00436375
0.00436157
0.00435943
0.00435741
0.00435514
0.00435311
0.00435068
0.0043485
0.00434602
0.00434349
0.00434144
0.00433845
0.00433674
0.00433419
0.00433205
0.00432798
0.00432605
0.00432666
0.0043239
0.00432513
0.00432229
0.0043227
0.00431855
0.00431942
0.00431654
0.00431719
0.00432125
0.00432123
0.00431385
0.00432762
0.00431923
0.00433114
0.00490019
0.00489136
0.00488002
0.00486573
0.00484989
0.00483248
0.0048151
0.00479842
0.00478346
0.00476854
0.00475304
0.00473637
0.00472072
0.00470591
0.00469286
0.00468053
0.00466952
0.00465731
0.00464235
0.0046238
0.00460415
0.00458326
0.00456343
0.00454381
0.00452624
0.00450921
0.00449436
0.00447983
0.00446725
0.00445461
0.00444366
0.00443235
0.00442257
0.00441221
0.00440329
0.00439362
0.00438535
0.0043762
0.00436842
0.00435965
0.00435228
0.00434381
0.00433681
0.00432866
0.00432208
0.00431428
0.00430819
0.00430083
0.0042953
0.00428842
0.00428347
0.00427709
0.0042727
0.00426677
0.00426287
0.00425732
0.00425381
0.00424855
0.00424532
0.00424027
0.00423726
0.00423233
0.00422951
0.00422466
0.004222
0.00421722
0.00421473
0.00421
0.00420769
0.00420304
0.00420091
0.00419634
0.00419441
0.00418991
0.00418821
0.00418376
0.00418231
0.00417788
0.0041767
0.00417229
0.00417133
0.00416704
0.00416623
0.00416207
0.00416137
0.00415746
0.00415687
0.00415315
0.0041526
0.00414914
0.00414846
0.0041455
0.00414438
0.00414179
0.00414137
0.00413918
0.00413751
0.0041377
0.00412596
0.00414229
0.00462627
0.00462499
0.00462123
0.00461482
0.00460612
0.00459439
0.00458044
0.00456365
0.00454527
0.00452511
0.00450496
0.00448484
0.00446632
0.00444921
0.00443486
0.00442223
0.00441175
0.00440177
0.00439279
0.00438324
0.00437395
0.00436356
0.00435336
0.00434214
0.00433146
0.00432005
0.00430962
0.00429871
0.00428904
0.00427898
0.00427027
0.00426111
0.00425333
0.00424497
0.00423791
0.00423017
0.00422372
0.00421644
0.00421043
0.00420348
0.00419783
0.00419114
0.00418581
0.00417938
0.0041744
0.00416824
0.00416365
0.0041578
0.00415365
0.00414815
0.00414447
0.00413932
0.00413608
0.00413124
0.00412838
0.00412379
0.00412123
0.00411681
0.00411446
0.00411015
0.00410792
0.00410367
0.00410152
0.00409729
0.00409521
0.00409097
0.00408897
0.00408474
0.00408284
0.00407861
0.00407683
0.00407263
0.00407098
0.00406682
0.00406531
0.00406121
0.00405984
0.00405579
0.00405457
0.00405054
0.00404951
0.00404545
0.00404466
0.00404058
0.00403999
0.00403596
0.0040355
0.00403158
0.00403123
0.00402731
0.00402724
0.00402311
0.00402328
0.00401896
0.00401972
0.00401563
0.00401569
0.00401345
0.0040121
0.00400881
0.00441914
0.00442057
0.00441967
0.00441632
0.00441142
0.00440455
0.00439668
0.00438733
0.00437756
0.00436683
0.00435613
0.00434469
0.00433345
0.0043215
0.00430978
0.00429736
0.00428542
0.00427303
0.0042615
0.00424978
0.00423918
0.00422848
0.00421898
0.00420928
0.00420073
0.00419184
0.00418401
0.00417571
0.00416843
0.00416058
0.00415376
0.00414631
0.00413989
0.00413281
0.0041268
0.00412009
0.00411448
0.00410814
0.00410291
0.00409691
0.00409206
0.00408638
0.00408187
0.00407648
0.0040723
0.00406716
0.00406328
0.00405835
0.00405473
0.00404998
0.00404659
0.00404199
0.00403881
0.00403434
0.00403133
0.00402699
0.00402414
0.00401992
0.00401721
0.00401312
0.00401053
0.00400658
0.00400411
0.00400029
0.00399793
0.00399424
0.00399201
0.00398843
0.00398634
0.00398285
0.0039809
0.0039775
0.0039757
0.00397237
0.00397073
0.00396744
0.00396595
0.0039627
0.00396136
0.00395814
0.00395692
0.00395377
0.00395256
0.00394962
0.00394825
0.00394568
0.00394401
0.00394182
0.00393996
0.00393789
0.00393614
0.00393395
0.00393255
0.00392967
0.00392947
0.00392577
0.00392486
0.00392227
0.00393217
0.00390973
0.00426585
0.00426833
0.00426918
0.00426792
0.00426549
0.00426126
0.00425612
0.00424937
0.00424201
0.00423336
0.00422457
0.00421488
0.00420548
0.00419549
0.00418607
0.00417622
0.00416712
0.00415765
0.00414902
0.00414
0.00413189
0.00412336
0.00411579
0.00410776
0.00410074
0.00409319
0.00408667
0.00407958
0.00407354
0.00406684
0.00406122
0.0040549
0.00404965
0.00404364
0.00403871
0.00403299
0.00402838
0.00402294
0.00401862
0.00401345
0.00400943
0.00400451
0.00400078
0.0039961
0.00399264
0.00398818
0.00398494
0.00398067
0.00397761
0.00397349
0.00397058
0.00396657
0.00396377
0.00395986
0.00395716
0.00395333
0.00395073
0.00394697
0.00394448
0.00394079
0.00393841
0.00393478
0.00393253
0.00392898
0.00392684
0.00392337
0.00392136
0.00391797
0.00391609
0.00391276
0.00391103
0.00390772
0.00390617
0.00390287
0.00390149
0.00389821
0.00389695
0.00389373
0.00389252
0.00388945
0.00388819
0.0038853
0.00388399
0.00388123
0.00387995
0.00387719
0.00387601
0.00387329
0.00387202
0.00386963
0.00386794
0.00386618
0.00386381
0.00386296
0.00385934
0.00385975
0.00385716
0.00385513
0.00385363
0.00385143
0.00415352
0.00415618
0.00415771
0.00415717
0.00415558
0.00415237
0.00414856
0.00414345
0.00413809
0.00413172
0.00412541
0.0041183
0.00411149
0.004104
0.00409698
0.00408935
0.00408232
0.00407472
0.00406783
0.00406037
0.00405371
0.00404648
0.00404013
0.00403318
0.00402715
0.00402051
0.00401485
0.0040085
0.00400319
0.00399716
0.00399221
0.00398648
0.00398187
0.00397642
0.00397213
0.00396695
0.00396297
0.00395804
0.00395434
0.00394963
0.00394619
0.00394168
0.00393847
0.00393412
0.00393112
0.00392692
0.00392412
0.00392003
0.0039174
0.00391342
0.00391094
0.00390706
0.00390472
0.00390093
0.00389871
0.003895
0.0038929
0.00388927
0.00388728
0.00388373
0.00388185
0.00387836
0.00387658
0.00387315
0.00387148
0.00386809
0.00386653
0.00386318
0.00386174
0.0038584
0.0038571
0.00385374
0.0038526
0.00384922
0.00384822
0.00384482
0.00384394
0.00384057
0.00383975
0.00383644
0.00383563
0.00383241
0.00383163
0.00382843
0.00382775
0.0038245
0.00382395
0.00382069
0.00382013
0.00381705
0.00381631
0.00381349
0.00381246
0.00381029
0.00380817
0.00380708
0.00380563
0.00380392
0.00380217
0.00379992
0.00406908
0.0040719
0.00407376
0.00407378
0.00407296
0.00407071
0.00406803
0.00406415
0.0040601
0.00405504
0.00405004
0.00404419
0.00403863
0.00403233
0.0040265
0.00402001
0.00401413
0.00400765
0.00400187
0.00399551
0.00398994
0.00398376
0.00397845
0.0039725
0.00396747
0.00396175
0.003957
0.00395153
0.00394705
0.0039418
0.00393761
0.00393258
0.00392865
0.00392383
0.00392017
0.00391555
0.00391214
0.00390771
0.00390454
0.00390028
0.00389733
0.00389323
0.00389048
0.0038865
0.00388394
0.00388005
0.00387766
0.00387384
0.00387161
0.00386784
0.00386576
0.00386203
0.00386008
0.00385639
0.00385456
0.00385092
0.00384919
0.00384562
0.00384397
0.00384048
0.0038389
0.00383548
0.00383398
0.00383062
0.00382919
0.00382589
0.00382453
0.00382126
0.00382
0.00381675
0.0038156
0.00381235
0.00381132
0.00380803
0.00380715
0.00380381
0.00380309
0.00379967
0.00379912
0.00379563
0.00379521
0.00379172
0.0037913
0.00378798
0.00378737
0.00378438
0.00378348
0.00378083
0.0037797
0.00377726
0.00377602
0.00377374
0.00377252
0.00376979
0.00376984
0.00376622
0.00376491
0.00376443
0.00376377
0.00376048
0.00400478
0.00400769
0.00400975
0.00401011
0.00400978
0.0040081
0.00400609
0.00400295
0.00399973
0.00399555
0.0039915
0.00398664
0.00398209
0.00397683
0.00397202
0.00396656
0.00396168
0.00395617
0.00395135
0.00394589
0.0039412
0.00393586
0.00393135
0.00392616
0.00392186
0.00391684
0.00391276
0.00390791
0.00390405
0.00389938
0.00389574
0.00389122
0.0038878
0.00388344
0.00388022
0.00387602
0.003873
0.00386894
0.00386611
0.00386218
0.00385953
0.00385572
0.00385323
0.00384953
0.0038472
0.00384359
0.00384141
0.00383787
0.00383582
0.00383233
0.00383041
0.00382697
0.00382516
0.00382176
0.00382005
0.00381668
0.00381507
0.00381174
0.00381021
0.00380692
0.00380547
0.0038022
0.00380083
0.0037976
0.0037963
0.0037931
0.00379187
0.00378869
0.00378753
0.00378438
0.0037833
0.00378017
0.00377917
0.00377605
0.00377512
0.00377201
0.00377116
0.00376807
0.00376728
0.00376421
0.00376347
0.00376043
0.00375972
0.00375674
0.00375601
0.00375313
0.00375235
0.0037496
0.00374873
0.00374613
0.00374515
0.00374277
0.00374154
0.00373919
0.0037385
0.00373633
0.00373478
0.00373449
0.00372337
0.00373848
0.00395646
0.00395927
0.00396138
0.00396193
0.00396192
0.00396065
0.00395913
0.00395655
0.00395394
0.00395042
0.00394707
0.00394292
0.0039391
0.00393455
0.00393048
0.00392572
0.00392154
0.0039167
0.00391254
0.00390771
0.00390364
0.00389888
0.00389494
0.00389029
0.00388652
0.003882
0.00387841
0.00387402
0.00387061
0.00386635
0.00386312
0.00385899
0.00385594
0.00385194
0.00384906
0.00384518
0.00384247
0.0038387
0.00383615
0.00383249
0.0038301
0.00382652
0.00382428
0.00382079
0.00381868
0.00381526
0.00381328
0.00380991
0.00380805
0.00380472
0.00380296
0.00379968
0.00379801
0.00379476
0.00379318
0.00378995
0.00378845
0.00378526
0.00378383
0.00378066
0.0037793
0.00377615
0.00377487
0.00377174
0.00377052
0.00376741
0.00376626
0.00376317
0.00376208
0.00375902
0.00375798
0.00375494
0.00375397
0.00375095
0.00375004
0.00374704
0.00374618
0.00374321
0.0037424
0.00373945
0.00373868
0.00373577
0.00373502
0.00373215
0.00373141
0.00372861
0.00372784
0.00372515
0.00372429
0.00372174
0.00372079
0.00371843
0.00371726
0.00371492
0.00371426
0.00371217
0.00371067
0.00371037
0.00369958
0.00371413
0.00391955
0.0039222
0.00392429
0.00392494
0.00392514
0.00392416
0.00392301
0.00392082
0.00391864
0.00391556
0.00391268
0.00390899
0.00390566
0.00390159
0.003898
0.00389372
0.00389004
0.00388567
0.003882
0.00387763
0.00387403
0.00386972
0.00386623
0.00386199
0.00385864
0.00385449
0.00385128
0.00384722
0.00384416
0.00384019
0.00383727
0.0038334
0.00383063
0.00382686
0.00382424
0.00382056
0.00381808
0.0038145
0.00381217
0.00380867
0.00380648
0.00380306
0.003801
0.00379765
0.00379572
0.00379242
0.00379061
0.00378735
0.00378564
0.00378242
0.00378081
0.00377762
0.00377608
0.00377292
0.00377146
0.00376832
0.00376693
0.00376381
0.00376249
0.00375939
0.00375813
0.00375505
0.00375385
0.00375079
0.00374965
0.00374662
0.00374553
0.00374252
0.00374149
0.00373849
0.00373751
0.00373455
0.00373362
0.00373067
0.0037298
0.00372687
0.00372605
0.00372313
0.00372237
0.00371946
0.00371873
0.00371586
0.00371515
0.00371233
0.00371161
0.00370885
0.00370813
0.0037054
0.00370471
0.00370199
0.00370133
0.00369864
0.00369804
0.00369542
0.0036943
0.00369233
0.0036922
0.0036884
0.00369702
0.00367652
0.0038914
0.00389387
0.00389586
0.00389652
0.00389681
0.00389597
0.00389501
0.00389305
0.00389113
0.00388834
0.00388577
0.00388241
0.00387941
0.00387568
0.00387245
0.00386851
0.00386517
0.00386113
0.00385778
0.00385372
0.00385043
0.0038464
0.00384321
0.00383923
0.00383616
0.00383226
0.00382932
0.00382549
0.00382268
0.00381893
0.00381625
0.00381258
0.00381004
0.00380644
0.00380404
0.00380052
0.00379825
0.0037948
0.00379267
0.00378929
0.00378729
0.00378397
0.00378209
0.00377883
0.00377706
0.00377384
0.00377219
0.003769
0.00376744
0.00376427
0.00376281
0.00375965
0.00375826
0.00375512
0.00375381
0.00375068
0.00374943
0.00374632
0.00374513
0.00374203
0.0037409
0.00373781
0.00373674
0.00373366
0.00373266
0.00372959
0.00372864
0.00372558
0.00372468
0.00372165
0.00372079
0.00371778
0.00371697
0.00371398
0.00371322
0.00371025
0.00370953
0.00370658
0.0037059
0.00370296
0.00370232
0.00369941
0.00369879
0.00369592
0.0036953
0.00369248
0.00369186
0.00368908
0.00368848
0.00368571
0.00368514
0.00368238
0.00368189
0.00367921
0.00367814
0.00367617
0.00367607
0.00367233
0.00368106
0.00366043
0.00386846
0.00387078
0.00387266
0.0038733
0.00387361
0.00387287
0.00387202
0.00387022
0.00386848
0.00386591
0.00386356
0.00386045
0.00385771
0.00385426
0.00385129
0.00384763
0.00384456
0.00384079
0.0038377
0.00383391
0.00383086
0.00382707
0.00382411
0.00382037
0.00381752
0.00381382
0.00381109
0.00380746
0.00380485
0.00380129
0.0037988
0.0037953
0.00379294
0.00378949
0.00378726
0.00378388
0.00378177
0.00377844
0.00377646
0.00377319
0.00377133
0.00376809
0.00376635
0.00376314
0.00376151
0.00375833
0.0037568
0.00375363
0.0037522
0.00374904
0.00374769
0.00374452
0.00374326
0.00374009
0.00373891
0.00373573
0.00373462
0.00373143
0.0037304
0.00372721
0.00372625
0.00372305
0.00372217
0.00371896
0.00371815
0.00371493
0.0037142
0.00371097
0.00371031
0.00370708
0.00370649
0.00370325
0.00370273
0.0036995
0.00369902
0.0036958
0.00369538
0.00369216
0.00369179
0.00368857
0.00368828
0.00368501
0.00368482
0.0036815
0.00368141
0.00367805
0.00367804
0.00367463
0.00367474
0.00367122
0.00367153
0.00366775
0.00366843
0.00366456
0.00366468
0.0036615
0.00366222
0.00365871
0.00366731
0.0036468
0.00384971
0.00385188
0.00385365
0.00385427
0.00385461
0.00385396
0.00385321
0.00385158
0.00385
0.00384764
0.00384549
0.00384262
0.00384009
0.00383689
0.00383414
0.00383074
0.00382788
0.00382437
0.00382149
0.00381793
0.00381507
0.00381151
0.00380872
0.00380517
0.00380247
0.00379896
0.00379635
0.00379287
0.00379037
0.00378693
0.00378453
0.00378113
0.00377884
0.00377549
0.00377331
0.00377
0.00376793
0.00376467
0.00376272
0.00375949
0.00375765
0.00375446
0.00375273
0.00374956
0.00374793
0.00374478
0.00374326
0.00374011
0.00373868
0.00373554
0.00373419
0.00373104
0.00372978
0.00372662
0.00372544
0.00372228
0.00372117
0.003718
0.00371698
0.00371379
0.00371286
0.00370965
0.0037088
0.00370558
0.00370481
0.00370158
0.00370089
0.00369765
0.00369704
0.00369378
0.00369325
0.00368997
0.00368954
0.00368623
0.00368589
0.00368254
0.00368231
0.00367891
0.00367878
0.00367534
0.00367529
0.00367185
0.00367184
0.00366842
0.00366843
0.00366503
0.00366507
0.0036617
0.00366173
0.00365847
0.00365833
0.00365536
0.00365499
0.00365234
0.00365142
0.00364953
0.00364891
0.00364717
0.00364614
0.0036428
0.00383614
0.00383813
0.00383974
0.0038403
0.0038406
0.00383999
0.00383927
0.00383772
0.00383621
0.00383396
0.00383189
0.00382914
0.0038267
0.00382361
0.00382093
0.00381762
0.00381482
0.00381138
0.00380853
0.00380503
0.00380218
0.00379865
0.00379584
0.00379229
0.00378954
0.00378601
0.00378332
0.00377982
0.00377723
0.00377375
0.00377126
0.00376784
0.00376545
0.00376208
0.00375981
0.00375651
0.00375436
0.00375111
0.00374908
0.00374588
0.00374397
0.00374081
0.00373901
0.00373587
0.00373417
0.00373106
0.00372945
0.00372637
0.00372486
0.00372179
0.00372037
0.00371732
0.00371599
0.00371295
0.00371171
0.00370867
0.00370753
0.00370447
0.00370343
0.00370035
0.00369941