/*--------------------------------*- C++ -*----------------------------------*\
  =========                 |
  \\      /  F ield         | OpenFOAM: The Open Source CFD Toolbox
   \\    /   O peration     | Website:  https://openfoam.org
    \\  /    A nd           | Version:  8
     \\/     M anipulation  |
\*---------------------------------------------------------------------------*/
FoamFile
{
    version     2.0;
    format      ascii;
    class       volScalarField;
    location    "0.999962";
    object      epsilon;
}
// * * * * * * * * * * * * * * * * * * * * * * * * * * * * * * * * * * * * * //

dimensions      [0 2 -3 0 0 0 0];

internalField   nonuniform List<scalar> 
6800
(
469.58
1028.59
958.293
790.378
604.4
419.549
260.296
128.861
65.1702
35.3762
401.007
916.165
839.108
687.356
456.381
260.905
123.362
59.7499
29.8927
17.1685
506.293
824.862
757.639
552.591
311.41
145.198
67.6089
31.9071
16.2895
9.89578
562.451
741.333
659.142
425.856
197.519
85.3573
36.5455
17.9141
10.3139
6.97501
614.225
687.726
595.779
311.598
126.208
50.8015
23.1533
12.4973
7.68619
5.52721
654.151
669.756
523.243
210.584
78.4446
30.5573
14.7404
8.67686
5.84102
4.55948
691.633
663.368
434.328
158.28
55.0635
22.6708
11.8473
7.42608
5.21973
4.21912
725.387
669.197
369.348
109.218
34.6993
15.3751
8.83239
5.91752
4.43253
3.77784
756.515
677.964
300.515
83.4192
28.6395
13.4149
8.06599
5.53967
4.23586
3.65457
789.871
691.347
250.247
59.8099
20.0557
10.4793
6.69316
4.7945
3.83892
3.40189
2596.7
1271.75
993.767
915.012
909.704
962.499
1037.08
1111.94
1160.68
1183.24
2492.98
1219.89
979.032
928.975
970.557
1082.76
1231.75
1391.13
1532.15
1613.31
2304.53
1148.91
958.511
959.594
1087.94
1301.78
1556.09
1791.25
1979.22
2071.16
2080.87
1074.68
946.767
1042.81
1300.68
1643.55
1943.7
2104.31
2175.99
2151.06
1846.03
1033.63
1011.44
1277.8
1734.55
2107.56
2214.77
2184.55
2028.94
1752.37
1640.27
1078.53
1289.59
1855.91
2302.98
2308.65
2163.86
1797.25
1496.47
978.721
1467.6
1321.31
1988.89
2503.25
2377.67
2000.51
1437.3
934.659
739.221
500.714
1381.44
1893.39
2581.26
2318.29
1614.17
1057.58
760.847
551.261
464.631
322.607
1195.06
2195.98
1925.56
1293.36
936.132
694.975
530.661
405.699
339.075
203.121
869.318
1483.54
1233.43
944.924
722.729
553.961
412.621
293.399
176.77
82.0424
1182.88
1104.54
1025.96
956.367
897.116
847.159
803.287
764.877
731.497
701.92
675.32
651.067
628.642
607.677
587.916
569.196
551.363
534.339
518.042
502.416
487.43
473.079
459.37
446.31
433.897
422.112
410.927
400.298
390.176
380.512
371.258
362.369
353.806
345.537
337.539
329.791
322.276
314.981
307.899
301.021
294.339
287.848
281.543
275.419
269.469
263.69
258.077
252.624
247.329
242.188
237.198
232.352
227.647
223.075
218.63
214.303
210.088
205.979
201.971
198.06
194.245
190.526
186.902
183.375
179.946
176.616
173.385
170.251
167.214
164.271
161.419
158.653
155.968
153.361
150.825
148.357
145.951
143.604
141.313
139.074
136.884
134.741
132.643
130.588
128.579
126.61
124.687
122.804
120.969
119.168
117.426
115.703
114.061
112.401
110.881
109.248
107.904
106.197
105.217
102.915
1631.58
1514.79
1393.83
1287.57
1197.01
1121.16
1056.52
1001.42
953.291
910.646
872.272
837.353
805.092
774.947
746.554
719.722
694.286
670.137
647.14
625.217
604.319
584.43
565.536
547.623
530.663
514.615
499.419
485.006
471.301
458.242
445.75
433.766
422.245
411.15
400.454
390.131
380.16
370.525
361.212
352.209
343.506
335.09
326.954
319.086
311.477
304.117
296.999
290.114
283.455
277.014
270.785
264.758
258.924
253.273
247.794
242.476
237.311
232.29
227.406
222.654
218.032
213.538
209.172
204.935
200.826
196.845
192.991
189.261
185.653
182.162
178.784
175.512
172.342
169.267
166.281
163.378
160.555
157.806
155.126
152.512
149.961
147.47
145.036
142.658
140.337
138.068
135.856
133.693
131.59
129.529
127.539
125.572
123.702
121.811
120.084
118.227
116.702
114.765
113.657
111.038
2085.24
1976.38
1826.06
1692.62
1578.18
1481.26
1398.28
1326.46
1262.9
1205.72
1153.5
1105.04
1059.69
1017.08
976.931
939.084
903.262
869.32
837.008
806.267
777.059
749.393
723.254
698.599
675.364
653.453
632.755
613.15
594.518
576.776
559.758
543.405
527.697
512.594
498.061
484.062
470.576
457.579
445.053
432.981
421.347
410.134
399.324
388.902
378.851
369.158
359.809
350.793
342.099
333.717
325.634
317.838
310.311
303.035
295.999
289.189
282.583
276.17
269.939
263.886
258.007
252.301
246.768
241.407
236.219
231.201
226.352
221.668
217.143
212.77
208.544
204.457
200.501
196.669
192.953
189.346
185.843
182.436
179.121
175.892
172.748
169.682
166.695
163.782
160.944
158.175
155.482
152.853
150.303
147.806
145.401
143.025
140.773
138.493
136.419
134.184
132.359
130.033
128.712
125.556
2160.19
2095.14
1960.4
1835.59
1726.93
1632.54
1550.11
1477.13
1411.55
1351.4
1295.51
1243.08
1193.62
1146.87
1102.66
1060.89
1021.18
983.443
947.391
913.131
880.666
850.051
821.246
794.16
768.678
744.657
721.944
700.383
679.847
660.173
641.441
623.52
606.289
589.668
573.611
558.084
543.069
528.547
514.507
500.939
487.828
475.16
462.917
451.081
439.636
428.574
417.883
407.555
397.58
387.948
378.646
369.659
360.963
352.542
344.362
336.407
328.665
321.128
313.79
306.651
299.711
292.971
286.432
280.096
273.963
268.032
262.302
256.763
251.407
246.23
241.225
236.385
231.699
227.159
222.755
218.481
214.329
210.291
206.363
202.538
198.814
195.186
191.652
188.208
184.856
181.588
178.412
175.312
172.309
169.368
166.54
163.741
161.097
158.412
155.982
153.348
151.212
148.472
146.931
143.176
1680.22
1593.92
1511.26
1444.17
1388.77
1342.36
1301.36
1262.18
1224.85
1187.87
1151.26
1115.09
1079.49
1044.98
1011.97
980.512
950.044
920.513
891.805
864.217
838.05
813.477
790.456
768.85
748.507
729.246
710.905
693.329
676.379
660.013
644.057
628.53
613.424
598.707
584.365
570.399
556.801
543.575
530.71
518.221
506.089
494.317
482.878
471.758
460.945
450.445
440.251
430.367
420.785
411.501
402.507
393.787
385.314
377.066
369.012
361.137
353.424
345.869
338.475
331.244
324.182
317.297
310.595
304.083
297.765
291.645
285.718
279.992
274.464
269.119
263.946
258.931
254.063
249.333
244.731
240.25
235.882
231.622
227.465
223.406
219.444
215.575
211.8
208.113
204.52
201.009
197.595
194.255
191.021
187.842
184.791
181.755
178.899
175.973
173.343
170.459
168.142
165.136
163.467
159.296
895.513
815.051
762.456
727.082
709.106
697.495
690.939
685.841
681.227
675.442
668.94
661.407
652.659
643.779
635.87
629.543
621.586
613.734
603.237
593.437
583.431
574.627
566.618
559.111
552.01
545.283
538.808
532.433
526.058
519.669
513.15
506.602
499.922
493.103
486.195
479.248
472.286
465.303
458.314
451.371
444.479
437.675
430.848
423.987
417.158
410.397
403.694
397.088
390.556
384.128
377.817
371.614
365.488
359.424
353.389
347.382
341.391
335.429
329.51
323.651
317.867
312.173
306.583
301.112
295.77
290.566
285.504
280.581
275.792
271.132
266.593
262.167
257.845
253.62
249.485
245.435
241.465
237.571
233.751
230.003
226.327
222.721
219.189
215.725
212.338
209.016
205.779
202.597
199.513
196.464
193.541
190.608
187.861
185.014
182.476
179.651
177.408
174.449
172.834
168.655
470.255
437.138
412.716
391.163
376.693
363.577
354.776
345.181
336.075
326.605
316.475
305.998
295.785
286.326
278.254
271.138
264.799
259.71
254.304
251.135
247.04
247.307
247.136
246.984
247.175
249.407
252.657
256.406
260.429
264.558
268.611
272.58
276.351
279.867
283.099
286.027
288.652
290.965
292.914
294.615
295.848
296.954
297.423
297.064
296.924
296.451
295.757
294.876
293.781
292.56
291.243
289.812
288.216
286.449
284.465
282.295
279.914
277.37
274.715
271.941
269.075
266.142
263.166
260.173
257.182
254.216
251.272
248.377
245.512
242.676
239.865
237.076
234.304
231.546
228.799
226.062
223.335
220.618
217.913
215.222
212.55
209.897
207.271
204.668
202.103
199.56
197.067
194.59
192.182
189.77
187.459
185.104
182.908
180.586
178.535
176.196
174.36
171.887
170.56
166.937
304.267
283.595
265.816
251.127
238.268
226.454
214.944
203.487
191.647
179.651
167.351
155.089
143.3
131.478
121.109
112.087
104.585
98.1074
92.7204
88.2328
84.4309
81.4213
79.0833
77.6074
76.6295
76.4825
76.6797
77.188
78.3603
79.8593
81.7479
83.8861
86.2986
88.9165
91.7789
94.8
98.0292
101.384
104.843
108.441
112.073
115.831
119.741
123.819
127.957
132.201
136.474
140.766
145.021
149.191
153.225
157.081
160.674
163.992
166.966
169.62
171.919
173.904
175.608
177.037
178.207
179.106
179.772
180.248
180.56
180.768
180.816
180.894
180.806
180.626
180.349
180.006
179.587
179.096
178.526
177.883
177.166
176.383
175.535
174.631
173.674
172.672
171.626
170.544
169.432
168.287
167.129
165.937
164.752
163.52
162.329
161.059
159.876
158.567
157.405
156.02
154.937
153.427
152.624
150.263
190.946
177.35
164.679
152.874
141.507
130.385
119.527
108.935
98.6415
88.7812
79.5002
70.7998
62.8938
56.0124
50.0636
44.9152
40.5447
36.8066
33.6876
31.0498
28.8596
27.0145
25.5083
24.2317
23.2217
22.347
21.7109
21.1418
20.8042
20.4789
20.4175
20.2587
20.2958
20.4357
20.7114
21.1474
21.6998
22.3364
23.0716
23.9127
24.8512
25.9203
27.0964
28.4302
29.893
31.5202
33.2852
35.2273
37.3184
39.5849
41.9757
44.5102
47.1102
49.7974
52.4959
55.2337
57.9522
60.6819
63.3908
66.1075
68.7988
71.5276
74.2601
77.0027
79.7202
82.4244
85.0724
87.6808
90.2082
92.6613
95.0048
97.2515
99.3701
101.378
103.246
104.998
106.607
108.104
109.459
110.708
111.823
112.833
113.705
114.494
115.162
115.765
116.266
116.712
117.077
117.385
117.643
117.82
117.994
118.063
117.988
117.978
117.935
117.698
117.645
117.234
75.2416
68.1714
61.8074
56.291
51.5021
47.2243
43.1533
39.6907
36.6329
33.7942
31.0098
28.2771
25.6452
23.1717
20.8998
18.8503
17.034
15.4396
14.0584
12.8642
11.8416
10.9616
10.2118
9.56375
9.01042
8.52713
8.11336
7.74958
7.43762
7.16498
6.93449
6.7332
6.55478
6.39984
6.26839
6.15811
6.08115
6.01501
5.99072
5.96326
5.97116
5.99976
6.04004
6.13126
6.21535
6.3425
6.4546
6.64533
6.88007
7.19905
7.57089
8.03071
8.52447
9.09444
9.67324
10.3172
10.9544
11.6586
12.3565
13.1363
13.9204
14.8053
15.7074
16.728
17.7733
18.9474
20.1445
21.4715
22.8107
24.2742
25.7332
27.3082
28.8594
30.5186
32.1352
33.8538
35.5112
37.2672
38.9443
40.7202
42.3992
44.1899
45.8783
47.6805
49.3505
51.1415
52.7666
54.5254
56.0776
57.7865
59.237
60.8823
62.2018
63.7806
64.9356
66.4396
67.4071
68.8466
69.6387
71.0929
20.6198
20.0705
19.4671
18.7168
17.7642
17.0547
15.6424
14.8636
13.2587
13.3062
12.8681
12.1936
11.4104
10.5967
9.79955
9.04717
8.35455
7.72838
7.16954
6.67403
6.23591
5.8491
5.50757
5.2055
4.93736
4.69846
4.48434
4.29186
4.11755
3.95972
3.81559
3.6848
3.56461
3.45533
3.3544
3.26245
3.17752
3.0998
3.02796
2.9623
2.90087
2.84515
2.79253
2.74549
2.70091
2.66181
2.62512
2.5934
2.56939
2.54759
2.54258
2.53222
2.53545
2.54998
2.56728
2.60268
2.62863
2.67848
2.71215
2.77833
2.82237
2.91136
2.97075
3.08935
3.17354
3.32897
3.44528
3.64383
3.79425
4.03963
4.22727
4.52589
4.75734
5.11693
5.39808
5.82619
6.16248
6.66716
7.06365
7.65387
8.11624
8.80128
9.33469
10.1235
10.7311
11.6294
12.3103
13.3206
14.0687
15.1892
15.9939
17.2176
18.0633
19.3821
20.2474
21.6459
22.5147
23.9685
24.9202
26.5494
11.5522
11.0679
10.6413
10.179
9.66926
9.13079
8.64984
8.22754
7.88591
7.52842
7.16279
6.79338
6.42266
6.05572
5.69809
5.35579
5.03333
4.73387
4.45917
4.20977
3.98314
3.77841
3.5942
3.4287
3.27963
3.14511
3.02296
2.91178
2.80981
2.71627
2.62968
2.54981
2.47542
2.40666
2.34232
2.28284
2.22692
2.17517
2.12619
2.08071
2.03719
1.99644
1.95689
1.91941
1.88255
1.84715
1.81201
1.7785
1.74519
1.71453
1.68472
1.65798
1.63148
1.60872
1.58625
1.56754
1.54912
1.53402
1.5182
1.50622
1.49109
1.48161
1.46821
1.46046
1.45117
1.44546
1.44017
1.43696
1.43714
1.44037
1.44651
1.46253
1.4756
1.50509
1.52299
1.55945
1.58043
1.62247
1.64678
1.6947
1.7246
1.78144
1.81895
1.89167
1.93812
2.03583
2.10104
2.22732
2.31594
2.48192
2.59694
2.81301
2.95814
3.23332
3.41158
3.75045
3.95659
4.3764
4.56935
5.28058
7.06327
6.8461
6.61738
6.38063
6.14337
5.90795
5.67
5.42375
5.17128
4.92165
4.68218
4.45232
4.23253
4.02373
3.82663
3.64186
3.46967
3.30985
3.16181
3.02581
2.90393
2.79434
2.69498
2.60391
2.51986
2.44169
2.36876
2.30039
2.23618
2.17567
2.11854
2.06447
2.0131
1.96426
1.91758
1.87304
1.83025
1.78931
1.74988
1.71215
1.6758
1.6411
1.6077
1.57593
1.54536
1.51637
1.48843
1.46197
1.43633
1.41205
1.38835
1.36588
1.3438
1.32283
1.30211
1.28241
1.26287
1.24429
1.22578
1.20838
1.1909
1.17461
1.15807
1.14281
1.12725
1.11305
1.09835
1.08532
1.07151
1.05977
1.04696
1.03655
1.02497
1.01576
1.00542
0.997127
0.987917
0.980318
0.972139
0.965144
0.958001
0.951784
0.94574
0.940844
0.935638
0.932802
0.933546
0.935208
0.937492
0.937318
0.942037
0.946573
0.953934
0.966598
0.978312
1.00028
1.01531
1.04967
1.06388
1.1345
4.75042
4.61129
4.46438
4.31607
4.17169
4.03214
3.8983
3.7735
3.65684
3.54433
3.43237
3.31913
3.20474
3.08956
2.9749
2.86173
2.75163
2.64538
2.54382
2.44785
2.35869
2.27633
2.20106
2.13211
2.06924
2.01138
1.95823
1.90874
1.86275
1.81934
1.77851
1.73952
1.70247
1.66673
1.63252
1.59927
1.5673
1.53607
1.50601
1.4766
1.44835
1.42076
1.39435
1.36864
1.34416
1.32037
1.29782
1.27589
1.25516
1.23493
1.21581
1.19703
1.17923
1.16165
1.14494
1.12831
1.11248
1.09665
1.08153
1.06638
1.05188
1.03733
1.02339
1.00941
0.996003
0.98258
0.969748
0.956914
0.944713
0.932508
0.92099
0.909458
0.898646
0.887808
0.877682
0.86751
0.857999
0.848399
0.839378
0.830223
0.821554
0.812639
0.804256
0.795552
0.787314
0.778548
0.770587
0.762022
0.754532
0.745927
0.73877
0.729976
0.723105
0.714462
0.708139
0.699994
0.694697
0.688383
0.684079
0.67858
3.54256
3.468
3.38891
3.30529
3.21843
3.12916
3.03833
2.94606
2.85358
2.76229
2.67407
2.5892
2.50765
2.42908
2.35387
2.28175
2.21309
2.14804
2.08788
2.03184
1.97955
1.93
1.88311
1.83815
1.7953
1.75399
1.71458
1.67653
1.64025
1.6052
1.57184
1.53958
1.50891
1.47921
1.45101
1.42363
1.39764
1.37233
1.34832
1.32484
1.30254
1.28064
1.25983
1.23928
1.21974
1.20034
1.1819
1.1635
1.14603
1.12852
1.11194
1.09524
1.07948
1.06354
1.04857
1.03337
1.01915
1.00464
0.991146
0.977305
0.964497
0.951282
0.939121
0.926488
0.914933
0.902834
0.891843
0.880234
0.869769
0.858605
0.848632
0.837877
0.828366
0.817988
0.808911
0.798881
0.790215
0.780502
0.772228
0.7628
0.7549
0.745719
0.738185
0.729218
0.722039
0.713257
0.706427
0.697806
0.691336
0.682835
0.676751
0.668315
0.662643
0.654262
0.648959
0.640651
0.635815
0.627455
0.623824
0.612143
2.8745
2.82196
2.76569
2.7063
2.64548
2.58417
2.52322
2.46286
2.40342
2.34473
2.28686
2.22952
2.173
2.11712
2.06228
2.00854
1.9566
1.9065
1.85877
1.8132
1.77014
1.72916
1.69049
1.65357
1.61861
1.58501
1.55304
1.52212
1.49257
1.46385
1.43635
1.40953
1.38386
1.35876
1.3348
1.31135
1.289
1.26709
1.24625
1.22578
1.20632
1.18713
1.16891
1.15083
1.13368
1.11656
1.10032
1.08401
1.06857
1.05298
1.03826
1.02332
1.00926
0.994932
0.981517
0.967782
0.954993
0.941831
0.929653
0.917044
0.905453
0.893369
0.882339
0.870745
0.860245
0.849103
0.839099
0.828371
0.81883
0.808479
0.799375
0.789365
0.780675
0.770977
0.762683
0.753266
0.745355
0.736196
0.72865
0.719731
0.71253
0.703839
0.696965
0.688486
0.681926
0.673638
0.667386
0.659266
0.653317
0.645352
0.639685
0.631877
0.626471
0.618772
0.613685
0.606028
0.601278
0.593619
0.588644
0.580198
2.48958
2.45034
2.40837
2.3637
2.3173
2.2697
2.22163
2.17328
2.12519
2.07745
2.03056
1.98452
1.93976
1.89617
1.85411
1.81335
1.77415
1.73617
1.69964
1.6642
1.63011
1.59699
1.56516
1.53423
1.50455
1.47569
1.44802
1.4211
1.39532
1.37019
1.34614
1.32263
1.30013
1.27809
1.257
1.23628
1.21645
1.19691
1.17823
1.15975
1.14211
1.1246
1.10791
1.09129
1.07548
1.05966
1.04467
1.0296
1.01536
1.00097
0.987425
0.97367
0.960766
0.947591
0.935287
0.922646
0.910904
0.898758
0.887542
0.875855
0.865135
0.853875
0.843623
0.83276
0.822955
0.812462
0.803083
0.792935
0.783965
0.774137
0.76556
0.75603
0.747834
0.738581
0.730753
0.721757
0.714284
0.705529
0.698399
0.689865
0.683068
0.67474
0.668263
0.660125
0.65396
0.645995
0.640133
0.632324
0.626762
0.61909
0.613823
0.606266
0.601298
0.593831
0.589172
0.581768
0.577383
0.5702
0.565431
0.557404
2.25491
2.22192
2.18681
2.14957
2.11108
2.07176
2.03226
1.99268
1.95344
1.9145
1.87618
1.83832
1.80124
1.76476
1.7292
1.69436
1.66056
1.62756
1.59568
1.56463
1.53472
1.50559
1.47758
1.45029
1.42406
1.39846
1.37387
1.34982
1.32673
1.30411
1.28239
1.26108
1.24064
1.22053
1.20126
1.18225
1.16405
1.14606
1.12884
1.11176
1.09544
1.0792
1.0637
1.04822
1.0335
1.01872
1.0047
0.990583
0.977226
0.963716
0.950979
0.938034
0.925879
0.913458
0.901847
0.88991
0.878809
0.86732
0.856699
0.845624
0.835457
0.824766
0.815028
0.804696
0.795368
0.785372
0.776438
0.766757
0.758202
0.748815
0.740627
0.731514
0.723683
0.714824
0.707339
0.698718
0.691568
0.683169
0.676342
0.668149
0.661633
0.653634
0.64742
0.639597
0.633679
0.626014
0.620388
0.612864
0.607526
0.60013
0.595071
0.587784
0.583007
0.575807
0.571326
0.564182
0.559962
0.553026
0.548439
0.540692
2.10341
2.07416
2.04334
2.01086
1.97739
1.94314
1.90863
1.87388
1.83929
1.80482
1.77083
1.7372
1.70428
1.67189
1.64034
1.60941
1.5794
1.55003
1.52161
1.49382
1.46698
1.44073
1.41541
1.39063
1.36675
1.34336
1.32082
1.29871
1.27743
1.25652
1.23641
1.2166
1.19757
1.17879
1.16077
1.14293
1.12584
1.10889
1.09267
1.07654
1.06113
1.04575
1.03109
1.01641
1.00245
0.988418
0.975105
0.961671
0.948962
0.936079
0.923933
0.911564
0.899947
0.888054
0.876935
0.865488
0.85484
0.843809
0.833607
0.822967
0.813189
0.802914
0.793539
0.783606
0.774618
0.765006
0.756389
0.747078
0.738818
0.729789
0.721875
0.713109
0.70553
0.697008
0.689755
0.681458
0.674522
0.666435
0.659804
0.651916
0.645575
0.637877
0.631811
0.624295
0.618496
0.611143
0.605609
0.598403
0.593128
0.586062
0.581029
0.574107
0.569301
0.562486
0.557962
0.551205
0.546985
0.540225
0.535784
0.528256
2.00018
1.973
1.94459
1.91483
1.88428
1.8531
1.82173
1.79017
1.75878
1.72749
1.69665
1.66608
1.63612
1.60656
1.57771
1.54933
1.52173
1.49464
1.46837
1.4426
1.41768
1.39324
1.36964
1.34649
1.32415
1.30221
1.28107
1.26028
1.24026
1.22053
1.20155
1.18282
1.16482
1.147
1.12991
1.11296
1.09671
1.08055
1.0651
1.04968
1.03497
1.02025
1.00622
0.992142
0.978763
0.965281
0.952506
0.939576
0.927365
0.914948
0.903265
0.891325
0.880139
0.868643
0.857926
0.846846
0.836572
0.825883
0.81603
0.805709
0.796256
0.78628
0.777209
0.767558
0.758854
0.749508
0.741158
0.732099
0.724089
0.7153
0.707618
0.699083
0.691718
0.683422
0.676362
0.66829
0.661525
0.653663
0.647184
0.639516
0.633318
0.625825
0.619905
0.612571
0.606921
0.599736
0.594349
0.587296
0.582177
0.575226
0.570396
0.563502
0.558984
0.552133
0.547879
0.541084
0.537164
0.530302
0.52733
0.517508
1.92626
1.90036
1.8735
1.84553
1.81695
1.78784
1.75858
1.72912
1.69983
1.6706
1.64176
1.61316
1.58512
1.55743
1.53041
1.5038
1.47792
1.45248
1.4278
1.40356
1.38008
1.35703
1.33473
1.31281
1.29164
1.27081
1.25071
1.2309
1.21182
1.19297
1.17483
1.15689
1.13965
1.12255
1.10614
1.08984
1.07422
1.05865
1.04377
1.02889
1.0147
1.00047
0.986924
0.973297
0.960358
0.947289
0.93492
0.92237
0.910534
0.898468
0.887135
0.87552
0.864661
0.853469
0.84306
0.832263
0.822282
0.811856
0.802281
0.792205
0.783017
0.773269
0.764453
0.755013
0.746553
0.737403
0.729287
0.720409
0.712624
0.704001
0.696536
0.688154
0.680998
0.67284
0.665985
0.658035
0.651474
0.643717
0.637442
0.629864
0.623867
0.616453
0.61073
0.603465
0.59801
0.590881
0.58569
0.578683
0.573753
0.566852
0.562185
0.555374
0.550966
0.54424
0.540075
0.533417
0.52956
0.522852
0.519924
0.510257
1.87127
1.84618
1.82032
1.79354
1.76628
1.73857
1.71078
1.68283
1.65505
1.62733
1.6
1.57288
1.54628
1.51999
1.49432
1.46901
1.44438
1.42014
1.39659
1.37344
1.351
1.32893
1.30758
1.28656
1.26625
1.24624
1.22692
1.20787
1.18949
1.17133
1.15384
1.13652
1.11987
1.10334
1.08747
1.07169
1.05655
1.04146
1.02702
1.01258
0.998798
0.984965
0.971796
0.958533
0.945941
0.933207
0.921158
0.908918
0.897379
0.8856
0.874541
0.863194
0.85259
0.841647
0.831475
0.82091
0.81115
0.800941
0.791573
0.7817
0.772707
0.763148
0.754515
0.745253
0.736966
0.727983
0.72003
0.711308
0.703678
0.695202
0.687884
0.679639
0.672623
0.664594
0.657873
0.650044
0.64361
0.635968
0.629814
0.622344
0.616463
0.609152
0.603539
0.596373
0.591022
0.583988
0.578896
0.57198
0.567144
0.560332
0.555751
0.54903
0.544701
0.538063
0.533972
0.527398
0.523609
0.516985
0.514094
0.504601
1.82982
1.80523
1.78002
1.75404
1.72769
1.70098
1.67422
1.64734
1.62064
1.59401
1.56775
1.54169
1.51613
1.49086
1.46618
1.44184
1.41813
1.39478
1.3721
1.34977
1.32813
1.30682
1.28619
1.26587
1.24622
1.22685
1.20814
1.18967
1.17185
1.15422
1.13724
1.12041
1.10422
1.08814
1.07269
1.05731
1.04256
1.02784
1.01375
0.999653
0.986188
0.972668
0.95979
0.946814
0.93449
0.922023
0.910221
0.898228
0.886917
0.875368
0.86452
0.853388
0.84298
0.832237
0.822248
0.811873
0.802282
0.792252
0.783042
0.773337
0.764493
0.755094
0.746599
0.737488
0.729332
0.720492
0.712661
0.704076
0.69656
0.688214
0.681004
0.672882
0.665969
0.658057
0.651432
0.643715
0.637371
0.629836
0.623765
0.6164
0.610595
0.603387
0.597841
0.590777
0.585487
0.578555
0.573515
0.566702
0.561909
0.555205
0.550655
0.544043
0.539742
0.533204
0.529157
0.522677
0.518855
0.512571
0.508409
0.501368
1.79766
1.77338
1.74859
1.72316
1.69747
1.67146
1.64546
1.61937
1.59348
1.56767
1.54222
1.51698
1.49222
1.46774
1.44382
1.42023
1.39724
1.37459
1.35259
1.33091
1.30988
1.28918
1.26912
1.24935
1.23023
1.21136
1.19313
1.17512
1.15774
1.14055
1.12397
1.10753
1.0917
1.07598
1.06087
1.04582
1.03138
1.01696
1.00316
0.989335
0.976128
0.962865
0.950224
0.937485
0.925378
0.91313
0.901526
0.889737
0.878607
0.867248
0.856566
0.84561
0.835355
0.824778
0.814929
0.804709
0.795247
0.785364
0.776272
0.766706
0.75797
0.748703
0.740309
0.731323
0.723258
0.714538
0.706792
0.698321
0.690883
0.682647
0.675508
0.667492
0.660644
0.652832
0.646269
0.638648
0.632362
0.624919
0.618902
0.611625
0.605869
0.598748
0.593247
0.586269
0.581017
0.57417
0.569164
0.562434
0.557673
0.55105
0.546528
0.539996
0.535718
0.529259
0.525239
0.518829
0.515034
0.508816
0.504672
0.497718
1.77265
1.74853
1.724
1.69894
1.6737
1.64821
1.62277
1.59726
1.57199
1.5468
1.52198
1.49737
1.47323
1.44937
1.42606
1.40306
1.38065
1.35857
1.3371
1.31594
1.29542
1.27519
1.25559
1.23627
1.21757
1.19911
1.18126
1.16362
1.14659
1.12972
1.11346
1.09733
1.08179
1.06634
1.05149
1.03669
1.02249
1.0083
0.994708
0.981097
0.968082
0.955011
0.942544
0.929982
0.918032
0.905947
0.894485
0.882846
0.871845
0.860626
0.850062
0.839237
0.829088
0.818636
0.808883
0.798781
0.789406
0.779636
0.770624
0.761167
0.752503
0.743342
0.735014
0.726133
0.718126
0.709509
0.701814
0.693447
0.686053
0.67792
0.670819
0.662906
0.656089
0.648381
0.641843
0.634324
0.628058
0.620716
0.614715
0.60754
0.601791
0.594779
0.589269
0.582412
0.577135
0.57042
0.565375
0.558789
0.553971
0.547506
0.542903
0.536565
0.532164
0.52592
0.52177
0.515578
0.5117
0.505506
0.501411
0.49451
1.75399
1.7299
1.70549
1.68065
1.6557
1.63056
1.6055
1.58041
1.55557
1.53084
1.50649
1.48234
1.45867
1.43526
1.4124
1.38983
1.36784
1.34616
1.32508
1.3043
1.28412
1.26424
1.24496
1.22594
1.20753
1.18934
1.17175
1.15436
1.13755
1.12091
1.10485
1.08892
1.07356
1.0583
1.04361
1.02898
1.01493
1.00089
0.987436
0.973962
0.961074
0.94813
0.935779
0.923335
0.911493
0.899518
0.888156
0.876621
0.865714
0.854593
0.844118
0.833387
0.823323
0.81296
0.803288
0.793273
0.783976
0.774289
0.765352
0.755976
0.747384
0.738301
0.730041
0.721236
0.713295
0.704752
0.69712
0.688825
0.681491
0.673429
0.666384
0.658542
0.651776
0.644141
0.637646
0.630206
0.623972
0.616715
0.610737
0.60365
0.597922
0.59099
0.585509
0.578719
0.573481
0.566822
0.561822
0.555279
0.550523
0.54407
0.539575
0.533175
0.528962
0.5226
0.518632
0.512311
0.508661
0.502265
0.49951
0.490373
1.74016
1.71602
1.69162
1.66689
1.64209
1.61716
1.59234
1.56752
1.54295
1.5185
1.49443
1.47057
1.44717
1.42403
1.40142
1.3791
1.35735
1.33589
1.31501
1.29443
1.27445
1.25474
1.23562
1.21675
1.19847
1.18041
1.16294
1.14566
1.12896
1.11242
1.09646
1.08063
1.06538
1.05022
1.03564
1.02111
1.00716
0.993235
0.979884
0.96652
0.953736
0.940899
0.928644
0.9163
0.904549
0.892672
0.881401
0.869964
0.859149
0.848129
0.837747
0.827118
0.817149
0.806889
0.797312
0.7874
0.778198
0.768614
0.759771
0.750496
0.741996
0.733012
0.724843
0.716135
0.708283
0.699835
0.692289
0.684085
0.676834
0.668861
0.661896
0.654139
0.647451
0.639895
0.633478
0.62611
0.619956
0.612762
0.606865
0.599835
0.594185
0.58731
0.581898
0.575171
0.56999
0.563398
0.558445
0.551976
0.547248
0.540894
0.53638
0.530146
0.525833
0.519688
0.515623
0.509527
0.505725
0.499636
0.495626
0.488837
1.72915
1.70493
1.68051
1.65581
1.63109
1.60625
1.58152
1.55679
1.5323
1.50792
1.48389
1.46005
1.43665
1.4135
1.39086
1.36852
1.34672
1.32525
1.30434
1.28377
1.26375
1.24399
1.22483
1.20593
1.18764
1.1696
1.15217
1.13496
1.11835
1.10194
1.08612
1.07046
1.05539
1.04042
1.02604
1.01173
0.998002
0.984303
0.971177
0.958046
0.945489
0.932892
0.920877
0.908779
0.897269
0.885634
0.874595
0.863389
0.852793
0.841988
0.83181
0.821381
0.811598
0.801522
0.792115
0.782372
0.773323
0.763894
0.755189
0.746056
0.737681
0.728827
0.72077
0.712181
0.704431
0.696092
0.688638
0.680535
0.673368
0.665487
0.658599
0.650928
0.644308
0.636835
0.630476
0.623191
0.617083
0.609974
0.604111
0.597167
0.591546
0.584749
0.579371
0.572706
0.567567
0.561025
0.55612
0.549687
0.545022
0.538671
0.534268
0.527958
0.52384
0.517559
0.513677
0.50745
0.503863
0.497573
0.494837
0.485822
1.72066
1.69604
1.67114
1.6461
1.62092
1.59548
1.57008
1.54462
1.51942
1.49433
1.46968
1.44527
1.42144
1.39795
1.37511
1.35265
1.33088
1.3095
1.28883
1.26852
1.24894
1.22974
1.21121
1.19301
1.17544
1.15813
1.14142
1.12492
1.10899
1.09322
1.07801
1.06291
1.04837
1.03389
1.01996
1.00606
0.992711
0.979359
0.96655
0.953709
0.941416
0.929056
0.917253
0.905346
0.894008
0.882529
0.871633
0.860558
0.850082
0.839387
0.829311
0.818976
0.809282
0.799288
0.789957
0.780286
0.771304
0.761939
0.753292
0.744217
0.735894
0.727093
0.719081
0.710541
0.70283
0.694536
0.687118
0.679056
0.671921
0.664078
0.657219
0.649581
0.642991
0.635546
0.629217
0.621953
0.615878
0.608786
0.602956
0.596024
0.590435
0.583653
0.578298
0.571654
0.56653
0.560013
0.555119
0.548713
0.544053
0.537735
0.533326
0.52706
0.522922
0.516694
0.512793
0.506601
0.503013
0.496734
0.494035
0.485058
1.6958
1.66988
1.64426
1.61856
1.59327
1.56822
1.54363
1.5193
1.49547
1.47194
1.44894
1.42626
1.40413
1.38233
1.36111
1.34019
1.31985
1.29981
1.28034
1.26114
1.2425
1.22412
1.20628
1.18867
1.1716
1.15471
1.13837
1.12217
1.1065
1.09096
1.07594
1.06102
1.04661
1.03227
1.01845
1.00465
0.991388
0.978115
0.965378
0.9526
0.940366
0.928059
0.916305
0.904443
0.893147
0.881705
0.870845
0.859802
0.849357
0.83869
0.828641
0.81833
0.80866
0.798687
0.789379
0.779725
0.770763
0.761414
0.752785
0.743724
0.735415
0.726629
0.718629
0.710103
0.702402
0.694121
0.686711
0.678661
0.671534
0.663701
0.65685
0.64922
0.64264
0.635197
0.628883
0.621615
0.615562
0.608456
0.602655
0.595705
0.590143
0.583346
0.578011
0.571363
0.566247
0.559736
0.554838
0.548451
0.543769
0.537498
0.533021
0.526872
0.522589
0.516527
0.512492
0.506469
0.502707
0.496684
0.492718
0.485971
2.93681
3.135
3.232
3.54997
3.77556
4.20327
5.0363
6.12231
8.616
20.7981
2.63134
2.74985
2.82139
2.99206
3.25376
3.43662
3.94594
4.57492
5.47015
11.9292
2.45118
2.50062
2.57096
2.62326
2.81448
2.97118
3.18621
3.69029
4.08666
7.22225
2.33485
2.36499
2.39406
2.44519
2.50828
2.65585
2.75575
3.07166
3.29351
4.84582
2.23812
2.25804
2.26847
2.31157
2.33748
2.42954
2.48732
2.67254
2.80054
3.59525
2.16532
2.17509
2.17871
2.20551
2.21957
2.2749
2.30855
2.41796
2.49113
2.9058
2.10904
2.1101
2.11005
2.12334
2.13056
2.16306
2.18242
2.24764
2.28962
2.51208
2.06506
2.05997
2.05697
2.06063
2.06292
2.0798
2.09004
2.12776
2.15155
2.2751
2.03017
2.02129
2.01423
2.01124
2.00999
2.01662
2.02065
2.04048
2.05298
2.12344
2.00211
1.99105
1.98022
1.97408
1.96759
1.96711
1.96705
1.97492
1.98021
2.02074
1.97942
1.96718
1.95309
1.94462
1.93431
1.92964
1.92401
1.92427
1.92481
1.94631
1.96217
1.94731
1.93255
1.92048
1.90892
1.8997
1.89141
1.88582
1.88118
1.89091
1.948
1.93184
1.91537
1.9021
1.88757
1.87737
1.86438
1.85774
1.8455
1.84929
1.93626
1.9201
1.90126
1.88792
1.87041
1.85973
1.84331
1.83519
1.81762
1.8171
1.92687
1.91117
1.89007
1.8769
1.85692
1.84586
1.82684
1.81753
1.79864
1.79216
1.91978
1.90434
1.88177
1.86835
1.847
1.83497
1.81473
1.80357
1.78456
1.7737
1.91483
1.89834
1.87599
1.86097
1.8401
1.82589
1.80626
1.79238
1.77386
1.76009
1.91132
1.89308
1.87164
1.85468
1.83465
1.8184
1.79936
1.78345
1.76508
1.74934
1.90942
1.89007
1.86882
1.85069
1.83072
1.8133
1.79413
1.77706
1.75835
1.74142
1.90029
1.87853
1.85645
1.83603
1.81507
1.7956
1.77533
1.75645
1.73657
1.71805
3.03355
3.33742
3.87531
4.75617
6.19308
9.316
19.2238
78.3208
587.443
1078.6
3.03238
3.33156
3.89535
4.819
6.4765
9.8044
19.6614
81.5965
611.68
1092.33
3.03394
3.32295
3.90642
4.84979
6.47017
9.96862
21.4147
87.1708
637.126
1082.39
3.04043
3.32843
3.91283
4.96965
6.85607
10.6859
22.1797
92.8081
659.973
1049.51
3.03712
3.319
3.89378
4.94468
6.84962
10.8134
24.592
100.167
678.177
1017.24
3.07798
3.38287
4.00409
5.19757
7.37034
12.0161
26.393
110.109
699.216
976.999
3.08243
3.38759
3.99814
5.20579
7.44505
12.0968
29.273
121.328
708.308
935.815
3.16508
3.51454
4.21653
5.61973
8.25752
14.0391
33.306
136.512
719.466
895.161
3.19524
3.54647
4.26001
5.71448
8.45209
14.5392
38.0601
165.156
715.621
856.314
3.34262
3.76595
4.65846
6.4404
9.8834
18.2488
48.344
199.905
705.123
821.357
3.05274
3.55024
3.88177
5.38
5.96286
12.4826
17.4931
70.302
309.781
675.377
3.05801
3.46583
3.86069
4.92625
5.5795
11.6351
16.5828
64.2749
275.919
667.378
3.09793
3.45504
3.85948
4.81738
5.51455
10.9272
17.9032
60.8814
290.648
683.706
3.11619
3.44547
3.8621
4.76532
5.76895
9.97699
17.5649
63.2615
340.396
772.34
3.11621
3.43772
3.85264
4.70028
5.95995
9.32425
17.724
64.6395
387.385
899.142
3.10173
3.4196
3.85678
4.66489
6.00373
9.25518
17.2989
63.9897
422.794
917.766
3.08099
3.40071
3.84986
4.64877
6.01911
9.09198
18.7418
66.2605
465.587
931.422
3.05556
3.38211
3.83388
4.6585
6.05127
8.98581
17.9064
67.5471
500.608
951.73
3.02638
3.35525
3.82231
4.6592
6.09186
9.01505
18.0573