/*--------------------------------*- C++ -*----------------------------------*\
  =========                 |
  \\      /  F ield         | OpenFOAM: The Open Source CFD Toolbox
   \\    /   O peration     | Website:  https://openfoam.org
    \\  /    A nd           | Version:  8
     \\/     M anipulation  |
\*---------------------------------------------------------------------------*/
FoamFile
{
    version     2.0;
    format      ascii;
    class       volScalarField;
    location    "0.999962";
    object      k;
}
// * * * * * * * * * * * * * * * * * * * * * * * * * * * * * * * * * * * * * //

dimensions      [0 2 -2 0 0 0 0];

internalField   nonuniform List<scalar> 
6800
(
7.43754
17.9571
18.6827
18.0853
16.6996
14.2735
10.4998
7.04664
3.92912
2.49206
6.38395
16.9117
17.9873
17.2339
15.2721
10.9466
6.48789
3.61023
2.20622
1.56311
8.03001
17.0314
17.4455
16.2832
12.5892
7.11406
3.81166
2.31556
1.5566
1.16406
8.91242
16.787
16.8959
14.8939
9.0732
4.68261
2.72033
1.76075
1.21083
0.926214
9.7102
16.5563
16.5059
12.7882
6.26796
3.32619
1.93714
1.26788
0.92719
0.76475
10.3448
16.777
16.2368
9.81508
4.64738
2.36597
1.46325
1.06409
0.835518
0.709731
10.929
17.6455
15.5884
7.44222
3.24716
1.8459
1.28499
0.953206
0.741694
0.637419
11.4911
18.6612
14.1894
5.44514
2.74524
1.61916
1.09214
0.821213
0.670775
0.603021
11.9917
20.0824
12.3215
4.77514
2.14113
1.34551
1.00443
0.779288
0.646548
0.583999
12.5632
21.3214
10.7759
3.5607
1.93399
1.27834
0.914282
0.705845
0.603902
0.554805
41.1191
59.4648
61.8459
61.6075
62.0022
63.8497
66.5785
69.4365
71.509
72.4444
39.476
57.1855
60.3664
61.1567
62.9005
66.2162
70.6035
75.2431
79.2682
81.5704
36.4916
53.2315
57.5953
60.3111
64.3673
69.9147
76.0507
81.2195
84.9524
86.8555
32.9483
48.8594
54.6396
60.1018
66.9931
74.5752
79.7897
81.9419
81.6794
78.6516
29.2319
45.217
53.5105
62.1518
71.5667
77.1191
76.6492
72.9944
67.1514
54.2926
25.9766
43.626
55.6843
67.0351
72.0109
69.2577
62.3515
47.9862
38.8973
26.4014
23.2385
44.4774
60.894
64.644
58.7291
45.2741
31.9481
23.4227
20.1593
15.3428
21.8649
47.2141
53.0295
45.0961
30.9574
23.4359
19.1758
15.7825
14.3846
11.4844
18.9187
37.2253
30.7983
24.4125
20.5071
17.6663
15.3617
13.1372
11.8462
8.80508
13.7882
22.598
21.4255
19.6379
17.8159
15.7705
13.6716
10.8733
8.62863
4.75888
72.5895
70.2186
67.4541
64.8552
62.5643
60.5862
58.8184
57.2487
55.8681
54.6307
53.5048
52.462
51.4822
50.5512
49.659
48.802
47.9795
47.1843
46.4144
45.666
44.937
44.2295
43.5446
42.8853
42.2535
41.6502
41.0748
40.5255
39.9999
39.4951
39.0083
38.5371
38.0792
37.6326
37.1961
36.7681
36.348
35.935
35.529
35.1293
34.7362
34.3496
33.9696
33.5961
33.2289
32.8681
32.5135
32.1652
31.8232
31.4876
31.1584
30.8355
30.5187
30.2075
29.9016
29.6002
29.303
29.0094
28.7192
28.4321
28.1482
27.8678
27.5911
27.3187
27.0508
26.7881
26.5306
26.2789
26.033
25.793
25.5588
25.3301
25.1067
24.8883
24.6745
24.4649
24.2592
24.057
23.858
23.662
23.4687
23.2779
23.0896
22.9037
22.7202
22.5393
22.361
22.1853
22.0126
21.8427
21.6762
21.5123
21.353
21.1945
21.0446
20.8886
20.7534
20.5912
20.4835
20.278
82.248
79.3288
75.9379
72.7512
69.9257
67.4969
65.3859
63.5583
61.9389
60.4829
59.1527
57.9161
56.7509
55.6419
54.5761
53.5511
52.5656
51.6162
50.6988
49.8102
48.9478
48.1147
47.312
46.5418
45.805
45.1016
44.4303
43.7885
43.1731
42.5809
42.009
41.4548
40.916
40.3907
39.8773
39.3744
38.8815
38.3978
37.9233
37.4575
37.0012
36.5539
36.1154
35.6855
35.264
34.8508
34.4458
34.049
33.6604
33.2799
32.9075
32.5429
32.1858
31.8354
31.4912
31.1524
30.8186
30.4892
30.1639
29.8426
29.5254
29.2126
28.9045
28.6018
28.3048
28.014
27.7296
27.4519
27.181
26.9169
26.6595
26.4083
26.1632
25.9237
25.6895
25.46
25.235
25.014
24.7968
24.583
24.3725
24.165
23.9605
23.7589
23.5602
23.3646
23.172
22.9826
22.7966
22.6138
22.4349
22.2588
22.088
21.918
21.7574
21.5902
21.4455
21.2718
21.1565
20.9355
87.8166
85.3005
81.7084
78.3594
75.4032
72.8898
70.7335
68.8662
67.2051
65.6976
64.3018
62.9862
61.7306
60.5338
59.3915
58.2982
57.2406
56.22
55.2276
54.2563
53.3078
52.3924
51.5101
50.6654
49.8602
49.0939
48.363
47.6635
46.9904
46.3401
45.7089
45.094
44.4936
43.9048
43.3269
42.7586
42.2
41.6513
41.1124
40.5838
40.0643
39.5549
39.0555
38.5659
38.086
37.6156
37.155
36.7041
36.2632
35.8323
35.4115
35.0002
34.5978
34.2032
33.8156
33.434
33.0576
32.6858
32.3185
31.9553
31.5966
31.2431
30.8951
30.5535
30.2185
29.8908
29.5706
29.2585
28.9542
28.658
28.3695
28.0883
27.8141
27.5464
27.2847
27.0286
26.7774
26.531
26.2888
26.0507
25.8164
25.5857
25.3586
25.1351
24.915
24.6986
24.4859
24.2771
24.0722
23.8712
23.6746
23.4813
23.294
23.1076
22.9319
22.7486
22.5905
22.4005
22.274
22.0318
79.1531
78.1714
75.958
73.7344
71.7412
70.0638
68.5803
67.2718
66.0532
64.9298
63.8435
62.774
61.7196
60.6841
59.6774
58.7152
57.7612
56.8221
55.8871
54.9731
54.0725
53.2103
52.3896
51.611
50.8736
50.174
49.5071
48.8676
48.2494
47.6497
47.0629
46.4867
45.9202
45.3604
44.8076
44.261
43.7206
43.1874
42.6624
42.1474
41.6414
41.1444
40.656
40.1758
39.7036
39.2397
38.7843
38.3378
37.9008
37.4732
37.0551
36.6455
36.2435
35.848
35.4577
35.0716
34.6891
34.3097
33.9335
33.5615
33.1936
32.8303
32.4718
32.1192
31.7728
31.4335
31.1018
30.7782
30.4626
30.1552
29.8556
29.5633
29.278
28.999
28.7259
28.4581
28.1953
27.937
27.6829
27.4327
27.1863
26.9437
26.7047
26.4693
26.2377
26.0099
25.7859
25.5659
25.35
25.1381
24.9311
24.7273
24.53
24.3333
24.1482
23.9544
23.7879
23.5872
23.4522
23.195
53.1815
52.27
51.4613
51.1484
51.0014
51.1963
51.3194
51.4585
51.4088
51.4206
51.277
51.024
50.6831
50.3054
49.9161
49.5926
49.2297
48.8881
48.4472
47.9825
47.4597
46.9608
46.4677
46.006
45.5877
45.2052
44.848
44.5061
44.1708
43.8392
43.5046
43.1704
42.8312
42.4797
42.1225
41.7632
41.4028
41.0435
40.6826
40.3214
39.9644
39.6137
39.263
38.9123
38.5612
38.2115
37.8641
37.5204
37.182
36.8492
36.5221
36.1996
35.8799
35.5617
35.2432
34.9239
34.6026
34.2795
33.9559
33.6318
33.3078
32.9847
32.6633
32.3448
32.0302
31.7208
31.4175
31.1211
30.8317
30.5496
30.2743
30.0054
29.7424
29.4847
29.2317
28.9829
28.7378
28.4961
28.2575
28.0219
27.789
27.5591
27.3321
27.1081
26.8872
26.6697
26.4555
26.245
26.0382
25.8351
25.6364
25.4406
25.2511
25.0615
24.8837
24.6961
24.5357
24.3415
24.2088
23.9587
25.7612
25.2007
24.8629
24.9133
25.4373
25.9747
26.78
27.5218
28.2934
28.9813
29.5991
30.1167
30.5338
30.949
31.3492
31.9675
32.3086
32.9314
33.1094
33.2488
33.0815
33.2162
33.0794
32.9983
33.0306
33.1243
33.2474
33.3785
33.5033
33.6214
33.7126
33.8035
33.861
33.8601
33.8558
33.8428
33.8282
33.8254
33.7958
33.7483
33.6876
33.6503
33.5797
33.494
33.3941
33.285
33.1681
33.0462
32.9217
32.795
32.666
32.5329
32.3932
32.2468
32.0906
31.9262
31.7512
31.5667
31.3776
31.1828
30.9811
30.7732
30.5606
30.3452
30.1289
29.9135
29.7005
29.4913
29.2862
29.0856
28.889
28.6962
28.5062
28.3187
28.133
27.9486
27.7652
27.5826
27.4006
27.2194
27.0387
26.859
26.6801
26.5028
26.3266
26.1525
25.9799
25.8098
25.6418
25.4764
25.3138
25.1528
24.9964
24.839
24.6912
24.5339
24.3994
24.2362
24.1214
23.9082
14.9301
14.7758
14.4224
14.2043
14.2627
14.214
14.6708
14.6726
14.9939
15.0194
15.1651
15.195
15.1098
15.1202
15.1302
15.1613
15.2018
15.4472
15.5811
15.6155
16.0165
16.1406
16.0962
16.1162
16.3694
16.7333
17.1608
17.6201
18.0932
18.5732
19.0476
19.5186
19.98
20.4231
20.8501
21.2586
21.6533
22.0306
22.3895
22.7161
23.0205
23.3016
23.5573
23.7961
24.014
24.2175
24.4084
24.5894
24.7646
24.9314
25.0879
25.2314
25.3579
25.4688
25.5587
25.6329
25.6857
25.7184
25.7482
25.7653
25.7562
25.7289
25.6901
25.6421
25.5873
25.5283
25.4671
25.4055
25.3437
25.2822
25.2204
25.1578
25.0935
25.0271
24.9579
24.8858
24.8104
24.7321
24.6505
24.5664
24.4793
24.3904
24.299
24.2067
24.1123
24.0181
23.9223
23.8274
23.7311
23.6362
23.5414
23.4467
23.3538
23.2585
23.1678
23.0706
22.9851
22.8825
22.8026
22.6628
11.2785
11.064
10.8734
10.7478
10.6257
10.5094
10.3405
10.1423
9.87824
9.57492
9.19663
8.78492
8.34246
7.8908
7.47412
7.11412
6.85053
6.59154
6.40694
6.26965
6.16221
6.04364
5.95663
5.95563
5.96081
5.97985
6.0656
6.18969
6.34895
6.53746
6.74761
6.97822
7.23187
7.50072
7.79489
8.09842
8.4256
8.7594
9.1101
9.48265
9.87178
10.2802
10.6973
11.1293
11.5665
12.0128
12.4646
12.9215
13.3821
13.8409
14.2915
14.7294
15.1463
15.5435
15.9144
16.2624
16.5842
16.8813
17.1567
17.4093
17.6374
17.843
18.0286
18.1976
18.3526
18.497
18.6332
18.7626
18.8862
19.0052
19.1185
19.2265
19.3277
19.4225
19.5097
19.5902
19.6628
19.729
19.7872
19.8397
19.8844
19.9245
19.9572
19.9867
20.0089
20.0299
20.0434
20.0577
20.0651
20.0691
20.0677
20.0651
20.0665
20.0541
20.0465
20.0377
20.0233
20.0107
19.9798
19.9594
8.57238
8.30982
8.06189
7.81482
7.54959
7.24421
6.90333
6.52989
6.13142
5.71498
5.29242
4.87538
4.47655
4.10464
3.76859
3.46321
3.20419
2.98332
2.80589
2.65455
2.5338
2.43083
2.35206
2.28406
2.23493
2.1906
2.16275
2.14029
2.12858
2.13053
2.12621
2.13579
2.15576
2.18988
2.23656
2.29063
2.35488
2.42841
2.51117
2.60628
2.71183
2.83266
2.96523
3.11528
3.27957
3.4636
3.6633
3.88198
4.11781
4.37356
4.64378
4.93008
5.22386
5.52791
5.83412
6.14657
6.45817
6.77463
7.09595
7.42344
7.75338
8.08643
8.41883
8.75166
9.08148
9.40969
9.73316
10.053
10.3658
10.6733
10.9717
11.2627
11.5426
11.8138
12.0728
12.3226
12.5598
12.7873
12.9996
13.2038
13.3934
13.577
13.7466
13.9132
14.0658
14.2185
14.3567
14.4982
14.6239
14.756
14.8699
14.9938
15.0955
15.2124
15.3011
15.4121
15.4857
15.5967
15.6518
15.7692
4.49301
4.21582
3.95054
3.71319
3.50164
3.30642
3.12396
2.95583
2.79017
2.62263
2.4536
2.28585
2.12314
1.96875
1.82601
1.69656
1.58177
1.48113
1.39479
1.32036
1.25747
1.20366
1.15833
1.11905
1.08538
1.05569
1.02982
1.00662
0.987092
0.96972
0.953876
0.938514
0.9254
0.913949
0.904511
0.89845
0.89265
0.891507
0.890515
0.892278
0.895726
0.900796
0.908612
0.919694
0.931846
0.950718
0.972335
0.998695
1.02995
1.07227
1.12086
1.18071
1.24433
1.31774
1.39195
1.47501
1.55749
1.64976
1.74203
1.84661
1.95254
2.07317
2.19621
2.33552
2.47781
2.63728
2.79948
2.97898
3.15993
3.35771
3.55499
3.76834
3.97874
4.20444
4.42469
4.65959
4.88679
5.12937
5.36424
5.61445
5.85373
6.10895
6.3495
6.60716
6.84588
7.10376
7.33769
7.5939
7.81984
8.07289
8.28748
8.53654
8.73594
8.98097
9.16139
9.40319
9.55986
9.80087
9.9178
10.2134
1.71678
1.68752
1.66202
1.62835
1.59359
1.54494
1.48816
1.4384
1.38896
1.33426
1.2764
1.21715
1.15821
1.10113
1.04717
0.997208
0.951785
0.911031
0.874843
0.842859
0.814608
0.789563
0.767156
0.746961
0.728479
0.711486
0.695615
0.680796
0.666784
0.653622
0.641171
0.629437
0.618351
0.607971
0.598113
0.589053
0.580387
0.572498
0.565035
0.558156
0.551808
0.545842
0.540502
0.535432
0.530947
0.526978
0.523388
0.520685
0.51795
0.517319
0.515998
0.516652
0.518062
0.521423
0.524138
0.529803
0.533681
0.541424
0.546602
0.557018
0.564063
0.578035
0.58759
0.606336
0.619824
0.644696
0.662913
0.694242
0.717767
0.756742
0.786594
0.83432
0.871353
0.928963
0.974196
1.04296
1.09733
1.17861
1.24305
1.33855
1.41406
1.52548
1.6129
1.74157
1.84127
1.98797
2.0995
2.26455
2.38644
2.56976
2.69962
2.9008
3.03527
3.25331
3.38995
3.62187
3.75611
4.00283
4.11801
4.46356
1.17949
1.14549
1.10949
1.07443
1.03993
1.00467
0.97197
0.942214
0.913887
0.886116
0.858312
0.830244
0.802077
0.774232
0.7472
0.721449
0.697335
0.675062
0.654706
0.636214
0.619466
0.604276
0.590435
0.577748
0.566002
0.555069
0.544762
0.53504
0.52574
0.516902
0.508381
0.500286
0.492467
0.485062
0.47792
0.471194
0.464707
0.45863
0.45275
0.447261
0.441901
0.436903
0.431936
0.427293
0.422635
0.418235
0.413767
0.409539
0.405295
0.40153
0.397668
0.394393
0.390993
0.388348
0.385504
0.383384
0.381031
0.379277
0.377312
0.37576
0.374016
0.372636
0.371307
0.370144
0.369395
0.369172
0.368623
0.368912
0.369521
0.371247
0.37277
0.376203
0.378411
0.383196
0.386116
0.392319
0.395923
0.40345
0.407857
0.41691
0.422524
0.433722
0.440856
0.455474
0.46473
0.484374
0.496638
0.522727
0.538904
0.573165
0.593963
0.638145
0.664143
0.720153
0.752846
0.82003
0.857034
0.939725
0.97712
1.11537
0.869481
0.852616
0.834793
0.815972
0.796455
0.776425
0.755904
0.734919
0.713785
0.692804
0.672432
0.652976
0.634759
0.617854
0.60233
0.588039
0.574893
0.562664
0.551243
0.540422
0.530126
0.520225
0.510715
0.501534
0.492712
0.484211
0.476062
0.468237
0.460746
0.453571
0.446697
0.440122
0.433802
0.427756
0.421917
0.416331
0.410907
0.405719
0.400656
0.395823
0.39109
0.386587
0.382165
0.377974
0.373849
0.369947
0.366096
0.362456
0.358848
0.355436
0.352034
0.348821
0.345597
0.342563
0.3395
0.336628
0.333714
0.330995
0.328219
0.325645
0.322996
0.320563
0.31803
0.315741
0.313308
0.311196
0.308902
0.306957
0.304818
0.303067
0.301108
0.29954
0.297758
0.296354
0.294748
0.293496
0.292059
0.290945
0.289685
0.288697
0.287679
0.286761
0.28616
0.28525
0.285216
0.285208
0.285144
0.286245
0.286624
0.287714
0.288356
0.290489
0.291982
0.295827
0.298221
0.303836
0.3073
0.314894
0.318286
0.334127
0.684383
0.673544
0.662105
0.650069
0.637699
0.625129
0.612514
0.599816
0.587089
0.574272
0.561466
0.54868
0.536112
0.523828
0.512057
0.500832
0.49032
0.480459
0.471324
0.462764
0.454804
0.447268
0.440185
0.4334
0.426966
0.420758
0.414846
0.409121
0.403664
0.398369
0.393319
0.388405
0.383709
0.379121
0.374725
0.370411
0.366266
0.362181
0.358253
0.354373
0.350649
0.346968
0.343449
0.339973
0.336664
0.333395
0.330294
0.327224
0.324316
0.321426
0.318686
0.315952
0.313356
0.310755
0.308281
0.305798
0.303429
0.301052
0.298778
0.296499
0.294311
0.292123
0.290019
0.287913
0.285892
0.283866
0.281925
0.279974
0.278114
0.276243
0.274464
0.272678
0.270982
0.26928
0.267665
0.266043
0.264505
0.262945
0.261482
0.259963
0.258551
0.257069
0.255677
0.25417
0.252795
0.251401
0.250033
0.248675
0.247369
0.245966
0.244666
0.24323
0.242002
0.240569
0.239615
0.238233
0.237127
0.236423
0.235455
0.23483
0.571021
0.564447
0.557299
0.549549
0.541374
0.532834
0.52408
0.51515
0.506193
0.497238
0.488424
0.479756
0.471349
0.463169
0.455302
0.447677
0.440366
0.433274
0.426473
0.419865
0.413543
0.407405
0.401552
0.395874
0.390474
0.385227
0.380246
0.375393
0.370787
0.366283
0.36201
0.357819
0.353845
0.349934
0.34623
0.34257
0.339108
0.335673
0.332426
0.329187
0.326128
0.323059
0.320165
0.317244
0.314494
0.311701
0.309079
0.306401
0.303898
0.301325
0.298931
0.296456
0.294165
0.291784
0.28959
0.287296
0.285195
0.282984
0.28097
0.278836
0.276904
0.274841
0.272988
0.270991
0.269211
0.267274
0.265564
0.263682
0.262038
0.260207
0.258626
0.256843
0.255322
0.253582
0.25212
0.250419
0.249014
0.247348
0.245999
0.244364
0.243067
0.241461
0.240215
0.238632
0.237435
0.235876
0.234727
0.233186
0.232087
0.23056
0.229512
0.227996
0.226995
0.225485
0.224558
0.223057
0.222169
0.220709
0.219757
0.21812
0.499764
0.495089
0.489906
0.484261
0.478319
0.472125
0.465799
0.459336
0.452832
0.446263
0.439728
0.4332
0.426781
0.420442
0.414284
0.408263
0.402467
0.396827
0.391425
0.386173
0.381153
0.376265
0.371597
0.367041
0.362691
0.358433
0.35437
0.350378
0.346569
0.342814
0.339232
0.335689
0.332313
0.328962
0.325777
0.322607
0.319601
0.3166
0.313762
0.310916
0.308232
0.305526
0.302979
0.300395
0.29797
0.295493
0.293175
0.290791
0.288568
0.286266
0.284131
0.281904
0.279852
0.277696
0.275722
0.273634
0.271736
0.269713
0.267887
0.265925
0.264168
0.262263
0.260572
0.25872
0.257091
0.255289
0.253718
0.251961
0.250448
0.248731
0.247273
0.245593
0.244188
0.242543
0.24119
0.239576
0.238274
0.236688
0.235437
0.233875
0.232673
0.231134
0.22998
0.228462
0.227354
0.225856
0.224793
0.223313
0.222293
0.220827
0.219853
0.218395
0.217464
0.216007
0.215138
0.213683
0.212846
0.211427
0.210504
0.208903
0.45455
0.451011
0.447068
0.442718
0.438093
0.433219
0.428211
0.423062
0.417878
0.412641
0.407448
0.402265
0.39718
0.392143
0.387237
0.3824
0.377714
0.373104
0.368657
0.364288
0.360085
0.355956
0.351993
0.348095
0.344358
0.340677
0.337152
0.33367
0.33034
0.327042
0.323892
0.320762
0.317776
0.314801
0.311965
0.30913
0.306433
0.303726
0.301155
0.298565
0.296111
0.293627
0.291281
0.288896
0.286649
0.284354
0.282201
0.279988
0.277921
0.275784
0.273796
0.271728
0.269816
0.267811
0.265968
0.264022
0.262244
0.260354
0.258637
0.256798
0.25514
0.253349
0.251746
0.250001
0.248452
0.246749
0.245253
0.243589
0.242144
0.240516
0.239122
0.237527
0.236183
0.234619
0.233324
0.231788
0.230542
0.229031
0.227832
0.226344
0.225192
0.223726
0.222616
0.221174
0.2201
0.218685
0.217644
0.216253
0.215249
0.213872
0.212912
0.211539
0.210633
0.209245
0.208417
0.207006
0.206201
0.204847
0.204246
0.202211
0.425009
0.422
0.418678
0.415022
0.41116
0.4071
0.402946
0.398675
0.394379
0.390021
0.385688
0.381331
0.377038
0.37275
0.368555
0.364389
0.360339
0.356331
0.352455
0.348626
0.344936
0.341293
0.337791
0.334329
0.331006
0.327714
0.32456
0.321427
0.318428
0.315441
0.312587
0.309737
0.307016
0.304291
0.301695
0.299087
0.296606
0.294105
0.291731
0.289329
0.287055
0.284744
0.282561
0.280334
0.278236
0.276087
0.274069
0.271991
0.270047
0.268035
0.26616
0.26421
0.2624
0.260505
0.258756
0.256914
0.255223
0.253428
0.251792
0.250043
0.24846
0.246752
0.245221
0.243552
0.242071
0.240439
0.239006
0.237409
0.236024
0.234459
0.233122
0.231586
0.230297
0.228787
0.227545
0.22606
0.224864
0.223402
0.222248
0.220811
0.219696
0.218283
0.217207
0.215814
0.214778
0.213399
0.212406
0.21104
0.210085
0.208738
0.207811
0.206487
0.205584
0.204288
0.203396
0.202131
0.201307
0.200003
0.199133
0.197666
0.405026
0.402319
0.399379
0.396155
0.392758
0.389181
0.385524
0.381753
0.37796
0.374105
0.370276
0.36642
0.362626
0.35883
0.355119
0.351423
0.347828
0.344254
0.340792
0.337354
0.334033
0.330734
0.327555
0.324394
0.321355
0.318328
0.315424
0.312524
0.309747
0.306968
0.304313
0.301648
0.299106
0.296547
0.294112
0.291654
0.28932
0.286955
0.284715
0.282437
0.280286
0.278089
0.27602
0.273898
0.271906
0.269853
0.267934
0.265943
0.264091
0.262159
0.260371
0.258494
0.256765
0.254939
0.253266
0.251488
0.249869
0.248136
0.246569
0.244878
0.24336
0.241709
0.240239
0.238625
0.237202
0.235622
0.234245
0.232698
0.231365
0.229847
0.228559
0.227069
0.225825
0.224359
0.22316
0.221716
0.22056
0.219137
0.218021
0.216621
0.215542
0.214163
0.213121
0.211761
0.210757
0.209411
0.208446
0.207114
0.206184
0.20487
0.203968
0.202675
0.201798
0.20053
0.199666
0.198425
0.197627
0.196357
0.195504
0.194068
0.390912
0.388373
0.385644
0.382671
0.37956
0.376293
0.372964
0.369534
0.36609
0.362586
0.359106
0.355594
0.352134
0.348661
0.345262
0.341863
0.338554
0.335252
0.33205
0.32886
0.325778
0.322706
0.319746
0.316793
0.313954
0.311117
0.308395
0.305669
0.303059
0.300438
0.297934
0.295413
0.293009
0.290582
0.288273
0.285934
0.283715
0.281458
0.279324
0.277145
0.275091
0.272984
0.271006
0.268966
0.267058
0.26508
0.263239
0.261318
0.259539
0.25767
0.255951
0.254131
0.252468
0.250694
0.249083
0.247353
0.245793
0.244105
0.242592
0.240944
0.239477
0.237867
0.236444
0.234869
0.23349
0.231948
0.230611
0.2291
0.227806
0.226323
0.22507
0.223614
0.222403
0.22097
0.2198
0.218389
0.21726
0.215868
0.214781
0.213406
0.212358
0.211001
0.209989
0.208652
0.207671
0.206357
0.205403
0.20411
0.203188
0.201906
0.201024
0.199745
0.198911
0.197616
0.196855
0.195537
0.194793
0.193533
0.192973
0.191084
0.380563
0.378126
0.375532
0.372726
0.369805
0.366746
0.363634
0.360428
0.357211
0.353935
0.350684
0.347399
0.344165
0.340916
0.337737
0.334554
0.331456
0.328359
0.325356
0.322358
0.319459
0.316562
0.313769
0.310976
0.308288
0.305595
0.30301
0.300414
0.297927
0.295424
0.293032
0.290618
0.288316
0.285985
0.283769
0.281518
0.279383
0.277207
0.27515
0.273044
0.271061
0.269021
0.267108
0.26513
0.263282
0.261362
0.259576
0.257709
0.255982
0.254165
0.252493
0.250722
0.249104
0.247377
0.245809
0.244122
0.242603
0.240955
0.239482
0.23787
0.236442
0.234865
0.23348
0.231936
0.230593
0.229079
0.227778
0.226293
0.225033
0.223574
0.222354
0.22092
0.21974
0.21833
0.217188
0.215799
0.214696
0.213327
0.212263
0.210911
0.209884
0.208549
0.207559
0.206239
0.205285
0.20398
0.203061
0.201769
0.200884
0.199603
0.198754
0.197484
0.196666
0.195401
0.194634
0.193374
0.192634
0.191403
0.190582
0.189184
0.372808
0.370427
0.367913
0.365214
0.36242
0.359502
0.356543
0.353496
0.350446
0.347339
0.344258
0.341144
0.338079
0.334995
0.331979
0.328954
0.326007
0.323058
0.320196
0.317333
0.314564
0.311793
0.30912
0.306441
0.303864
0.301277
0.298794
0.296296
0.293904
0.291491
0.289185
0.286853
0.284631
0.282376
0.280233
0.278051
0.275984
0.273871
0.271876
0.269829
0.267902
0.265917
0.264056
0.262128
0.260329
0.258455
0.256714
0.25489
0.253205
0.251428
0.249795
0.248063
0.24648
0.244788
0.243254
0.241601
0.240113
0.238497
0.237053
0.235472
0.234072
0.232522
0.231164
0.229646
0.228329
0.22684
0.225563
0.224101
0.222863
0.221427
0.220228
0.218816
0.217655
0.216266
0.215143
0.213774
0.212689
0.211339
0.210291
0.208958
0.207947
0.20663
0.205655
0.204352
0.203413
0.202123
0.201219
0.199941
0.199072
0.197805
0.196969
0.195713
0.194909
0.193657
0.192902
0.191657
0.190929
0.18971
0.188904
0.187519
0.366919
0.364564
0.362099
0.35947
0.356764
0.353945
0.351093
0.34816
0.345227
0.34224
0.33928
0.336286
0.33334
0.330375
0.327475
0.324564
0.32173
0.318889
0.316134
0.313373
0.310704
0.308029
0.305449
0.302859
0.300368
0.297864
0.29546
0.293037
0.290718
0.288374
0.286136
0.283867
0.281707
0.27951
0.277423
0.275295
0.27328
0.271216
0.269269
0.267267
0.265384
0.263441
0.26162
0.259731
0.25797
0.256132
0.254426
0.252636
0.250984
0.249238
0.247636
0.245933
0.244379
0.242715
0.241207
0.239581
0.238118
0.236527
0.235107
0.233549
0.232171
0.230645
0.229308
0.227811
0.226514
0.225046
0.223787
0.222346
0.221125
0.219709
0.218527
0.217133
0.215988
0.214617
0.213509
0.212157
0.211086
0.209752
0.208718
0.207401
0.206402
0.205101
0.204137
0.20285
0.20192
0.200647
0.199752
0.198489
0.197629
0.196375
0.195551
0.194303
0.193518
0.192274
0.191514
0.190287
0.189586
0.188338
0.187791
0.185969
0.36236
0.360015
0.357576
0.35499
0.352342
0.34959
0.346813
0.343961
0.341113
0.338213
0.335343
0.33244
0.329585
0.32671
0.3239
0.321076
0.318328
0.31557
0.312896
0.310214
0.307621
0.305019
0.30251
0.299989
0.297564
0.295123
0.292781
0.290417
0.288155
0.285866
0.283681
0.281464
0.279353
0.277203
0.275162
0.273077
0.271104
0.269081
0.267173
0.265208
0.263362
0.261452
0.259666
0.257808
0.256078
0.254269
0.252593
0.25083
0.249205
0.247484
0.245908
0.244228
0.242697
0.241055
0.23957
0.237964
0.236521
0.234949
0.233548
0.232009
0.230649
0.22914
0.227819
0.226339
0.225057
0.223605
0.222361
0.220934
0.219728
0.218325
0.217156
0.215776
0.214643
0.213285
0.212188
0.210849
0.209788
0.208467
0.207442
0.206137
0.205147
0.203858
0.202903
0.201627
0.200706
0.199443
0.198555
0.197304
0.196451
0.195208
0.19439
0.193153
0.192373
0.191141
0.190386
0.18917
0.188474
0.187237
0.186695
0.184884
0.358756
0.356411
0.353983
0.351426
0.348816
0.346112
0.343389
0.340597
0.337812
0.33498
0.332178
0.329345
0.326562
0.323759
0.321019
0.318266
0.315587
0.312897
0.310288
0.30767
0.305139
0.302597
0.300146
0.29768
0.295309
0.292919
0.290627
0.288311
0.286095
0.28385
0.281707
0.279529
0.277457
0.275344
0.273339
0.271288
0.269348
0.267355
0.265477
0.26354
0.261722
0.259838
0.258076
0.256242
0.254535
0.252747
0.251092
0.249348
0.247742
0.246039
0.244481
0.242816
0.241303
0.239675
0.238206
0.236613
0.235185
0.233626
0.23224
0.230711
0.229365
0.227867
0.22656
0.22509
0.223821
0.222378
0.221147
0.21973
0.218536
0.217142
0.215985
0.214613
0.213492
0.212141
0.211056
0.209725
0.208674
0.207361
0.206346
0.205048
0.204068
0.202786
0.201839
0.200571
0.199658
0.198402
0.197523
0.196278
0.195433
0.194196
0.193386
0.192155
0.191383
0.190157
0.189408
0.188199
0.187509
0.186281
0.185743
0.183944
0.355985
0.353629
0.351202
0.34866
0.346074
0.343404
0.340719
0.337973
0.335235
0.332455
0.329705
0.326927
0.324198
0.32145
0.318763
0.316064
0.313436
0.310797
0.308237
0.305667
0.30318
0.300681
0.29827
0.295844
0.293509
0.291155
0.288895
0.286611
0.284423
0.282206
0.280089
0.277937
0.275887
0.273797
0.271813
0.269782
0.26786
0.265886
0.264024
0.262104
0.260301
0.258432
0.256684
0.254864
0.25317
0.251395
0.249752
0.24802
0.246425
0.244734
0.243186
0.241533
0.240029
0.238413
0.236953
0.235371
0.233953
0.232404
0.231028
0.22951
0.228173
0.226684
0.225387
0.223926
0.222667
0.221233
0.220012
0.218603
0.217418
0.216033
0.214885
0.213522
0.21241
0.211067
0.209991
0.208667
0.207626
0.20632
0.205314
0.204024
0.203053
0.201778
0.200839
0.199579
0.198674
0.197425
0.196554
0.195316
0.194478
0.193249
0.192446
0.191223
0.190457
0.189239
0.188496
0.187295
0.186611
0.18539
0.184855
0.183072
0.353942
0.351567
0.34913
0.346591
0.344015
0.341363
0.338699
0.335979
0.333268
0.330518
0.327797
0.325052
0.322351
0.319633
0.316973
0.314302
0.311697
0.309084
0.306544
0.303995
0.301525
0.299045
0.296647
0.294235
0.29191
0.289567
0.287314
0.285039
0.282856
0.280648
0.278535
0.276391
0.274347
0.272266
0.270288
0.268268
0.266353
0.26439
0.262536
0.260628
0.258833
0.256977
0.255236
0.253428
0.25174
0.249978
0.248341
0.246623
0.245035
0.243358
0.241818
0.240181
0.238686
0.237086
0.235635
0.23407
0.232662
0.23113
0.229764
0.228263
0.226938
0.225465
0.22418
0.222735
0.221488
0.22007
0.218861
0.217467
0.216296
0.214925
0.21379
0.21244
0.211341
0.210012
0.208948
0.207638
0.206608
0.205315
0.20432
0.203043
0.202082
0.20082
0.199891
0.198643
0.197747
0.196511
0.195648
0.194422
0.193593
0.192375
0.19158
0.190368
0.18961
0.188403
0.187668
0.186476
0.185798
0.18459
0.18406
0.18229
0.352328
0.349933
0.347484
0.34494
0.342364
0.339716
0.337055
0.334338
0.331626
0.328875
0.326147
0.323393
0.320678
0.317946
0.315267
0.312578
0.309952
0.307321
0.304761
0.302199
0.299708
0.297206
0.294785
0.292354
0.290011
0.287657
0.285395
0.283119
0.280938
0.278738
0.276636
0.27451
0.272483
0.270427
0.268471
0.266481
0.264592
0.262663
0.260837
0.258965
0.2572
0.255381
0.253675
0.251907
0.250255
0.248533
0.246932
0.245253
0.2437
0.24206
0.240552
0.23895
0.237485
0.235918
0.234495
0.232961
0.231577
0.230075
0.228729
0.227257
0.225949
0.224505
0.223234
0.221816
0.220581
0.219189
0.21799
0.21662
0.215458
0.21411
0.212983
0.211654
0.210563
0.209252
0.208197
0.206902
0.205882
0.204603
0.203617
0.202353
0.201399
0.20015
0.199227
0.197993
0.197102
0.195878
0.195021
0.193806
0.192983
0.191777
0.190984
0.189787
0.189027
0.187837
0.1871
0.185925
0.185248
0.184046
0.183523
0.181776
0.351086
0.348628
0.3461
0.343498
0.340843
0.338094
0.335321
0.332479
0.329645
0.326769
0.323929
0.321068
0.318267
0.315461
0.312729
0.310002
0.30736
0.304725
0.302182
0.299645
0.297208
0.294781
0.292451
0.290121
0.287887
0.285644
0.283494
0.281328
0.279253
0.277157
0.275152
0.273118
0.271177
0.269201
0.26732
0.265398
0.263573
0.261703
0.259931
0.258109
0.256389
0.254611
0.252941
0.251206
0.249584
0.24789
0.246314
0.244657
0.243125
0.241504
0.240015
0.238429
0.23698
0.235427
0.234017
0.232496
0.231123
0.229633
0.228297
0.226836
0.225535
0.224103
0.222837
0.221431
0.2202
0.218819
0.217622
0.216265
0.215103
0.213767
0.212639
0.211323
0.210231
0.208931
0.207875
0.206591
0.20557
0.2043
0.203313
0.202059
0.201103
0.199865
0.198938
0.197716
0.196819
0.195609
0.194744
0.193545
0.19271
0.191524
0.190714
0.189545
0.188757
0.187606
0.186831
0.185703
0.184984
0.183836
0.183063
0.181759
0.347468
0.344802
0.342148
0.339424
0.336728
0.334011
0.331329
0.328632
0.325979
0.323316
0.320706
0.31809
0.315535
0.312976
0.310484
0.307988
0.305562
0.303131
0.300775
0.298411
0.296123
0.293824
0.291604
0.289369
0.287215
0.28504
0.282949
0.280833
0.278802
0.276742
0.274769
0.272764
0.270847
0.268893
0.26703
0.265126
0.263315
0.261458
0.259699
0.257887
0.256177
0.254409
0.252747
0.251021
0.249405
0.247717
0.246148
0.244496
0.242971
0.241354
0.23987
0.238287
0.236844
0.235293
0.233889
0.23237
0.231002
0.229513
0.228181
0.226723
0.225424
0.223995
0.22273
0.221328
0.220097
0.21872
0.217523
0.21617
0.215007
0.213675
0.212546
0.211234
0.21014
0.208846
0.207786
0.206508
0.205484
0.204219
0.20323
0.201979
0.201023
0.199785
0.19886
0.197639
0.196739
0.195539
0.194661
0.193479
0.192629
0.191455
0.190642
0.189467
0.188699
0.187508
0.186805
0.185594
0.184906
0.18375
0.183237
0.18149
0.501699
0.518901
0.547241
0.562564
0.616906
0.649951
0.720489
0.866009
1.03095
1.72533
0.467691
0.473621
0.496184
0.507918
0.538531
0.580424
0.610753
0.69991
0.778219
1.20075
0.442647
0.44668
0.457093
0.472309
0.483466
0.51843
0.538782
0.59805
0.640238
0.880377
0.425134
0.430723
0.43396
0.445317
0.451685
0.473073
0.48651
0.52678
0.55278
0.689526
0.413262
0.417315
0.419178
0.426484
0.430436
0.443631
0.451862
0.477286
0.493771
0.573771
0.403556
0.40622
0.407367
0.412348
0.414879
0.423493
0.428571
0.444299
0.454449
0.501718
0.396188
0.397534
0.398198
0.40135
0.402975
0.408639
0.411856
0.421799
0.428005
0.456031
0.390317
0.390802
0.391096
0.392894
0.393866
0.397438
0.399454
0.405766
0.409576
0.42627
0.385407
0.385345
0.385315
0.386183
0.386658
0.388782
0.389974
0.393906
0.396221
0.406322
0.381595
0.381046
0.380675
0.380807
0.3809
0.38194
0.382541
0.384825
0.386162
0.392382
0.378558
0.377669
0.376962
0.376541
0.376338
0.376537
0.376694
0.377761
0.378413
0.382206
0.376077
0.37501
0.37399
0.373278
0.372637
0.372288
0.37211
0.37227
0.372422
0.374558
0.374124
0.372753
0.371649
0.370564
0.369754
0.368954
0.368409
0.367968
0.367722
0.368676
0.372493
0.371018
0.36967
0.368492
0.367308
0.366424
0.36535
0.364784
0.363752
0.364135
0.371167
0.369705
0.368069
0.366885
0.365359
0.364416
0.362962
0.362227
0.360614
0.360557
0.37012
0.368724
0.366829
0.36567
0.363865
0.362879
0.361134
0.360264
0.358501
0.357821
0.369297
0.367909
0.365871
0.364662
0.36274
0.361626
0.359784
0.3587
0.356926
0.355817
0.368721
0.367176
0.365178
0.363765
0.361897
0.360537
0.358748
0.357384
0.355639
0.354241
0.368394
0.366712
0.364729
0.363159
0.361296
0.359771
0.357968
0.356437
0.354648
0.353083
0.36703
0.365017
0.362915
0.361023
0.359019
0.357198
0.355237
0.353444
0.351485
0.349687
0.499195
0.536569
0.589652
0.687013
0.843897
1.12681
1.81877
4.40973
21.8562
16.4842
0.500296
0.537072
0.592629
0.695679
0.870579
1.11807
1.77164
4.35036
22.1007
16.0876
0.502603
0.538356
0.598325
0.70256
0.869202
1.18336
1.91987
4.71865
22.511
16.476
0.502463
0.535957
0.598838
0.716152
0.902183
1.18099