/*--------------------------------*- C++ -*----------------------------------*\
  =========                 |
  \\      /  F ield         | OpenFOAM: The Open Source CFD Toolbox
   \\    /   O peration     | Website:  https://openfoam.org
    \\  /    A nd           | Version:  8
     \\/     M anipulation  |
\*---------------------------------------------------------------------------*/
FoamFile
{
    version     2.0;
    format      ascii;
    class       volScalarField;
    location    "0.999962";
    object      nut;
}
// * * * * * * * * * * * * * * * * * * * * * * * * * * * * * * * * * * * * * //

dimensions      [0 2 -1 0 0 0 0];

internalField   nonuniform List<scalar> 
6800
(
0.0106021
0.0282144
0.0327812
0.0372443
0.041527
0.0437041
0.0381187
0.0346805
0.0213199
0.0157997
0.0091468
0.028096
0.0347023
0.038889
0.0459949
0.0413353
0.0307092
0.0196325
0.0146547
0.0128083
0.0114623
0.0316492
0.0361534
0.0431837
0.0458045
0.0313702
0.0193404
0.0151241
0.0133871
0.0123239
0.0127101
0.0342118
0.0389784
0.046881
0.0375107
0.0231194
0.0182243
0.0155755
0.0127934
0.0110693
0.0138156
0.0358717
0.0411562
0.0472356
0.0280162
0.0196002
0.0145865
0.0115766
0.0100663
0.00952304
0.0147235
0.0378227
0.0453461
0.0411722
0.0247797
0.0164871
0.0130729
0.0117445
0.0107564
0.00994292
0.0155429
0.0422433
0.0503531
0.0314934
0.017234
0.0135267
0.0125436
0.0110117
0.00948513
0.00866705
0.0163831
0.0468347
0.0490607
0.0244323
0.0195471
0.0153463
0.0121541
0.0102569
0.00913575
0.00866292
0.0171074
0.0535384
0.0454675
0.0246008
0.0144067
0.0121459
0.011257
0.00986632
0.00888183
0.00839906
0.0179841
0.0591806
0.0417618
0.0190784
0.0167847
0.0140348
0.0112401
0.0093523
0.00854998
0.00814335
0.0586012
0.250243
0.346402
0.373321
0.380326
0.381206
0.384679
0.390245
0.396509
0.399189
0.0562586
0.241265
0.334993
0.362349
0.366885
0.364451
0.364226
0.366275
0.369096
0.371184
0.0520051
0.221969
0.311472
0.341153
0.342743
0.337943
0.334513
0.331441
0.328171
0.327811
0.046953
0.199921
0.283801
0.311754
0.310551
0.304543
0.294785
0.287174
0.275937
0.258824
0.0416601
0.178024
0.254789
0.272075
0.265752
0.253972
0.238742
0.219512
0.200025
0.15139
0.0370247
0.158819
0.216399
0.217916
0.202651
0.186991
0.161699
0.11531
0.0909939
0.0640972
0.0331171
0.134746
0.167796
0.150243
0.130556
0.0922149
0.0639123
0.052828
0.0494789
0.0423117
0.0311462
0.105961
0.0980497
0.0789501
0.0534344
0.0467405
0.0434963
0.0406664
0.0400805
0.0367946
0.0269548
0.0567926
0.0443342
0.0414714
0.0404311
0.0404171
0.0400225
0.0382865
0.0372483
0.0343522
0.0196825
0.0309803
0.0334957
0.0367313
0.039526
0.0404068
0.0407688
0.0362662
0.0379067
0.0248436
0.400913
0.401757
0.399141
0.395828
0.392688
0.389964
0.387613
0.38564
0.384023
0.382673
0.38152
0.380458
0.379448
0.378471
0.377506
0.376578
0.375765
0.374991
0.374269
0.373565
0.372853
0.372162
0.371491
0.370871
0.370323
0.369869
0.369512
0.369246
0.369063
0.368944
0.368877
0.368849
0.368852
0.368873
0.368903
0.368933
0.368958
0.368972
0.368977
0.368966
0.368943
0.368912
0.368874
0.368829
0.368778
0.36872
0.368656
0.368586
0.368514
0.368441
0.368369
0.368296
0.368224
0.368147
0.368063
0.367964
0.367846
0.367704
0.367534
0.367335
0.367108
0.366855
0.366579
0.366287
0.365983
0.365674
0.365365
0.365063
0.364769
0.364489
0.364223
0.363972
0.363736
0.363513
0.363301
0.363098
0.362901
0.362708
0.362517
0.362326
0.362132
0.361936
0.361736
0.361534
0.361327
0.361123
0.360912
0.360714
0.360504
0.360324
0.360118
0.359974
0.359769
0.359683
0.359473
0.359458
0.35924
0.359329
0.358893
0.359593
0.37315
0.373896
0.37235
0.369958
0.367635
0.365714
0.364195
0.363053
0.362197
0.361541
0.361027
0.360522
0.360034
0.359562
0.359076
0.358604
0.358185
0.357808
0.357471
0.357148
0.356814
0.356506
0.356225
0.355998
0.355835
0.35575
0.355743
0.355808
0.355935
0.356105
0.356317
0.356563
0.356833
0.357111
0.357388
0.357652
0.3579
0.358127
0.358337
0.358525
0.358707
0.358879
0.359039
0.359186
0.35932
0.359441
0.359551
0.359652
0.359747
0.359837
0.359923
0.360004
0.360078
0.360142
0.360189
0.360211
0.360206
0.360166
0.360094
0.359986
0.359844
0.359672
0.359476
0.359264
0.359039
0.358812
0.358584
0.358365
0.358156
0.357961
0.357781
0.357616
0.357466
0.357328
0.3572
0.357079
0.356963
0.35685
0.356737
0.356622
0.356502
0.35638
0.356251
0.35612
0.355983
0.355848
0.355705
0.355576
0.355433
0.355321
0.35518
0.355104
0.35496
0.354943
0.354791
0.354846
0.35468
0.354848
0.354433
0.355254
0.332843
0.33134
0.329048
0.326487
0.324238
0.322809
0.322032
0.321782
0.321868
0.322178
0.322606
0.323115
0.32364
0.324253
0.324958
0.325723
0.326466
0.327224
0.327963
0.328597
0.329132
0.329663
0.33017
0.330702
0.331293
0.331957
0.332686
0.333463
0.334269
0.335081
0.335926
0.336788
0.337639
0.338449
0.339216
0.339929
0.340595
0.341219
0.341804
0.342357
0.342861
0.343335
0.34378
0.344199
0.344591
0.344959
0.345307
0.345637
0.345958
0.34627
0.346578
0.346879
0.347169
0.347443
0.347686
0.347887
0.348048
0.348165
0.348241
0.348266
0.348251
0.348202
0.348124
0.348027
0.347915
0.347798
0.34768
0.34757
0.347474
0.347394
0.347333
0.347289
0.347261
0.347246
0.34724
0.347241
0.347244
0.347248
0.347248
0.347244
0.347234
0.347218
0.347193
0.347166
0.347129
0.347095
0.347053
0.347026
0.346982
0.346974
0.346929
0.346958
0.346907
0.346996
0.346933
0.347095
0.347008
0.347298
0.346913
0.347942
0.261027
0.262497
0.264877
0.266568
0.268228
0.270624
0.273074
0.275735
0.278184
0.280768
0.283163
0.285302
0.287224
0.288986
0.290683
0.292463
0.294045
0.29548
0.296713
0.297858
0.298802
0.29977
0.300787
0.30187
0.303028
0.304259
0.305544
0.306866
0.308188
0.309532
0.310773
0.311924
0.313019
0.314042
0.315012
0.315927
0.316782
0.317594
0.318377
0.319153
0.319908
0.320645
0.321357
0.322045
0.322707
0.323346
0.323966
0.324572
0.325174
0.32577
0.326365
0.32695
0.327522
0.328066
0.328585
0.32907
0.329515
0.329912
0.330263
0.330583
0.330864
0.331106
0.33131
0.331485
0.331636
0.331775
0.331905
0.332045
0.332201
0.332373
0.33256
0.332759
0.332967
0.333181
0.333397
0.333612
0.333822
0.334026
0.334221
0.334406
0.334578
0.334741
0.334891
0.335036
0.335167
0.3353
0.335416
0.335547
0.335653
0.335799
0.335897
0.336077
0.336163
0.3364
0.336463
0.336771
0.336798
0.33725
0.336896
0.338189
0.151495
0.15427
0.157713
0.163037
0.168569
0.175731
0.182142
0.188815
0.194192
0.20033
0.205549
0.210127
0.214166
0.217954
0.221593
0.225748
0.22959
0.233679
0.23687
0.239765
0.241892
0.243988
0.245848
0.247759
0.249886
0.2522
0.254635
0.257123
0.259611
0.262068
0.264478
0.266863
0.269155
0.271264
0.273267
0.275202
0.277077
0.278915
0.280674
0.282357
0.284029
0.285712
0.287324
0.288866
0.290332
0.291735
0.293087
0.2944
0.295697
0.29698
0.298251
0.299494
0.300697
0.30185
0.302938
0.30396
0.304904
0.305774
0.306582
0.307323
0.307997
0.308605
0.30915
0.309642
0.310091
0.310511
0.31092
0.31132
0.311712
0.31211
0.312518
0.312938
0.313367
0.313803
0.314241
0.314676
0.315105
0.315526
0.315934
0.316331
0.316712
0.317084
0.317439
0.317791
0.318125
0.318466
0.318785
0.319126
0.319435
0.319793
0.320093
0.320487
0.32077
0.321226
0.321489
0.322019
0.322228
0.322919
0.322671
0.324313
0.0666962
0.0701269
0.0729679
0.0768281
0.0821248
0.0870566
0.0934169
0.0993966
0.10576
0.111916
0.117872
0.123421
0.128564
0.133906
0.1391
0.146094
0.151139
0.159032
0.163553
0.167656
0.16882
0.172805
0.173807
0.175278
0.177881
0.181098
0.184639
0.188327
0.192036
0.195771
0.199334
0.203002
0.206415
0.209257
0.212176
0.215087
0.21807
0.221305
0.224287
0.227097
0.22979
0.232846
0.235544
0.238136
0.240593
0.24296
0.245262
0.247514
0.249761
0.251989
0.254187
0.256328
0.258391
0.260381
0.262268
0.264076
0.265773
0.267362
0.268914
0.270393
0.271763
0.273018
0.274168
0.27523
0.276219
0.277161
0.278073
0.278979
0.27989
0.280813
0.281748
0.282691
0.283638
0.284581
0.285515
0.286435
0.287336
0.288218
0.289074
0.289911
0.290721
0.291515
0.29228
0.293039
0.293767
0.294502
0.2952
0.295924
0.296598
0.297329
0.29798
0.298726
0.299337
0.300128
0.30069
0.301542
0.302014
0.303042
0.302982
0.305028
0.0426615
0.0449498
0.0453595
0.0464222
0.0486023
0.0500124
0.0546005
0.056132
0.0602052
0.0621618
0.0654027
0.0679089
0.069468
0.0718612
0.0740443
0.0763
0.0785448
0.0826899
0.0859186
0.087387
0.093457
0.0948077
0.0943525
0.094645
0.0975672
0.10104
0.104903
0.108976
0.113131
0.117353
0.121562
0.125789
0.130008
0.134132
0.138204
0.142202
0.146189
0.150125
0.154025
0.157636
0.161215
0.16456
0.167927
0.171556
0.174793
0.178052
0.181294
0.184544
0.187881
0.191214
0.194498
0.197701
0.200793
0.203804
0.206677
0.209475
0.212129
0.214621
0.217197
0.219705
0.221887
0.223858
0.225708
0.227452
0.229113
0.230719
0.232305
0.233877
0.235457
0.237053
0.238659
0.24027
0.241872
0.24346
0.245021
0.246557
0.248058
0.249531
0.250964
0.252371
0.253734
0.255079
0.256377
0.257669
0.258909
0.260164
0.261356
0.262587
0.263734
0.264953
0.266073
0.267295
0.268363
0.269602
0.270576
0.271872
0.272701
0.274162
0.274369
0.276897
0.0376261
0.0388479
0.0400303
0.0413987
0.0426472
0.0438955
0.044771
0.0454967
0.0458248
0.0459286
0.0454853
0.0447856
0.0437103
0.0426218
0.0415132
0.0406378
0.040385
0.0398579
0.0398445
0.0400959
0.0404775
0.040374
0.0403793
0.0411334
0.0417309
0.0420786
0.0431827
0.0446714
0.0462967
0.0481654
0.0501264
0.0522447
0.0545431
0.0569464
0.0595825
0.0622637
0.0651762
0.0681115
0.0712442
0.0746292
0.078259
0.0821149
0.0860106
0.0900306
0.0940976
0.0982414
0.102459
0.106751
0.111138
0.115566
0.119969
0.124305
0.128502
0.132591
0.136519
0.140325
0.143983
0.147483
0.150857
0.154078
0.157104
0.159982
0.162722
0.165348
0.167886
0.170342
0.172815
0.175148
0.17755
0.179973
0.182405
0.184823
0.18721
0.18957
0.191887
0.194172
0.196405
0.198608
0.200747
0.202857
0.204896
0.206917
0.20886
0.210808
0.212664
0.214559
0.216338
0.218203
0.219935
0.221679
0.223275
0.224978
0.226675
0.228264
0.229776
0.231611
0.232895
0.23489
0.235398
0.238609
0.0346366
0.0350425
0.0355204
0.035954
0.0362503
0.0362242
0.0358833
0.0352278
0.0343009
0.0331094
0.031709
0.0302153
0.0286762
0.0270712
0.0255317
0.024033
0.02279
0.0217629
0.0210336
0.0204252
0.0200215
0.0196859
0.0195189
0.0193764
0.0193587
0.0193264
0.01939
0.0195005
0.0196007
0.0199486
0.0199275
0.0202651
0.0206081
0.0211199
0.0217368
0.0223303
0.0229998
0.0237616
0.0245989
0.0255656
0.026633
0.0278606
0.0292044
0.0307226
0.0323822
0.0342538
0.0362857
0.0385007
0.0408933
0.0434893
0.0462369
0.0491462
0.0521328
0.0552278
0.0583536
0.0615608
0.0647725
0.0680698
0.0714887
0.0750244
0.07864
0.0822777
0.0858996
0.0895194
0.093108
0.0966801
0.100222
0.103737
0.107202
0.110648
0.114036
0.117389
0.120669
0.123902
0.127053
0.130157
0.133175
0.136132
0.138948
0.14173
0.144375
0.147034
0.149574
0.152165
0.154619
0.157172
0.15955
0.162091
0.164397
0.166944
0.169158
0.171731
0.173813
0.176411
0.178588
0.181204
0.183003
0.186012
0.187413
0.190902
0.0241468
0.0234641
0.0227256
0.0220444
0.0214269
0.020835
0.0203535
0.0198113
0.0191264
0.0183178
0.0174723
0.0166304
0.0158195
0.0150546
0.0143584
0.0137423
0.0132194
0.0127878
0.0124545
0.0121968
0.0120179
0.0118952
0.0118251
0.0117846
0.011767
0.0117629
0.0117644
0.0117679
0.0117903
0.0118119
0.011809
0.0117734
0.0117583
0.0117467
0.0117467
0.0117973
0.0117929
0.011892
0.0119137
0.012016
0.012093
0.012172
0.0123015
0.0124159
0.0125738
0.0128258
0.0131827
0.013508
0.0138765
0.014374
0.0149349
0.0156234
0.0163474
0.017184
0.0180268
0.018979
0.0199299
0.0210106
0.0221034
0.0233626
0.0246486
0.0261273
0.0276367
0.0293471
0.0310895
0.0330374
0.0350138
0.0371977
0.0393966
0.0418007
0.0442002
0.0468005
0.0493681
0.0521308
0.0548311
0.0577206
0.0605235
0.0635394
0.0664989
0.0696703
0.0727363
0.0760069
0.0790886
0.0824009
0.0854692
0.0888068
0.0918337
0.0951861
0.0981406
0.101502
0.104351
0.107725
0.110423
0.113815
0.116328
0.119775
0.122023
0.125571
0.127123
0.132056
0.0128643
0.0127698
0.0127707
0.0127499
0.0128663
0.0125957
0.012742
0.0125279
0.0130954
0.0120411
0.0113947
0.0109345
0.0105807
0.010298
0.010071
0.00989239
0.00975882
0.00966542
0.00960752
0.00957997
0.00957723
0.0095924
0.00961723
0.00964665
0.00967347
0.0096966
0.00971139
0.0097192
0.00971793
0.00971027
0.0096968
0.00967684
0.00965388
0.00962761
0.0095983
0.00957213
0.00954091
0.00951605
0.00948951
0.00946508
0.00944691
0.00942477
0.00941543
0.0093979
0.00939364
0.00938968
0.00939163
0.00940855
0.00939698
0.00945432
0.00942462
0.00948717
0.00952689
0.00959591
0.00963077
0.00970624
0.00975162
0.00984984
0.00991452
0.0100507
0.0101458
0.0103289
0.0104598
0.0107103
0.0108952
0.0112368
0.0114797
0.0119044
0.0122203
0.0127584
0.013173
0.0138422
0.0143637
0.0151786
0.0158233
0.0168032
0.0175858
0.0187517
0.0196874
0.0210682
0.0221728
0.0237964
0.0250817
0.0269646
0.0284337
0.0305846
0.032226
0.0346485
0.0364326
0.0391285
0.0410104
0.0439852
0.0459031
0.0491465
0.0510813
0.054542
0.0563967
0.0601639
0.0612444
0.0675384
0.0108383
0.0106698
0.0104111
0.0102069
0.0100661
0.00994898
0.0098297
0.00971117
0.00953182
0.00938686
0.00925657
0.00913204
0.00901488
0.00890878
0.00881833
0.00874642
0.00869501
0.0086639
0.00865128
0.00865346
0.00867066
0.00869771
0.00872941
0.00876175
0.00879131
0.0088166
0.00883535
0.00884823
0.00885334
0.00885293
0.00884541
0.00883428
0.00881753
0.00879877
0.00877624
0.00875319
0.00872764
0.00870308
0.00867675
0.00865274
0.00862702
0.0086051
0.00858052
0.00856103
0.00853936
0.00852277
0.00850341
0.00848748
0.00847113
0.00846317
0.00844803
0.00844347
0.00843333
0.00843733
0.00843196
0.00843905
0.0084349
0.00843963
0.00843947
0.00843676
0.00844342
0.00843485
0.00845125
0.00844295
0.00846267
0.00848586
0.00849167
0.00852399
0.00855113
0.00861179
0.00864577
0.00870923
0.00873376
0.00878054
0.00881014
0.00888276
0.00892667
0.00902914
0.00909123
0.00923071
0.00931655
0.00950371
0.00961649
0.00987017
0.0100292
0.010372
0.0105655
0.011041
0.011286
0.0119128
0.0122264
0.0130289
0.0134198
0.0144359
0.014952
0.0161369
0.0167077
0.0181604
0.0188055
0.0212033
0.0096329
0.00955667
0.00947795
0.00939137
0.00929305
0.00918341
0.00906969
0.00896236
0.00886705
0.00877714
0.00869142
0.00861888
0.00856762
0.00853859
0.00853285
0.00854537
0.00857289
0.00860861
0.00864954
0.00868694
0.00870995
0.00871657
0.00871053
0.00869397
0.00867066
0.00864214
0.00861089
0.00857772
0.00854396
0.00851018
0.00847683
0.00844463
0.00841319
0.00838372
0.00835492
0.00832865
0.00830268
0.00827955
0.00825615
0.00823573
0.00821435
0.00819598
0.00817597
0.00815885
0.00813961
0.00812299
0.00810411
0.00808754
0.00806881
0.00805221
0.00803362
0.00801742
0.00799926
0.00798395
0.00796662
0.00795269
0.00793654
0.00792435
0.00790967
0.00789823
0.00788427
0.0078736
0.00786035
0.00785109
0.00783732
0.00783061
0.00781882
0.00781341
0.00780416
0.00780025
0.00779393
0.00779044
0.00778495
0.00778165
0.00777671
0.00777493
0.00777077
0.00777135
0.00776904
0.00777202
0.00777488
0.00777577
0.00779273
0.00778355
0.00782496
0.00784833
0.00783852
0.00788516
0.00788678
0.00794834
0.00794387
0.00802321
0.00804333
0.0081484
0.00818167
0.00830617
0.00837082
0.00850199
0.00857011
0.00885643
0.00887378
0.00885427
0.00883761
0.00881197
0.00877329
0.0087226
0.00866162
0.00858095
0.0084829
0.00837421
0.00826598
0.00816313
0.0080716
0.00799324
0.00793244
0.00788858
0.00786345
0.00785358
0.0078595
0.00787367
0.00789258
0.00790939
0.00792282
0.00792888
0.00792901
0.00792157
0.00790955
0.0078922
0.0078728
0.00785056
0.00782842
0.00780518
0.00778332
0.00776129
0.00774119
0.00772128
0.00770341
0.0076857
0.00766998
0.00765421
0.00764034
0.0076261
0.00761368
0.00760051
0.00758901
0.00757645
0.00756534
0.00755298
0.00754184
0.00752939
0.00751805
0.00750552
0.00749408
0.0074818
0.00747058
0.00745904
0.00744844
0.00743806
0.00742847
0.00741951
0.0074112
0.00740382
0.00739696
0.0073909
0.0073856
0.00738077
0.00737653
0.00737236
0.00736864
0.00736498
0.00736138
0.00735798
0.00735416
0.00735074
0.00734665
0.00734298
0.00733879
0.00733454
0.00733109
0.00732604
0.00732317
0.00731888
0.00731527
0.00730841
0.00730517
0.00730619
0.00730154
0.00730363
0.00729885
0.00729954
0.00729254
0.00729402
0.00728917
0.00729028
0.00729714
0.00729711
0.00728465
0.00730791
0.00729376
0.00731389
0.00828379
0.00826817
0.00824819
0.0082233
0.00819584
0.00816581
0.00813586
0.00810714
0.00808135
0.00805569
0.00802906
0.00800051
0.00797372
0.0079484
0.00792609
0.00790503
0.00788624
0.00786546
0.00784005
0.00780859
0.00777531
0.00773994
0.00770638
0.00767318
0.00764344
0.00761463
0.0075895
0.00756491
0.00754361
0.00752222
0.00750369
0.00748456
0.00746802
0.00745048
0.00743538
0.00741901
0.00740499
0.00738949
0.00737632
0.00736147
0.00734899
0.00733466
0.00732283
0.00730904
0.00729792
0.00728475
0.00727447
0.00726203
0.0072527
0.00724109
0.00723276
0.00722198
0.00721459
0.0072046
0.00719802
0.00718867
0.00718275
0.00717388
0.00716845
0.00715993
0.00715487
0.00714656
0.00714181
0.00713364
0.00712917
0.0071211
0.00711691
0.00710894
0.00710506
0.0070972
0.00709363
0.00708591
0.00708268
0.00707508
0.00707223
0.00706472
0.00706228
0.00705481
0.00705283
0.00704541
0.00704379
0.00703656
0.0070352
0.00702819
0.00702701
0.00702041
0.00701942
0.00701315
0.00701224
0.00700639
0.00700525
0.00700025
0.00699837
0.00699401
0.0069933
0.00698961
0.00698681
0.00698713
0.00696731
0.00699491
0.00782005
0.00781731
0.00781024
0.00779875
0.00778347
0.0077631
0.00773901
0.00771018
0.00767866
0.0076442
0.00760977
0.00757544
0.00754384
0.00751466
0.00749017
0.00746863
0.00745076
0.00743375
0.00741846
0.0074022
0.00738641
0.00736877
0.00735147
0.00733243
0.00731433
0.00729501
0.00727733
0.00725886
0.00724248
0.00722544
0.00721069
0.0071952
0.00718201
0.00716787
0.00715596
0.00714287
0.00713195
0.00711964
0.00710947
0.00709772
0.00708815
0.00707684
0.00706783
0.00705695
0.00704853
0.00703812
0.00703037
0.0070205
0.00701351
0.00700423
0.00699802
0.00698933
0.00698387
0.0069757
0.00697089
0.00696316
0.00695884
0.00695141
0.00694744
0.00694018
0.00693643
0.00692926
0.00692566
0.00691851
0.00691502
0.00690788
0.00690452
0.00689737
0.00689418
0.00688705
0.00688405
0.00687697
0.0068742
0.00686719
0.00686465
0.00685773
0.00685543
0.0068486
0.00684655
0.00683975
0.00683804
0.00683119
0.00682987
0.00682299
0.006822
0.00681521
0.00681444
0.00680782
0.00680725
0.00680063
0.00680051
0.00679354
0.00679384
0.00678655
0.00678784
0.00678095
0.00678105
0.00677727
0.00677501
0.00676945
0.00746929
0.00747121
0.00746908
0.00746284
0.00745407
0.00744199
0.00742824
0.00741202
0.00739512
0.00737662
0.0073582
0.00733858
0.0073193
0.00729885
0.00727882
0.00725766
0.00723731
0.00721624
0.00719663
0.00717673
0.00715873
0.00714057
0.00712443
0.00710798
0.00709347
0.00707838
0.0070651
0.00705101
0.00703867
0.00702537
0.0070138
0.00700117
0.00699031
0.00697832
0.00696815
0.00695681
0.00694732
0.00693659
0.00692776
0.00691763
0.00690943
0.00689984
0.00689224
0.00688314
0.00687609
0.00686742
0.00686087
0.00685256
0.00684645
0.00683844
0.00683273
0.00682497
0.0068196
0.00681207
0.006807
0.00679968
0.00679489
0.00678777
0.00678321
0.00677632
0.00677197
0.00676531
0.00676114
0.00675471
0.00675074
0.00674452
0.00674076
0.00673473
0.0067312
0.00672533
0.00672204
0.00671631
0.00671328
0.00670766
0.00670489
0.00669935
0.00669685
0.00669137
0.00668912
0.0066837
0.00668164
0.00667634
0.00667431
0.00666935
0.00666704
0.0066627
0.00665989
0.0066562
0.00665307
0.00664959
0.00664663
0.00664296
0.00664059
0.00663574
0.00663541
0.00662916
0.00662764
0.00662327
0.00664
0.00660211
0.00720958
0.00721337
0.00721426
0.00721164
0.00720709
0.00719952
0.00719046
0.00717866
0.00716587
0.00715093
0.00713576
0.00711912
0.00710296
0.00708584
0.00706972
0.0070529
0.00703737
0.00702122
0.00700652
0.00699118
0.00697739
0.0069629
0.00695004
0.00693641
0.00692447
0.00691166
0.00690061
0.00688857
0.00687833
0.00686699
0.00685747
0.00684675
0.00683786
0.00682769
0.00681936
0.0068097
0.0068019
0.00679271
0.00678542
0.00677669
0.0067699
0.00676161
0.00675531
0.00674743
0.00674158
0.00673406
0.0067286
0.0067214
0.00671624
0.00670929
0.00670438
0.00669763
0.0066929
0.00668632
0.00668176
0.00667531
0.00667092
0.00666459
0.00666039
0.00665417
0.00665016
0.00664406
0.00664026
0.00663428
0.00663068
0.00662484
0.00662145
0.00661573
0.00661257
0.00660694
0.00660404
0.00659846
0.00659585
0.00659029
0.00658796
0.00658243
0.00658031
0.00657489
0.00657285
0.00656767
0.00656555
0.00656069
0.00655847
0.00655382
0.00655166
0.00654702
0.00654505
0.00654046
0.00653833
0.00653429
0.00653146
0.00652848
0.00652449
0.00652306
0.00651695
0.00651765
0.00651329
0.00650987
0.00650733
0.00650363
0.00701917
0.00702332
0.00702544
0.0070241
0.00702103
0.00701524
0.00700846
0.00699949
0.00699012
0.00697906
0.00696813
0.00695586
0.00694412
0.00693125
0.0069192
0.00690615
0.00689413
0.00688116
0.0068694
0.00685671
0.00684537
0.00683308
0.00682227
0.00681045
0.00680022
0.00678893
0.00677932
0.00676856
0.00675956
0.00674933
0.00674094
0.00673122
0.00672341
0.0067142
0.00670695
0.0066982
0.00669147
0.00668314
0.00667689
0.00666894
0.00666314
0.00665552
0.00665011
0.00664277
0.00663773
0.00663063
0.00662591
0.00661901
0.00661458
0.00660786
0.00660369
0.00659714
0.0065932
0.0065868
0.00658307
0.00657681
0.00657328
0.00656716
0.00656381
0.00655782
0.00655465
0.00654877
0.00654578
0.00653999
0.00653718
0.00653147
0.00652885
0.00652319
0.00652077
0.00651514
0.00651296
0.0065073
0.00650538
0.00649968
0.00649801
0.00649227
0.0064908
0.0064851
0.00648372
0.00647815
0.00647679
0.00647135
0.00647004
0.00646465
0.00646351
0.00645802
0.0064571
0.0064516
0.00645066
0.00644548
0.00644423
0.00643948
0.00643774
0.0064341
0.00643053
0.00642869
0.00642625
0.00642336
0.00642042
0.00641663
0.00687594
0.00688039
0.00688315
0.00688279
0.00688108
0.00687696
0.00687212
0.00686527
0.00685815
0.00684933
0.00684065
0.00683054
0.00682092
0.0068101
0.00680006
0.00678896
0.00677889
0.00676782
0.00675796
0.00674712
0.00673763
0.00672713
0.00671808
0.00670797
0.00669941
0.00668971
0.00668164
0.00667235
0.00666476
0.00665586
0.00664875
0.00664024
0.00663358
0.00662543
0.00661923
0.00661143
0.00660566
0.00659818
0.00659283
0.00658564
0.00658067
0.00657374
0.00656911
0.00656239
0.00655808
0.00655152
0.0065475
0.00654105
0.00653729
0.00653093
0.00652741
0.00652112
0.00651783
0.00651161
0.00650852
0.00650239
0.00649948
0.00649346
0.00649069
0.0064848
0.00648215
0.00647638
0.00647385
0.00646819
0.00646578
0.00646021
0.00645793
0.00645242
0.0064503
0.00644482
0.00644288
0.0064374
0.00643567
0.00643013
0.00642865
0.00642301
0.00642181
0.00641603
0.00641512
0.00640923
0.00640852
0.00640264
0.00640193
0.00639633
0.00639531
0.00639027
0.00638874
0.00638429
0.00638238
0.00637828
0.00637619
0.00637234
0.00637029
0.00636568
0.00636577
0.00635966
0.00635746
0.00635665
0.00635554
0.00635
0.00676677
0.00677143
0.00677458
0.00677486
0.006774
0.00677088
0.00676721
0.00676166
0.00675596
0.00674867
0.00674162
0.00673321
0.00672533
0.00671626
0.00670799
0.00669863
0.00669026
0.00668084
0.00667259
0.00666328
0.00665527
0.00664619
0.0066385
0.00662969
0.00662237
0.00661385
0.00660692
0.00659869
0.00659215
0.00658422
0.00657805
0.00657042
0.00656462
0.00655726
0.00655181
0.00654472
0.00653961
0.00653276
0.00652797
0.00652135
0.00651687
0.00651044
0.00650626
0.00650001
0.00649609
0.00648999
0.00648631
0.00648033
0.00647688
0.00647099
0.00646775
0.00646194
0.00645889
0.00645315
0.00645028
0.00644459
0.00644188
0.00643626
0.00643369
0.00642813
0.0064257
0.00642019
0.00641788
0.00641243
0.00641024
0.00640485
0.00640278
0.00639743
0.00639548
0.00639017
0.00638835
0.00638306
0.00638137
0.00637611
0.00637456
0.00636932
0.00636788
0.00636267
0.00636134
0.00635616
0.00635492
0.00634979
0.00634859
0.00634357
0.00634235
0.00633748
0.00633618
0.00633153
0.00633006
0.00632569
0.00632403
0.00632002
0.00631795
0.006314
0.00631283
0.00630917
0.00630657
0.00630608
0.00628731
0.00631282
0.00668462
0.00668916
0.00669244
0.00669308
0.00669281
0.00669042
0.00668762
0.00668303
0.00667841
0.00667226
0.0066664
0.00665921
0.00665259
0.00664476
0.00663773
0.00662957
0.0066224
0.00661413
0.00660701
0.00659877
0.00659182
0.00658372
0.00657702
0.00656912
0.00656271
0.00655503
0.00654893
0.00654148
0.0065357
0.00652849
0.00652302
0.00651603
0.00651087
0.0065041
0.00649924
0.00649268
0.0064881
0.00648174
0.00647744
0.00647125
0.00646722
0.00646119
0.0064574
0.00645152
0.00644796
0.00644219
0.00643884
0.00643316
0.00643001
0.0064244
0.00642142
0.00641588
0.00641307
0.00640758
0.00640492
0.00639948
0.00639695
0.00639156
0.00638916
0.00638381
0.00638153
0.00637622
0.00637406
0.00636879
0.00636673
0.0063615
0.00635955
0.00635435
0.00635251
0.00634734
0.00634561
0.00634048
0.00633884
0.00633375
0.00633221
0.00632716
0.00632571
0.0063207
0.00631933
0.00631436
0.00631306
0.00630815
0.00630689
0.00630205
0.0063008
0.00629608
0.00629478
0.00629024
0.0062888
0.0062845
0.0062829
0.00627892
0.00627695
0.006273
0.00627189
0.00626838
0.00626584
0.00626534
0.00624713
0.00627171
0.00662178
0.00662609
0.00662938
0.00663023
0.00663036
0.0066285
0.00662634
0.00662244
0.00661859
0.00661321
0.00660817
0.00660179
0.00659601
0.006589
0.00658282
0.00657548
0.00656915
0.00656169
0.00655539
0.00654795
0.0065418
0.00653446
0.00652852
0.00652131
0.00651561
0.00650857
0.00650312
0.00649624
0.00649104
0.00648433
0.00647939
0.00647285
0.00646816
0.00646179
0.00645735
0.00645114
0.00644696
0.00644091
0.00643697
0.00643107
0.00642737
0.0064216
0.00641813
0.00641247
0.00640922
0.00640366
0.00640059
0.0063951
0.00639221
0.00638678
0.00638405
0.00637866
0.00637607
0.00637073
0.00636827
0.00636297
0.00636063
0.00635537
0.00635314
0.00634791
0.00634579
0.0063406
0.00633858
0.00633342
0.0063315
0.00632638
0.00632455
0.00631947
0.00631774
0.00631269
0.00631104
0.00630604
0.00630448
0.00629951
0.00629804
0.00629309
0.00629172
0.00628679
0.00628551
0.0062806
0.00627938
0.00627453
0.00627333
0.00626857
0.00626737
0.0062627
0.0062615
0.0062569
0.00625574
0.00625115
0.00625003
0.00624549
0.00624449
0.00624007
0.00623818
0.00623485
0.00623464
0.00622824
0.0062428
0.00620819
0.00657376
0.0065778
0.00658097
0.00658187
0.00658218
0.00658059
0.00657878
0.0065753
0.00657191
0.00656705
0.00656256
0.00655675
0.00655156
0.00654515
0.00653957
0.00653282
0.00652709
0.00652019
0.00651446
0.00650754
0.00650193
0.00649507
0.00648963
0.00648288
0.00647766
0.00647104
0.00646605
0.00645956
0.00645481
0.00644846
0.00644394
0.00643772
0.00643343
0.00642736
0.0064233
0.00641735
0.00641352
0.0064077
0.0064041
0.0063984
0.00639501
0.00638942
0.00638625
0.00638074
0.00637777
0.00637233
0.00636954
0.00636415
0.00636152
0.00635617
0.00635369
0.00634836
0.00634602
0.00634072
0.0063385
0.00633322
0.00633111
0.00632586
0.00632386
0.00631862
0.00631673
0.00631151
0.00630972
0.00630452
0.00630282
0.00629765
0.00629604
0.0062909
0.00628938
0.00628426
0.00628282
0.00627774
0.00627638
0.00627134
0.00627005
0.00626504
0.00626382
0.00625885
0.0062577
0.00625275
0.00625167
0.00624676
0.00624571
0.00624087
0.00623983
0.00623507
0.00623403
0.00622933
0.00622832
0.00622365
0.00622268
0.00621804
0.00621722
0.0062127
0.00621089
0.00620756
0.0062074
0.00620108
0.00621583
0.006181
0.00653458
0.00653839
0.0065414
0.00654231
0.00654269
0.00654129
0.0065397
0.00653653
0.00653347
0.006529
0.0065249
0.00651955
0.00651481
0.00650888
0.00650377
0.00649752
0.00649224
0.00648582
0.00648053
0.00647406
0.00646887
0.00646243
0.00645739
0.00645103
0.00644619
0.00643993
0.00643529
0.00642915
0.00642473
0.00641869
0.0064145
0.00640857
0.00640459
0.00639877
0.00639501
0.0063893
0.00638575
0.00638013
0.00637679
0.00637125
0.00636812
0.00636265
0.00635972
0.00635431
0.00635156
0.00634619
0.00634361
0.00633825
0.00633583
0.00633048
0.00632821
0.00632286
0.00632072
0.00631537
0.00631337
0.006308
0.00630613
0.00630076
0.00629901
0.00629363
0.00629201
0.00628661
0.00628512
0.00627971
0.00627835
0.00627292
0.00627168
0.00626624
0.00626513
0.00625968
0.00625868
0.00625322
0.00625233
0.00624688
0.00624608
0.00624065
0.00623993
0.00623451
0.00623389
0.00622845
0.00622796
0.00622245
0.00622213
0.00621652
0.00621638
0.00621069
0.00621069
0.00620493
0.00620512
0.00619918
0.0061997
0.00619333
0.00619447
0.00618796
0.00618816
0.0061828
0.00618401
0.00617809
0.00619261
0.00615798
0.00650246
0.00650604
0.0065089
0.00650982
0.00651027
0.00650906
0.00650768
0.00650482
0.00650205
0.00649796
0.00649422
0.00648929
0.00648493
0.00647945
0.00647473
0.00646892
0.00646403
0.00645804
0.00645313
0.00644707
0.00644221
0.00643615
0.00643142
0.0064254
0.00642081
0.00641485
0.00641044
0.00640455
0.00640031
0.0063945
0.00639044
0.00638471
0.00638083
0.00637518
0.0063715
0.00636592
0.00636243
0.00635692
0.00635362
0.00634817
0.00634507
0.00633968
0.00633676
0.00633141
0.00632867
0.00632334
0.00632077
0.00631545
0.00631303
0.00630772
0.00630543
0.00630012
0.00629798
0.00629266
0.00629065
0.00628532
0.00628345
0.0062781
0.00627637
0.006271
0.00626941
0.00626401
0.00626257
0.00625714
0.00625584
0.00625039
0.00624923
0.00624376
0.00624273
0.00623723
0.00623635
0.00623081
0.00623008
0.00622449
0.00622393
0.00621827
0.00621789
0.00621214
0.00621193
0.00620613
0.00620604
0.00620024
0.00620021
0.00619445
0.00619446
0.00618873
0.00618879
0.0061831
0.00618316
0.00617765
0.00617743
0.00617242
0.00617178
0.00616732
0.00616577
0.00616258
0.00616153
0.00615859
0.00615687
0.00615122
0.00647914
0.00648244
0.00648506
0.0064859
0.00648632
0.00648519
0.00648388
0.00648118
0.00647855
0.00647467
0.0064711
0.0064664
0.0064622
0.00645694
0.00645236
0.00644674
0.00644196
0.00643612
0.00643127
0.00642532
0.00642049
0.00641449
0.00640972
0.00640371
0.00639904
0.00639306
0.00638851
0.00638257
0.00637817
0.0063723
0.00636808
0.0063623
0.00635826
0.00635258
0.00634875
0.00634317
0.00633954
0.00633405
0.00633063
0.00632521
0.006322
0.00631666
0.00631362
0.00630832
0.00630544
0.00630019
0.00629748
0.00629226
0.00628971
0.00628453
0.00628213
0.00627698
0.00627473
0.00626959
0.0062675
0.00626236
0.00626043
0.00625527
0.00625352
0.00624833
0.00624674
0.00624152
0.0062401
0.00623484
0.00623359
0.00622829
0.0062272
0.00622187
0.00622093
0.00621556
0.00621478
0.00620937
0.00620874
0.00620329
0.00620279
0.00619733
0.00619692
0.00619147
0.00619115
0.00618569
0.00618549