/*--------------------------------*- C++ -*----------------------------------*\
  =========                 |
  \\      /  F ield         | OpenFOAM: The Open Source CFD Toolbox
   \\    /   O peration     | Website:  https://openfoam.org
    \\  /    A nd           | Version:  8
     \\/     M anipulation  |
\*---------------------------------------------------------------------------*/
FoamFile
{
    version     2.0;
    format      ascii;
    class       surfaceScalarField;
    location    "0.999962";
    object      phi;
}
// * * * * * * * * * * * * * * * * * * * * * * * * * * * * * * * * * * * * * //

dimensions      [1 0 -1 0 0 0 0];

internalField   nonuniform List<scalar> 
13330
(
0.187121
-0.0838992
-0.103226
0.415516
-0.636142
0.40771
0.620839
-0.874576
0.669238
0.803482
-1.01299
0.830337
0.966466
-1.09869
0.935695
1.11266
-1.15121
1.00502
1.2452
-1.18305
1.05051
1.36727
-1.20208
1.08001
1.48234
-1.21335
1.0983
-1.22066
1.10812
1.59487
0.240717
-0.324602
0.455309
-0.850721
0.643101
-1.06237
0.808776
-1.17867
0.953879
-1.24379
1.08205
-1.27938
1.19705
-1.29804
1.30194
-1.30697
1.39907
-1.31047
-1.3113
1.48972
0.244225
-0.568791
0.457311
-1.0638
0.631769
-1.23683
0.780948
-1.32784
0.90875
-1.37159
1.02013
-1.39076
1.1192
-1.3971
1.20911
-1.39687
1.29214
-1.39349
-1.38881
1.36965
0.236962
-0.805733
0.438558
-1.26539
0.597306
-1.39557
0.729671
-1.46021
0.840881
-1.48279
0.936729
-1.4866
1.02166
-1.48202
1.09896
-1.47416
1.17085
-1.46538
-1.45657
1.23862
0.22321
-1.02891
0.40646
-1.44863
0.547316
-1.53642
0.662772
-1.57565
0.757943
-1.57795
0.839563
-1.56821
0.912119
-1.55457
0.978624
-1.54065
1.04096
-1.5277
-1.51571
1.1001
0.204613
-1.23351
0.365817
-1.60983
0.4877
-1.6583
0.586129
-1.67407
0.665993
-1.6578
0.734642
-1.63685
0.796054
-1.61597
0.852735
-1.59732
0.906148
-1.58111
-1.56647
0.956919
0.182899
-1.4164
0.32006
-1.74698
0.422732
-1.76096
0.504182
-1.75551
0.569587
-1.72319
0.626147
-1.69339
0.677028
-1.66684
0.724205
-1.64449
0.768732
-1.62563
-1.60865
0.810923
0.159022
-1.57541
0.271765
-1.85972
0.355531
-1.84472
0.420054
-1.82002
0.471672
-1.7748
0.516634
-1.73834
0.557173
-1.70737
0.594721
-1.68203
0.630058
-1.66096
-1.64186
0.663262
0.134343
-1.70975
0.222721
-1.94809
0.287855
-1.90984
0.33581
-1.86797
0.374299
-1.81327
0.407729
-1.77177
0.437709
-1.73734
0.465231
-1.70955
0.490936
-1.68667
-1.66566
0.514732
0.109295
-1.81903
0.174007
-2.01279
0.220888
-1.9567
0.252813
-1.89987
0.278483
-1.83894
0.300227
-1.79351
0.319264
-1.75639
0.336347
-1.72664
0.351959
-1.70229
0.365951
-1.67966
-0.0957464
0.0957281
-0.173043
0.0772875
-0.238291
0.0652406
-0.293875
0.0555754
-0.339089
0.0451993
-0.372206
0.0331051
-0.391316
0.0190898
-0.395196
0.00387288
-0.384411
-0.0107895
-0.0220319
-0.362374
-0.0817141
0.1774
-0.149928
0.145478
-0.20574
0.121032
-0.250589
0.100395
-0.283927
0.0785029
-0.303625
0.052758
-0.306613
0.0220342
-0.291288
-0.0114742
-0.259702
-0.0423759
-0.0656554
-0.216053
-0.0624322
0.239793
-0.112801
0.195823
-0.150554
0.158763
-0.174801
0.124611
-0.183886
0.0875512
-0.174576
0.0433956
-0.141893
-0.0106947
-0.0892914
-0.0640959
-0.0220289
-0.109628
-0.142944
0.0552825
-0.0400444
0.279789
-0.0684943
0.224238
-0.081666
0.17191
-0.0751763
0.118087
-0.0434183
0.055754
0.0186497
-0.0187312
0.102862
-0.0949484
0.197485
-0.158734
0.2991
-0.211243
-0.249406
0.405589
-0.0187456
0.298493
-0.0227505
0.228217
-0.00315534
0.152283
0.050544
0.0643503
0.143213
-0.0369538
0.260697
-0.13626
0.386714
-0.220998
0.518106
-0.290143
0.652438
-0.34556
-0.386239
0.789279
-0.00112556
0.2996
0.0225901
0.204469
0.0884171
0.0864311
0.204888
-0.0521538
0.352035
-0.184129
0.508969
-0.293229
0.669492
-0.381546
0.83096
-0.451615
0.990624
-0.505233
-0.54382
1.14823
0.010758
0.288809
0.0703211
0.144882
0.201878
-0.045149
0.374148
-0.224448
0.556122
-0.366126
0.73916
-0.476294
0.918121
-0.560525
1.09017
-0.623683
1.25512
-0.670165
-0.70324
1.41454
0.0162214
0.272564
0.14301
0.0180554
0.336081
-0.23825
0.537831
-0.426217
0.735271
-0.563583
0.92275
-0.663792
1.09886
-0.736653
1.26447
-0.789286
1.42131
-0.827016
-0.853144
1.57122
0.0530454
0.219493
0.249495
-0.178437
0.464338
-0.453116
0.671124
-0.63302
0.86371
-0.756182
1.04154
-0.841633
1.20594
-0.901065
1.35886
-0.94221
1.50227
-0.970421
-0.989153
1.63828
0.116253
0.345511
0.561626
0.758934
0.938446
1.10183
1.25127
1.38908
1.51695
1.63593
-0.290536
-0.0718216
-0.222077
-0.0684493
-0.159112
-0.0629559
-0.100972
-0.0581284
-0.0464481
-0.0545077
0.00554577
-0.0519748
0.0548871
-0.0493204
0.101497
-0.0465882
0.145976
-0.0444561
0.188665
-0.0426661
0.229761
-0.0410749
0.26939
-0.039608
0.307632
-0.0382237
0.344553
-0.036904
0.380212
-0.0356444
0.414666
-0.0344421
0.447962
-0.0332863
0.480137
-0.0321688
0.511223
-0.0310803
0.541242
-0.0300166
0.570221
-0.0289783
0.598187
-0.0279668
0.62517
-0.0269848
0.651202
-0.0260352
0.676319
-0.0251196
0.700555
-0.0242397
0.723946
-0.023394
0.746524
-0.0225805
0.76832
-0.0217987
0.789362
-0.0210437
0.809676
-0.0203152
0.829289
-0.0196143
0.848225
-0.0189361
0.866504
-0.0182786
0.884149
-0.0176452
0.901181
-0.0170321
0.917618
-0.0164368
0.93348
-0.0158614
0.948787
-0.0153064
0.963559
-0.0147722
0.977817
-0.0142574
0.991579
-0.0137614
1.00486
-0.0132838
1.01769
-0.0128237
1.03007
-0.0123804
1.04202
-0.0119531
1.05356
-0.0115412
1.06471
-0.0111443
1.07547
-0.0107621
1.08587
-0.0103946
1.09591
-0.0100413
1.10561
-0.00970182
1.11498
-0.00937566
1.12405
-0.00906209
1.13281
-0.00876045
1.14128
-0.00847011
1.14947
-0.00819043
1.15739
-0.00792099
1.16505
-0.00766154
1.17246
-0.00741171
1.17963
-0.00717128
1.18657
-0.00693976
1.19329
-0.00671669
1.19979
-0.00650182
1.20608
-0.0062946
1.21217
-0.00609463
1.21808
-0.00590173
1.22379
-0.00571576
1.22933
-0.00553633
1.23469
-0.00536352
1.23988
-0.00519731
1.24492
-0.00503732
1.2498
-0.00488395
1.25454
-0.00473595
1.25913
-0.00459299
1.26358
-0.00445368
1.2679
-0.00431777
1.27209
-0.00418912
1.27615
-0.00406734
1.2801
-0.00395032
1.28394
-0.00383764
1.28767
-0.00372906
1.29129
-0.00362434
1.29481
-0.00352331
1.29824
-0.00342578
1.30157
-0.00333161
1.30481
-0.00324061
1.30796
-0.00315267
1.31103
-0.00306754
1.31401
-0.00298506
1.31692
-0.00290479
1.31974
-0.00282641
1.32249
-0.00274906
1.32516
-0.00267208
1.32775
-0.00259388
1.33027
-0.00251291
1.33269
-0.00242662
1.33503
-0.00233268
1.33726
-0.00223055
-0.00202336
-0.148911
-0.138927
-0.0889336
-0.128408
-0.033645
-0.118224
0.0182693
-0.110014
0.066938
-0.103138
0.112657
-0.0976488
0.156424
-0.0930367
0.198737
-0.0888472
0.239563
-0.0852273
0.279013
-0.0820608
0.317176
-0.0791852
0.35411
-0.0764924
0.389847
-0.0739164
0.424407
-0.0714233
0.457807
-0.0690102
0.490089
-0.0666946
0.521299
-0.0644734
0.551487
-0.0623392
0.580684
-0.0602652
0.608907
-0.0582328
0.636175
-0.0562431
0.662494
-0.0542869
0.687873
-0.0523679
0.712331
-0.0504995
0.735899
-0.0486945
0.758612
-0.0469598
0.780507
-0.0452964
0.801622
-0.0437015
0.821989
-0.0421713
0.841641
-0.0407001
0.860608
-0.039285
0.878914
-0.037923
0.896585
-0.0366083
0.913642
-0.0353367
0.930105
-0.0341085
0.945995
-0.0329213
0.961331
-0.0317732
0.976135
-0.0306643
0.990424
-0.0295943
1.00421
-0.028562
1.01752
-0.0275664
1.03037
-0.0266081
1.04278
-0.0256858
1.05475
-0.0247979
1.06631
-0.0239425
1.07748
-0.0231179
1.08826
-0.0223227
1.09867
-0.0215559
1.10873
-0.020817
1.11844
-0.0201061
1.12782
-0.0194226
1.13689
-0.0187659
1.14565
-0.018135
1.15411
-0.0175284
1.1623
-0.0169451
1.17021
-0.0163838
1.17787
-0.0158432
1.18527
-0.0153224
1.19243
-0.0148209
1.19935
-0.0143383
1.20605
-0.013874
1.21254
-0.0134271
1.21882
-0.0129968
1.2249
-0.0125821
1.23078
-0.0121822
1.23648
-0.0117963
1.242
-0.011424
1.24735
-0.0110648
1.25253
-0.0107182
1.25754
-0.0103842
1.26241
-0.0100627
1.26712
-0.00975322
1.27169
-0.00945599
1.27612
-0.0091705
1.28042
-0.008894
1.28459
-0.00862572
1.28864
-0.00836723
1.29256
-0.00812
1.29638
-0.00788361
1.30008
-0.00765678
1.30368
-0.0074387
1.30718
-0.00722878
1.31058
-0.00702654
1.31389
-0.00683158
1.3171
-0.0066435
1.32023
-0.00646201
1.32328
-0.00628672
1.32624
-0.00611738
1.32912
-0.00595349
1.33193
-0.00579478
1.33467
-0.00564037
1.33733
-0.00548969
1.33992
-0.00534101
1.34244
-0.00519313
1.34489
-0.00504288
1.34726
-0.00488727
1.34955
-0.0047212
1.35176
-0.00453461
1.35384
-0.00431842
-0.00405644
0.102746
-0.186354
0.144428
-0.170075
0.185195
-0.158979
0.225272
-0.150071
0.264328
-0.142166
0.302201
-0.135487
0.33908
-0.129876
0.375154
-0.124878
0.410332
-0.120361
0.444563
-0.116247
0.477827
-0.112406
0.510115
-0.108739
0.541419
-0.105182
0.571733
-0.101703
0.601058
-0.0983044
0.629419
-0.0950299
0.656845
-0.0918787
0.683372
-0.0888503
0.709016
-0.0858968
0.733785
-0.0829952
0.757708
-0.0801629
0.780791
-0.077369
0.80304
-0.0746185
0.824475
-0.0719386
0.845129
-0.0693524
0.865034
-0.0668697
0.884223
-0.0644906
0.902727
-0.0622098
0.920575
-0.0600225
0.937792
-0.0579206
0.954401
-0.0558963
0.970424
-0.0539468
0.985883
-0.0520684
1.0008
-0.050254
1.01519
-0.0484995
1.02907
-0.0468025
1.04246
-0.0451663
1.05539
-0.0435884
1.06786
-0.0420669
1.0799
-0.0405992
1.09152
-0.0391829
1.10273
-0.037821
1.11356
-0.0365104
1.12401
-0.0352485
1.1341
-0.0340327
1.14384
-0.0328604
1.15325
-0.0317297
1.16233
-0.0306393
1.17111
-0.0295888
1.17958
-0.0285782
1.18776
-0.027607
1.19567
-0.0266739
1.20332
-0.0257773
1.2107
-0.0249153
1.21784
-0.0240863
1.22475
-0.0232884
1.23143
-0.02252
1.23788
-0.0217793
1.24413
-0.0210662
1.25017
-0.0203804
1.25601
-0.0197209
1.26167
-0.0190863
1.26715
-0.018475
1.27245
-0.0178858
1.27758
-0.0173176
1.28255
-0.0167696
1.28737
-0.0162408
1.29203
-0.0157308
1.29655
-0.0152392
1.30093
-0.0147652
1.30517
-0.0143093
1.30929
-0.0138709
1.31328
-0.0134491
1.31715
-0.0130435
1.32091
-0.0126527
1.32455
-0.0122746
1.32809
-0.0119108
1.33153
-0.0115625
1.33488
-0.0112286
1.33813
-0.0109082
1.34129
-0.0106002
1.34436
-0.0103039
1.34735
-0.0100186
1.35026
-0.0097438
1.35309
-0.00947886
1.35585
-0.00922335
1.35854
-0.0089767
1.36116
-0.0087386
1.36372
-0.00850833
1.36621
-0.00828553
1.36863
-0.00806898
1.371
-0.00785787
1.37331
-0.00764968
1.37556
-0.00744275
1.37775
-0.00723255
1.37987
-0.0070148
1.38193
-0.00678214
1.38392
-0.00651963
1.38582
-0.00621768
-0.00587679
0.424904
-0.205649
0.445547
-0.190715
0.469669
-0.183098
0.496185
-0.176577
0.523848
-0.169812
0.551917
-0.163531
0.580039
-0.157968
0.608048
-0.152854
0.635744
-0.148021
0.662971
-0.143438
0.689628
-0.139026
0.715649
-0.134725
0.740991
-0.130492
0.765632
-0.126314
0.789547
-0.122194
0.812739
-0.118199
0.835189
-0.11431
0.856907
-0.110552
0.877875
-0.106853
0.898097
-0.103208
0.917624
-0.0996843
0.936459
-0.0962009
0.954612
-0.09277
0.97211
-0.0894376
0.988989
-0.0862326
1.00528
-0.0831597
1.021
-0.080213
1.03617
-0.0773846
1.05081
-0.0746663
1.06494
-0.0720506
1.07857
-0.0695271
1.09171
-0.0670945
1.1044
-0.0647523
1.11663
-0.0624871
1.12842
-0.0602954
1.1398
-0.0581775
1.15077
-0.0561371
1.16135
-0.0541697
1.17156
-0.0522749
1.18141
-0.0504471
1.19091
-0.048685
1.20008
-0.0469916
1.20893
-0.0453602
1.21747
-0.0437884
1.22571
-0.0422736
1.23366
-0.040813
1.24134
-0.0394047
1.24875
-0.038047
1.2559
-0.0367401
1.2628
-0.0354839
1.26948
-0.0342771
1.27592
-0.0331179
1.28215
-0.0320036
1.28816
-0.0309323
1.29398
-0.0299016
1.2996
-0.0289096
1.30503
-0.0279541
1.31029
-0.0270324
1.31537
-0.0261453
1.32028
-0.025293
1.32503
-0.0244733
1.32963
-0.0236843
1.33407
-0.0229242
1.33838
-0.0221916
1.34254
-0.0214854
1.34658
-0.0208045
1.35048
-0.0201482
1.35426
-0.0195157
1.35793
-0.0189066
1.36148
-0.0183203
1.36493
-0.0177563
1.36827
-0.0172149
1.37151
-0.0166953
1.37466
-0.0161947
1.37772
-0.0157123
1.38069
-0.0152487
1.38358
-0.0148035
1.38639
-0.0143767
1.38913
-0.0139675
1.39179
-0.0135748
1.39439
-0.0131976
1.39692
-0.012835
1.39938
-0.0124862
1.40179
-0.0121505
1.40413
-0.0118271
1.40643
-0.0115155
1.40866
-0.011215
1.41085
-0.0109251
1.41298
-0.0106451
1.41507
-0.0103746
1.41711
-0.0101121
1.41911
-0.00985656
1.42106
-0.00960484
1.42297
-0.00935495
1.42484
-0.00910126
1.42667
-0.00883855
1.42844
-0.00855767
1.43016
-0.00824038
1.43182
-0.0078758
-0.00747149
0.787545
-0.203892
0.791234
-0.194399
0.799887
-0.191749
0.812103
-0.188785
0.826785
-0.184481
0.843055
-0.179783
0.860335
-0.175227
0.878295
-0.170791
0.896621
-0.166322
0.915083
-0.161875
0.933515
-0.157434
0.951798
-0.152983
0.969853
-0.148524
0.987638
-0.144078
1.0051
-0.139638
1.02217
-0.135248
1.03874
-0.130876
1.05479
-0.126583
1.07026
-0.122313
1.08517
-0.11811
1.09959
-0.114096
1.11353
-0.11014
1.12702
-0.106254
1.14008
-0.102495
1.15274
-0.0988889
1.165
-0.0954244
1.17688
-0.0920902
1.18838
-0.0888787
1.19949
-0.0857788
1.21022
-0.0827853
1.22059
-0.0798916
1.23059
-0.0770978
1.24024
-0.0743982
1.24953
-0.0717854
1.2585
-0.0692627
1.26715
-0.0668267
1.27549
-0.0644772
1.28353
-0.0622125
1.29129
-0.0600322
1.29877
-0.0579278
1.30599
-0.0559013
1.31295
-0.0539507
1.31965
-0.0520677
1.32612
-0.050254
1.33235
-0.0485073
1.33836
-0.0468248
1.34416
-0.0452039
1.34976
-0.0436433
1.35516
-0.0421424
1.36038
-0.0407008
1.36542
-0.0393161
1.37029
-0.0379855
1.37499
-0.0367059
1.37953
-0.0354752
1.38392
-0.0342907
1.38816
-0.0331507
1.39226
-0.0320528
1.39622
-0.030993
1.40005
-0.0299733
1.40375
-0.028994
1.40732
-0.0280514
1.41078
-0.0271435
1.41413
-0.0262686
1.41736
-0.0254257
1.42048
-0.0246141
1.42351
-0.0238329
1.42644
-0.0230813
1.42928
-0.0223583
1.43204
-0.0216634
1.43471
-0.0209961
1.43731
-0.020355
1.43983
-0.0197398
1.44228
-0.0191501
1.44467
-0.0185834
1.44699
-0.0180383
1.44926
-0.0175152
1.45147
-0.0170138
1.45362
-0.0165334
1.45572
-0.016073
1.45778
-0.0156314
1.45979
-0.0152077
1.46175
-0.0148007
1.46367
-0.0144097
1.46555
-0.0140338
1.4674
-0.0136723
1.46921
-0.0133243
1.47098
-0.0129891
1.47272
-0.0126663
1.47443
-0.0123551
1.47611
-0.012055
1.47776
-0.0117645
1.47938
-0.0114824
1.48098
-0.0112049
1.48256
-0.0109301
1.48411
-0.0106515
1.48563
-0.0103634
1.48713
-0.0100555
1.48859
-0.00970737
1.49002
-0.00930596
-0.00886222
1.13823
-0.193891
1.13439
-0.190556
1.13421
-0.191573
1.13636
-0.19093
1.14054
-0.18865
1.14647
-0.185706
1.15376
-0.182507
1.16204
-0.179063
1.17105
-0.175319
1.18057
-0.171382
1.19043
-0.167276
1.2005
-0.163045
1.21073
-0.158732
1.22102
-0.154359
1.23129
-0.149892
1.24143
-0.145378
1.25139
-0.140833
1.26117
-0.136352
1.27079
-0.131925
1.28024
-0.127544
1.28948
-0.123328
1.29851
-0.119164
1.30735
-0.115076
1.31599
-0.111133
1.32444
-0.107335
1.33268
-0.103659
1.3407
-0.100097
1.34847
-0.0966488
1.356
-0.0933067
1.36328
-0.0900694
1.37032
-0.0869308
1.37711
-0.0838889
1.38367
-0.0809499
1.38999
-0.0781091
1.39609
-0.0753632
1.40197
-0.0727097
1.40764
-0.070149
1.41311
-0.0676775
1.41837
-0.0652954
1.42344
-0.0629962
1.42831
-0.0607772
1.43301
-0.0586443
1.43753
-0.0565921
1.4419
-0.0546186
1.44611
-0.0527196
1.45018
-0.0508924
1.45411
-0.0491349
1.45791
-0.0474447
1.46158
-0.045819
1.46514
-0.0442566
1.46858
-0.042754
1.4719
-0.041309
1.47511
-0.0399186
1.47822
-0.0385806
1.48122
-0.0372926
1.48412
-0.0360531
1.48693
-0.0348598
1.48964
-0.0337083
1.49227
-0.0325995
1.4948
-0.0315325
1.49726
-0.0305039
1.49962
-0.029513
1.50191
-0.028559
1.50413
-0.0276415
1.50627
-0.0267601
1.50835
-0.0259139
1.51037
-0.0251023
1.51233
-0.0243237
1.51424
-0.0235767
1.51611
-0.0228611
1.51792
-0.022175
1.5197
-0.0215168
1.52143
-0.0208855
1.52313
-0.0202805
1.52479
-0.0196997
1.52641
-0.0191431
1.52801
-0.0186108
1.52957
-0.0181011
1.53111
-0.0176131
1.53262
-0.0171455
1.53411
-0.0166973
1.53558
-0.0162675
1.53702
-0.0158552
1.53844
-0.0154597
1.53985
-0.0150799
1.54124
-0.014715
1.54261
-0.0143641
1.54397
-0.0140271
1.54532
-0.0137028
1.54665
-0.0133914
1.54798
-0.013091
1.5493
-0.0127999
1.5506
-0.0125144
1.55191
-0.0122328
1.5532
-0.0119482
1.55449
-0.0116546
1.55578
-0.0113425
1.55706
-0.0109902
1.55834
-0.01058
-0.0101248
1.4003
-0.179638
1.39233
-0.182587
1.38767
-0.186912
1.38511
-0.188375
1.38447
-0.188002
1.38546
-0.186697
1.38769
-0.184733
1.39087
-0.182246
1.39481
-0.179256
1.39933
-0.175892
1.40431
-0.172252
1.40966
-0.168391
1.41527
-0.164333
1.42102
-0.160102
1.42685
-0.155719
1.43274
-0.151257
1.43867
-0.146757
1.44464
-0.142321
1.45065
-0.137921
1.45662
-0.13351
1.46254
-0.129237
1.46845
-0.125059
1.4743
-0.120921
1.48003
-0.116848
1.48557
-0.112868
1.49091
-0.108991
1.49604
-0.105223
1.50096
-0.10157
1.50569
-0.0980254
1.51021
-0.0945914
1.51455
-0.091263
1.5187
-0.0880418
1.52268
-0.0849311
1.5265
-0.0819243
1.53016
-0.0790202
1.53366
-0.0762145
1.53702
-0.0735073
1.54024
-0.0708979
1.54333
-0.0683845
1.54629
-0.0659627
1.54915
-0.0636312
1.5519
-0.061396
1.55455
-0.0592478
1.55712
-0.0571829
1.5596
-0.0551997
1.562
-0.0532943
1.56433
-0.0514629
1.56658
-0.0497009
1.56877
-0.0480046
1.57089
-0.0463722
1.57293
-0.0448008
1.57491
-0.0432883
1.57682
-0.0418322
1.57867
-0.0404305
1.58046
-0.0390813
1.58219
-0.0377836
1.58386
-0.0365356
1.58549
-0.0353315
1.58705
-0.0341706
1.58857
-0.0330535
1.59005
-0.0319787
1.59148
-0.0309459
1.59287
-0.0299533
1.59423
-0.0290004
1.59555
-0.0280876
1.59685
-0.0272135
1.59812
-0.0263768
1.59937
-0.0255756
1.6006
-0.0248084
1.60182
-0.0240743
1.60301
-0.0233716
1.60419
-0.0226983
1.60536
-0.0220523
1.60651
-0.0214333
1.60765
-0.0208413
1.60878
-0.0202757
1.6099
-0.019735
1.61101
-0.019218
1.61212
-0.0187235
1.61323
-0.0182506
1.61433
-0.0177979
1.61542
-0.0173648
1.61652
-0.0169503
1.61761
-0.016554
1.6187
-0.0161746
1.6198
-0.0158112
1.62089
-0.0154625
1.62199
-0.0151292
1.6231
-0.0148094
1.62421
-0.0145038
1.62533
-0.0142101
1.62646
-0.0139273
1.62759
-0.013651
1.62874
-0.0133805
1.6299
-0.0131091
1.63108
-0.0128315
1.63227
-0.0125386
1.63349
-0.0122104
1.63474
-0.0118251
-0.0113898
1.55255
-0.160963
1.53969
-0.169719
1.53057
-0.177801
1.52408
-0.181893
1.5198
-0.18372
1.51741
-0.184321
1.51665
-0.183972
1.5172
-0.182803
1.51887
-0.180923
1.52146
-0.178491
1.52483
-0.175622
1.52883
-0.172389
1.53334
-0.168837
1.53825
-0.16501
1.5435
-0.16096
1.54899
-0.156747
1.55468
-0.152433
1.56046
-0.148091
1.56627
-0.143725
1.57213
-0.139356
1.57798
-0.135081
1.58379
-0.130859
1.58951
-0.126632
1.5951
-0.122425
1.60052
-0.118277
1.60574
-0.114207
1.61075
-0.110224
1.61553
-0.106341
1.62007
-0.102561
1.62437
-0.0988887
1.62844
-0.0953241
1.63227
-0.0918697
1.63587
-0.0885294
1.63924
-0.0853005
1.6424
-0.0821814
1.64536
-0.0791689
1.64812
-0.0762634
1.65068
-0.073467
1.65308
-0.070778
1.65531
-0.0681929
1.65739
-0.06571
1.65932
-0.0633297
1.66112
-0.0610469
1.6628
-0.0588592
1.66436
-0.0567638
1.66582
-0.0547562
1.66719
-0.0528317
1.66847
-0.050985
1.66968
-0.0492124
1.67082
-0.0475121
1.6719
-0.0458809
1.67293
-0.0443162
1.67391
-0.0428144
1.67485
-0.0413731
1.67576
-0.0399898
1.67663
-0.0386627
1.67749
-0.0373898
1.67832
-0.0361657
1.67914
-0.0349909
1.67995
-0.0338657
1.68075
-0.0327877
1.68156
-0.0317558
1.68237
-0.0307649
1.68318
-0.029814
1.684
-0.028905
1.68482
-0.0280348
1.68564
-0.0272012
1.68647
-0.0264028
1.68729
-0.0256383
1.68813
-0.0249066
1.68896
-0.0242067
1.6898
-0.0235366
1.69064
-0.0228948
1.69148
-0.0222809
1.69233
-0.0216949
1.69319
-0.021136
1.69406
-0.020603
1.69493
-0.0200946
1.69582
-0.0196094
1.69671
-0.0191467
1.69762
-0.0187055
1.69854
-0.0182851
1.69947
-0.0178846
1.70042
-0.0175041
1.70138
-0.0171419
1.70237
-0.0167965
1.70337
-0.0164667
1.70439
-0.0161534
1.70544
-0.0158544
1.7065
-0.0155709
1.70759
-0.0153008
1.70871
-0.0150433
1.70985
-0.014794
1.71102
-0.0145529
1.71223
-0.0143137
1.71347
-0.0140722
1.71475
-0.0138202
1.71608
-0.0135414
1.71747
-0.0132138
-0.0128345
1.61717
-0.139835
1.60108
-0.153632
1.58866
-0.165373
1.57931
-0.17255
1.57254
-0.176957
1.56791
-0.179697
1.56508
-0.181145
1.56376
-0.181497
1.56376
-0.180925
1.56486
-0.179602
1.56691
-0.17767
1.56975
-0.175236
1.57328
-0.172369
1.57741
-0.169135
1.58204
-0.165593
1.58711
-0.161809
1.59253
-0.157849
1.59821
-0.153772
1.60411
-0.149616
1.61018
-0.145416
1.61633
-0.141221
1.62251
-0.13703
1.62872
-0.132828
1.63494
-0.128634
1.64114
-0.124473
1.6473
-0.120361
1.6534
-0.116312
1.6594
-0.112341
1.6653
-0.108453
1.67107
-0.104657
1.67671
-0.100958
1.6822
-0.0973568
1.68753
-0.0938567
1.69269
-0.0904579
1.69767
-0.0871617
1.70247
-0.0839676
1.70709
-0.0808761
1.71151
-0.0778881
1.71573
-0.075002
1.71976
-0.0722163
1.72358
-0.0695305
1.72719
-0.0669454
1.7306
-0.0644581
1.73381
-0.0620659
1.73682
-0.0597673
1.73962
-0.0575592
1.74222
-0.0554381
1.74464
-0.0534004
1.74687
-0.0514445
1.74893
-0.0495697
1.75082
-0.0477747
1.75256
-0.0460574
1.75416
-0.0444154
1.75563
-0.0428467
1.75699
-0.0413483
1.75824
-0.0399179
1.75941
-0.0385535
1.76049
-0.0372507
1.7615
-0.0360078
1.76246
-0.0348261
1.76337
-0.0337022
1.76425
-0.0326318
1.7651
-0.0316147
1.76593
-0.0306483
1.76675
-0.0297264
1.76756
-0.0288464
1.76837
-0.0280078
1.76917
-0.0272083
1.76998
-0.0264458
1.77079
-0.0257191
1.77161
-0.0250266
1.77243
-0.024366
1.77327
-0.0237363
1.77413
-0.0231374
1.775
-0.0225678
1.77589
-0.0220268
1.7768
-0.0215133
1.77773
-0.0210261
1.77868
-0.0205641
1.77966
-0.020126
1.78066
-0.0197104
1.78169
-0.0193167
1.78275
-0.0189436
1.78384
-0.0185908
1.78495
-0.018257
1.7861
-0.0179417
1.78727
-0.0176434
1.78848
-0.0173618
1.78972
-0.0170945
1.79099
-0.0168446
1.7923
-0.0166089
1.79364
-0.016387
1.79502
-0.0161749
1.79644
-0.0159736
1.79791
-0.0157776
1.79942
-0.0155848
1.80099
-0.0153898
1.80263
-0.0151819
1.80436
-0.0149462
-0.0146766
1.61355
-0.117454
1.59525
-0.135324
1.5798
-0.149935
1.56777
-0.160527
1.55877
-0.167962
1.55224
-0.173174
1.54777
-0.176683
1.54505
-0.178784
1.54382
-0.179703
1.54386
-0.179645
1.54497
-0.178789
1.547
-0.17727
1.54983
-0.175197
1.55335
-0.172655
1.55748
-0.169721
1.56214
-0.166467
1.56726
-0.162961
1.57276
-0.159263
1.57857
-0.155419
1.58464
-0.151479
1.5909
-0.147477
1.59731
-0.143432
1.60385
-0.139357
1.6105
-0.135268
1.61722
-0.131188
1.624
-0.127135
1.63082
-0.123124
1.63766
-0.119169
1.64449
-0.11528
1.6513
-0.111467
1.65809
-0.107736
1.66482
-0.104091
1.67151
-0.100536
1.67812
-0.0970736
1.68467
-0.0937046
1.69113
-0.0904302
1.69751
-0.0872519
1.70379
-0.0841717
1.70998
-0.0811888
1.71607
-0.0783026
1.72205
-0.0755121
1.72792
-0.0728159
1.73368
-0.0702131
1.73931
-0.0677027
1.74483
-0.0652809
1.75021
-0.0629449
1.75547
-0.0606932
1.76059
-0.0585224
1.76558
-0.0564299
1.77042
-0.0544153
1.77512
-0.0524777
1.77968
-0.0506161
1.78409
-0.0488289
1.78836
-0.0471144
1.79248
-0.0454706
1.79646
-0.0438955
1.80029
-0.0423863
1.80397
-0.0409394
1.80752
-0.0395537
1.81092
-0.0382295
1.81418
-0.0369653
1.81731
-0.0357589
1.8203
-0.0346092
1.82316
-0.0335137
1.8259
-0.0324685
1.82853
-0.0314715
1.83104
-0.0305217
1.83345
-0.0296171
1.83576
-0.0287559
1.83797
-0.0279377
1.84011
-0.0271613
1.84216
-0.0264234
1.84415
-0.025724
1.84607
-0.0250643
1.84795
-0.0244413
1.84977
-0.0238539
1.85156
-0.0233012
1.85331
-0.0227826
1.85504
-0.0222959
1.85676
-0.0218393
1.85845
-0.0214113
1.86015
-0.0210116
1.86184
-0.0206378
1.86354
-0.020289
1.86524
-0.0199629
1.86696
-0.019661
1.8687
-0.0193806
1.87046
-0.0191217
1.87224
-0.0188827
1.87406
-0.0186607
1.8759
-0.0184527
1.87778
-0.0182623
1.87969
-0.0180853
1.88164
-0.0179223
1.88363
-0.0177707
1.88568
-0.0176318
1.88779
-0.0175016
1.88999
-0.0173835
1.89232
-0.017277
-0.0171905
1.99575
-0.0996875
-2.01351
1.97639
-0.11596
1.95767
-0.131209
1.94018
-0.143042
1.92419
-0.151965
1.90969
-0.158686
1.89666
-0.16365
1.88499
-0.167128
1.87462
-0.169331
1.86542
-0.170453
1.8573
-0.170671
1.85015
-0.170127
1.84389
-0.168937
1.83843
-0.167198
1.83371
-0.164994
1.82965
-0.162405
1.82619
-0.159499
1.82327
-0.156341
1.82084
-0.152984
1.81884
-0.149476
1.81722
-0.145855
1.81595
-0.142149
1.81497
-0.138379
1.81428
-0.134567
1.81383
-0.130735
1.8136
-0.126903
1.81357
-0.123087
1.81371
-0.119304
1.814
-0.115565
1.81442
-0.111883
1.81495
-0.108264
1.81558
-0.104715
1.81629
-0.101243
1.81706
-0.09785
1.8179
-0.0945384
1.81878
-0.0913107
1.8197
-0.0881699
1.82065
-0.0851182
1.82162
-0.0821561
1.8226
-0.0792833
1.82359
-0.0764998
1.82458
-0.0738048
1.82556
-0.0711975
1.82654
-0.0686766
1.8275
-0.06624
1.82844
-0.0638857
1.82936
-0.0616125
1.83025
-0.0594178
1.83112
-0.0572993
1.83196
-0.0552563
1.83277
-0.0532879
1.83355
-0.0513929
1.83429
-0.04957
1.83499
-0.0478175
1.83565
-0.0461337
1.83627
-0.0445162
1.83684
-0.0429629
1.83737
-0.041471
1.83786
-0.040039
1.83829
-0.038666
1.83868
-0.0373503
1.83901
-0.0360903
1.83928
-0.0348844
1.8395
-0.0337301
1.83965
-0.0326243
1.83974
-0.0315653
1.83977
-0.0305513
1.83974
-0.0295814
1.83963
-0.0286539
1.83946
-0.0277667
1.83922
-0.0269189
1.8389
-0.026112
1.83852
-0.025343
1.83807
-0.0246097
1.83754
-0.0239126
1.83693
-0.0232509
1.83625
-0.0226234
1.8355
-0.0220298
1.83467
-0.0214685
1.83377
-0.0209381
1.83279
-0.0204372
1.83175
-0.0199666
1.83063
-0.019524
1.82945
-0.0191092
1.82821
-0.0187211
1.82691
-0.0183606
1.82555
-0.018025
1.82415
-0.0177151
1.82269
-0.0174302
1.8212
-0.0171682
1.81968
-0.0169274
1.81812
-0.0167096
1.81655
-0.0165114
1.81496
-0.0163361
1.81337
-0.0161804
1.81179
-0.0160512
1.81024
-0.0159487
1.80873
-0.0158787
1.80733
-0.0158759
-0.0160391
2.01443
-0.0819088
-2.0322
1.9971
-0.0986197
1.98009
-0.1142
1.96416
-0.127113
1.9495
-0.137297
1.93606
-0.145258
1.92382
-0.151407
1.9127
-0.156013
1.90265
-0.159281
1.89359
-0.161403
1.88546
-0.162549
1.8782
-0.162862
1.87172
-0.162465
1.86598
-0.161458
1.86092
-0.159931
1.85648
-0.157964
1.85261
-0.155631
1.84927
-0.152995
1.8464
-0.150113
1.84397
-0.147034
1.84192
-0.143799
1.84022
-0.14044
1.83883
-0.136986
1.83773
-0.13346
1.83688
-0.129887
1.83627
-0.126287
1.83587
-0.122681
1.83566
-0.119083
1.8356
-0.115509
1.8357
-0.111972
1.83592
-0.10848
1.83625
-0.105044
1.83668
-0.101669
1.83719
-0.098362
1.83778
-0.095124
1.83843
-0.0919585
1.83913
-0.0888701
1.83988
-0.0858614
1.84065
-0.0829337
1.84146
-0.0800876
1.84228
-0.0773239
1.84312
-0.0746425
1.84397
-0.0720433
1.84482
-0.0695258
1.84567
-0.0670885
1.84651
-0.0647303
1.84735
-0.0624505
1.84818
-0.0602472
1.849
-0.0581185
1.84981
-0.0560638
1.8506
-0.054082
1.85138
-0.0521721
1.85214
-0.0503327
1.85288
-0.0485625
1.85361
-0.0468597
1.85431
-0.0452223
1.855
-0.0436482
1.85566
-0.0421355
1.8563
-0.0406824
1.85692
-0.0392876
1.85752
-0.0379496
1.85809
-0.0366666
1.85865
-0.0354369
1.85917
-0.0342583
1.85967
-0.0331283
1.86015
-0.032045
1.86061
-0.0310068
1.86104
-0.0300125
1.86144
-0.0290602
1.86182
-0.0281487
1.86218
-0.0272766
1.86251
-0.0264439
1.86282
-0.0256489
1.86309
-0.0248896
1.86335
-0.0241657
1.86357
-0.0234766
1.86377
-0.022821
1.86393
-0.0221976
1.86407
-0.0216049
1.86417
-0.0210429
1.86425
-0.0205105
1.86428
-0.0200058
1.86429
-0.0195283
1.86425
-0.0190771
1.86418
-0.0186511
1.86407
-0.0182512
1.86392
-0.0178767
1.86373
-0.0175264
1.8635
-0.0171978
1.86323
-0.0168923
1.86291
-0.0166086
1.86254
-0.0163469
1.86214
-0.0161065
1.86169
-0.0158906
1.86121
-0.0156982
1.86069
-0.0155333
1.86015
-0.0154038
1.85958
-0.0153178
1.85902
-0.0153123
-0.0154883
2.02546
-0.0646436
-2.04271
2.00924
-0.0823881
1.99349
-0.0984485
1.97856
-0.112173
1.96464
-0.123374
1.95176
-0.132383
1.93991
-0.139563
1.92907
-0.145172
1.9192
-0.149409
1.91024
-0.152452
1.90215
-0.154466
1.89488
-0.155591
1.88836
-0.155949
1.88255
-0.155645
1.87739
-0.15477
1.87283
-0.153407
1.86883
-0.151629
1.86534
-0.149503
1.86231
-0.147086
1.85971
-0.14443
1.8575
-0.141578
1.85563
-0.138565
1.85407
-0.135425
1.8528
-0.132184
1.85178
-0.128869
1.851
-0.125502
1.85043
-0.122104
1.85004
-0.118693
1.84982
-0.115287
1.84975
-0.1119
1.84982
-0.108541
1.85
-0.105221
1.85028
-0.101947
1.85064
-0.0987275
1.85109
-0.0955665
1.8516
-0.0924692
1.85217
-0.0894395
1.85279
-0.0864794
1.85345
-0.0835911
1.85414
-0.0807765
1.85485
-0.078037
1.85558
-0.0753737
1.85633
-0.072787
1.85708
-0.0702772
1.85784
-0.0678439
1.85859
-0.0654866
1.85935
-0.0632046
1.8601
-0.0609969
1.86084
-0.0588623
1.86158
-0.0568
1.8623
-0.0548092
1.86302
-0.0528889
1.86372
-0.0510377
1.86441
-0.0492545
1.86509
-0.0475376
1.86575
-0.0458852
1.8664
-0.0442957
1.86703
-0.0427671
1.86764
-0.0412979
1.86824
-0.0398867
1.86882
-0.0385319
1.86939
-0.0372318
1.86993
-0.0359848
1.87046
-0.0347889
1.87098
-0.0336419
1.87147
-0.032542
1.87195
-0.0314877
1.87242
-0.0304775
1.87287
-0.0295099
1.8733
-0.0285835
1.87372
-0.0276972
1.87412
-0.0268501
1.87452
-0.0260409
1.87489
-0.0252682
1.87526
-0.0245311
1.87561
-0.0238289
1.87595
-0.0231603
1.87627
-0.0225242
1.87659
-0.0219195
1.87689
-0.0213454
1.87718
-0.020801
1.87746
-0.0202848
1.87773
-0.0197961
1.87798
-0.019334
1.87823
-0.0188979
1.87846
-0.0184875
1.87869
-0.0181024
1.8789
-0.0177418
1.87911
-0.0174042
1.87931
-0.0170898
1.8795
-0.0167982
1.87968
-0.0165291
1.87986
-0.0162827
1.88003
-0.0160611
1.88019
-0.0158652
1.88036
-0.0156985
1.88052
-0.0155675
1.88068
-0.0154812
1.88083
-0.0154588
-0.0155301
2.03042
-0.0482463
-2.0468
2.0151
-0.0670649
2.00041
-0.0837481
1.98642
-0.0981757
1.9733
-0.110253
1.96112
-0.120199
1.94987
-0.128311
1.93952
-0.134831
1.93006
-0.139949
1.92144
-0.143837
1.91363
-0.14665
1.90656
-0.148527
1.9002
-0.149589
1.89449
-0.149941
1.8894
-0.149678
1.88488
-0.148883
1.88088
-0.14763
1.87737
-0.145988
1.8743
-0.144016
1.87164
-0.141765
1.86935
-0.139283
1.86739
-0.136607
1.86574
-0.133773
1.86437
-0.13081
1.86326
-0.127747
1.86237
-0.124609
1.86168
-0.121416
1.86119
-0.118193
1.86086
-0.114954
1.86068
-0.111714
1.86063
-0.108487
1.86069
-0.105284
1.86086
-0.102112
1.86111
-0.0989794
1.86145
-0.0958965
1.86185
-0.0928688
1.86231
-0.0898986
1.86282
-0.0869888
1.86337
-0.0841425
1.86396
-0.0813622
1.86457
-0.0786501
1.86521
-0.0760079
1.86586
-0.073437
1.86652
-0.0709383
1.86719
-0.0685121
1.86786
-0.0661588
1.86853
-0.0638779
1.86921
-0.0616687
1.86987
-0.059531
1.87054
-0.057464
1.87119
-0.0554668
1.87184
-0.0535386
1.87248
-0.0516783
1.87311
-0.0498846
1.87373
-0.0481563
1.87434
-0.0464916
1.87493
-0.0448891
1.87551
-0.0433472
1.87607
-0.0418642
1.87662
-0.0404389
1.87716
-0.0390697
1.87768
-0.037755
1.87819
-0.0364933
1.87868
-0.0352826
1.87916
-0.0341211
1.87962
-0.0330071
1.88007
-0.031939
1.88051
-0.0309154
1.88094
-0.0299348
1.88135
-0.0289959
1.88175
-0.0280975