/*--------------------------------*- C++ -*----------------------------------*\
  =========                 |
  \\      /  F ield         | OpenFOAM: The Open Source CFD Toolbox
   \\    /   O peration     | Website:  https://openfoam.org
    \\  /    A nd           | Version:  8
     \\/     M anipulation  |
\*---------------------------------------------------------------------------*/
FoamFile
{
    version     2.0;
    format      ascii;
    class       volScalarField;
    location    "0.999962";
    object      rho;
}
// * * * * * * * * * * * * * * * * * * * * * * * * * * * * * * * * * * * * * //

dimensions      [1 -3 0 0 0 0 0];

internalField   nonuniform List<scalar> 
6800
(
0.590153
0.59034
0.590414
0.590497
0.590628
0.590834
0.590998
0.591104
0.591179
0.591232
0.590144
0.590311
0.590369
0.590531
0.59078
0.590924
0.591023
0.591106
0.591178
0.591239
0.58971
0.590135
0.590293
0.590584
0.590751
0.590881
0.590988
0.591083
0.59116
0.591228
0.58914
0.589937
0.59024
0.590471
0.590676
0.590828
0.59094
0.591038
0.591129
0.59121
0.588561
0.589726
0.590002
0.590347
0.590576
0.590732
0.590865
0.590983
0.591086
0.591173
0.58794
0.589433
0.589798
0.59019
0.59044
0.59063
0.590785
0.590914
0.591028
0.591129
0.587384
0.58918
0.58954
0.590019
0.5903
0.590515
0.590689
0.590843
0.59098
0.591092
0.586873
0.588896
0.58932
0.589862
0.590169
0.590419
0.590621
0.590793
0.590942
0.591062
0.586487
0.58869
0.589128
0.589737
0.590061
0.590339
0.590565
0.590757
0.590918
0.591052
0.586205
0.58851
0.589007
0.589646
0.589992
0.5903
0.590543
0.590748
0.590918
0.591059
0.590557
0.590458
0.590403
0.590399
0.590419
0.590456
0.590507
0.59057
0.590641
0.590718
0.590517
0.590429
0.590376
0.590366
0.590379
0.59041
0.590462
0.59053
0.590611
0.590697
0.590442
0.59037
0.590326
0.590312
0.590317
0.590341
0.590392
0.590466
0.590557
0.590656
0.590344
0.590297
0.590267
0.590255
0.590259
0.59028
0.590335
0.590423
0.590526
0.590637
0.590256
0.590234
0.59022
0.590218
0.590234
0.590275
0.590346
0.590434
0.590541
0.590646
0.590184
0.590186
0.590201
0.590226
0.590276
0.590343
0.59042
0.590501
0.590595
0.590688
0.590128
0.590163
0.590222
0.590297
0.590383
0.590449
0.590515
0.590582
0.590664
0.59076
0.590077
0.590167
0.590281
0.590423
0.590509
0.590541
0.590592
0.590651
0.590749
0.590896
0.590024
0.590184
0.590429
0.590522
0.590559
0.5906
0.590673
0.590782
0.590918
0.591118
0.590024
0.590259
0.59047
0.590526
0.590575
0.590667
0.590819
0.59099
0.591137
0.591249
0.59081
0.59091
0.590999
0.591081
0.591155
0.591221
0.591282
0.591338
0.591387
0.59143
0.591469
0.591503
0.591533
0.591559
0.591583
0.591603
0.59162
0.591635
0.591647
0.591657
0.591665
0.591672
0.591678
0.591684
0.591689
0.591693
0.591698
0.5917
0.591703
0.591707
0.591707
0.591708
0.591711
0.59171
0.591707
0.591708
0.591706
0.591703
0.591698
0.591695
0.591693
0.591693
0.591694
0.591695
0.591697
0.5917
0.591704
0.591707
0.591711
0.591715
0.591718
0.591722
0.591725
0.591728
0.59173
0.591733
0.591734
0.591735
0.591736
0.591736
0.591736
0.591736
0.591736
0.591735
0.591735
0.591734
0.591733
0.591733
0.591732
0.591732
0.591732
0.591732
0.591732
0.591733
0.591734
0.591735
0.591734
0.591732
0.591732
0.591734
0.591736
0.59174
0.591744
0.591749
0.591754
0.591759
0.591764
0.591769
0.591773
0.591777
0.591781
0.591784
0.591787
0.59179
0.591792
0.591794
0.591795
0.591796
0.591798
0.591799
0.590786
0.590888
0.590977
0.591059
0.591135
0.591203
0.591266
0.591322
0.591372
0.591416
0.591456
0.591491
0.591522
0.591549
0.591573
0.591593
0.591611
0.591625
0.591638
0.591648
0.591657
0.591664
0.591671
0.591677
0.591683
0.591687
0.591693
0.591696
0.591701
0.591703
0.591704
0.591704
0.591707
0.591707
0.591706
0.591704
0.591704
0.591702
0.591696
0.591693
0.591692
0.591692
0.591693
0.591695
0.591697
0.5917
0.591703
0.591707
0.59171
0.591714
0.591717
0.591721
0.591724
0.591727
0.591729
0.591731
0.591732
0.591733
0.591734
0.591734
0.591734
0.591734
0.591733
0.591733
0.591732
0.591732
0.591731
0.59173
0.59173
0.59173
0.591729
0.59173
0.59173
0.591731
0.591733
0.591732
0.591731
0.59173
0.591731
0.591733
0.591736
0.59174
0.591744
0.591749
0.591754
0.591759
0.591763
0.591768
0.591772
0.591776
0.59178
0.591783
0.591786
0.591788
0.59179
0.591792
0.591794
0.591795
0.591796
0.591797
0.590745
0.590845
0.590931
0.591011
0.591087
0.591156
0.591219
0.591276
0.591329
0.591376
0.591419
0.591457
0.591491
0.59152
0.591547
0.591569
0.591589
0.591606
0.591621
0.591634
0.591645
0.591654
0.591662
0.591669
0.591676
0.591682
0.591689
0.591692
0.591697
0.591699
0.591702
0.591702
0.591703
0.591703
0.591705
0.591704
0.591703
0.591702
0.591697
0.591694
0.591692
0.591692
0.591693
0.591695
0.591698
0.5917
0.591704
0.591707
0.59171
0.591714
0.591717
0.59172
0.591723
0.591725
0.591727
0.591729
0.59173
0.591731
0.591731
0.591731
0.591731
0.591731
0.59173
0.59173
0.591729
0.591729
0.591728
0.591728
0.591727
0.591727
0.591727
0.591728
0.591729
0.59173
0.59173
0.59173
0.591729
0.591729
0.59173
0.591732
0.591736
0.59174
0.591744
0.591749
0.591753
0.591758
0.591763
0.591767
0.591771
0.591775
0.591778
0.591781
0.591784
0.591786
0.591788
0.591789
0.591791
0.591792
0.591793
0.591794
0.590703
0.590794
0.590878
0.590957
0.59103
0.591098
0.59116
0.59122
0.591275
0.591325
0.591371
0.591413
0.591451
0.591486
0.591517
0.591544
0.591568
0.59159
0.591608
0.591623
0.591637
0.591648
0.591658
0.591667
0.591675
0.591682
0.591689
0.591694
0.591701
0.591702
0.591705
0.591704
0.591705
0.591706
0.591707
0.591707
0.591711
0.591709
0.591706
0.591701
0.591699
0.591698
0.591699
0.591701
0.591703
0.591705
0.591708
0.591711
0.591714
0.591717
0.59172
0.591722
0.591725
0.591727
0.591728
0.59173
0.591731
0.591731
0.591731
0.591731
0.591731
0.591731
0.59173
0.591729
0.591729
0.591728
0.591728
0.591728
0.591727
0.591727
0.591728
0.591729
0.59173
0.591732
0.591731
0.59173
0.591729
0.59173
0.591731
0.591734
0.591737
0.591741
0.591745
0.591749
0.591754
0.591758
0.591762
0.591766
0.59177
0.591774
0.591777
0.591779
0.591782
0.591784
0.591786
0.591787
0.591789
0.59179
0.591791
0.591792
0.590674
0.590755
0.590844
0.590924
0.590996
0.591064
0.591122
0.591182
0.591238
0.59129
0.59134
0.591385
0.591425
0.591463
0.591498
0.591529
0.591558
0.591583
0.591605
0.591625
0.591641
0.591655
0.591668
0.591678
0.591687
0.591695
0.591702
0.591708
0.591716
0.591719
0.591719
0.59172
0.591723
0.591723
0.591724
0.591724
0.591728
0.591724
0.591725
0.591721
0.591718
0.591717
0.591717
0.591718
0.591719
0.591721
0.591723
0.591725
0.591727
0.591729
0.591731
0.591732
0.591734
0.591735
0.591736
0.591737
0.591737
0.591738
0.591738
0.591737
0.591737
0.591736
0.591736
0.591735
0.591734
0.591734
0.591733
0.591733
0.591733
0.591733
0.591734
0.591735
0.591736
0.591736
0.591736
0.591735
0.591735
0.591736
0.591738
0.59174
0.591743
0.591747
0.59175
0.591754
0.591758
0.591762
0.591766
0.591769
0.591772
0.591775
0.591778
0.59178
0.591783
0.591784
0.591786
0.591787
0.591789
0.59179
0.59179
0.591792
0.590677
0.590749
0.590843
0.590926
0.590999
0.591064
0.591123
0.591186
0.591245
0.5913
0.59135
0.591397
0.591441
0.591482
0.59152
0.591556
0.591588
0.591617
0.591643
0.591665
0.591683
0.591698
0.591711
0.591722
0.591731
0.591739
0.591745
0.591751
0.591756
0.59176
0.591762
0.591767
0.591765
0.591767
0.591766
0.591766
0.591765
0.591767
0.591764
0.591763
0.591758
0.591755
0.591753
0.591753
0.591752
0.591753
0.591753
0.591754
0.591754
0.591755
0.591756
0.591756
0.591757
0.591757
0.591757
0.591757
0.591757
0.591756
0.591756
0.591755
0.591754
0.591753
0.591752
0.591752
0.591751
0.59175
0.59175
0.591749
0.591749
0.591749
0.591749
0.591751
0.591752
0.591751
0.591751
0.591749
0.591749
0.59175
0.591751
0.591753
0.591756
0.591758
0.591762
0.591765
0.591768
0.591771
0.591774
0.591777
0.59178
0.591782
0.591784
0.591786
0.591788
0.59179
0.591791
0.591792
0.591793
0.591794
0.591795
0.591796
0.590735
0.590811
0.590921
0.591013
0.591088
0.591162
0.591233
0.591293
0.591351
0.591404
0.591453
0.591499
0.591543
0.591583
0.591621
0.591656
0.591688
0.591717
0.591743
0.591765
0.591784
0.5918
0.591811
0.591822
0.59183
0.591836
0.591841
0.591844
0.591846
0.591849
0.591849
0.591849
0.591848
0.591848
0.591845
0.591844
0.591841
0.591839
0.591836
0.591833
0.591829
0.591825
0.591823
0.591819
0.591816
0.591814
0.591812
0.59181
0.591808
0.591807
0.591805
0.591804
0.591802
0.5918
0.591799
0.591797
0.591796
0.591794
0.591793
0.591791
0.591789
0.591788
0.591786
0.591785
0.591784
0.591783
0.591782
0.591781
0.59178
0.59178
0.591779
0.59178
0.59178
0.591779
0.591778
0.591777
0.591776
0.591776
0.591777
0.591779
0.59178
0.591782
0.591784
0.591786
0.591788
0.59179
0.591792
0.591794
0.591796
0.591797
0.591799
0.591801
0.591802
0.591803
0.591804
0.591805
0.591806
0.591806
0.591807
0.591807
0.590875
0.590948
0.591059
0.591157
0.59124
0.591313
0.59138
0.591445
0.591502
0.591553
0.5916
0.591645
0.591687
0.591727
0.591765
0.591801
0.591834
0.591864
0.59189
0.591913
0.591933
0.591948
0.59196
0.59197
0.591977
0.591982
0.591986
0.591988
0.591989
0.591989
0.591988
0.591986
0.591984
0.59198
0.591977
0.591973
0.591968
0.591963
0.591958
0.591952
0.591947
0.591941
0.591935
0.591929
0.591923
0.591918
0.591912
0.591907
0.591902
0.591897
0.591892
0.591887
0.591883
0.591879
0.591875
0.591871
0.591867
0.591864
0.59186
0.591856
0.591853
0.591849
0.591846
0.591843
0.591841
0.59184
0.591838
0.591836
0.591834
0.591833
0.591831
0.591829
0.591828
0.591827
0.591825
0.591823
0.591822
0.591821
0.59182
0.59182
0.59182
0.59182
0.591821
0.591821
0.591821
0.591822
0.591823
0.591823
0.591824
0.591825
0.591826
0.591827
0.591828
0.591828
0.591829
0.591829
0.59183
0.59183
0.59183
0.59183
0.591096
0.591158
0.591254
0.591344
0.591418
0.591484
0.591541
0.591594
0.591646
0.591692
0.591734
0.591774
0.591811
0.591848
0.591882
0.591916
0.591946
0.591973
0.591998
0.592019
0.592038
0.592054
0.592067
0.592078
0.592088
0.592095
0.592102
0.592107
0.592112
0.592115
0.592117
0.592118
0.592118
0.592117
0.592116
0.592114
0.592112
0.592109
0.592106
0.592102
0.592098
0.592093
0.592088
0.592082
0.592075
0.592069
0.592062
0.592055
0.592047
0.592039
0.592031
0.592024
0.592016
0.592008
0.592001
0.591993
0.591986
0.59198
0.591973
0.591965
0.591959
0.591952
0.591944
0.59194
0.591938
0.591935
0.591931
0.591927
0.591923
0.59192
0.591916
0.591912
0.591909
0.591905
0.591902
0.591898
0.591896
0.591893
0.59189
0.591888
0.591886
0.591884
0.591882
0.59188
0.591878
0.591875
0.591873
0.591872
0.591872
0.591872
0.591872
0.591872
0.591872
0.591871
0.591871
0.591871
0.59187
0.591869
0.591868
0.591867
0.591246
0.591296
0.59137
0.591446
0.591512
0.591571
0.591625
0.591672
0.591722
0.591764
0.591804
0.591843
0.591875
0.591909
0.591939
0.591968
0.591994
0.592021
0.592044
0.592064
0.592085
0.592101
0.592116
0.592128
0.592138
0.592147
0.592153
0.592159
0.592164
0.592167
0.592169
0.592171
0.592172
0.592173
0.592175
0.592175
0.592176
0.592177
0.592177
0.592177
0.592177
0.592177
0.592175
0.592172
0.59217
0.592167
0.592164
0.592162
0.592159
0.592155
0.59215
0.592146
0.592141
0.592136
0.592131
0.592127
0.592122
0.592117
0.592112
0.592106
0.592099
0.592093
0.592087
0.592082
0.592076
0.592071
0.592066
0.59206
0.592055
0.59205
0.592044
0.592038
0.592032
0.592026
0.59202
0.592015
0.592009
0.592003
0.591998
0.591992
0.591987
0.591982
0.591977
0.591972
0.591967
0.59196
0.591956
0.591951
0.591948
0.591948
0.591947
0.591945
0.591943
0.591941
0.591938
0.591936
0.591934
0.591932
0.59193
0.591927
0.591331
0.591392
0.59146
0.591529
0.591593
0.59165
0.591702
0.591748
0.591791
0.591831
0.591868
0.591903
0.591936
0.591968
0.591997
0.592023
0.592047
0.592069
0.592088
0.592104
0.592119
0.592131
0.592142
0.592152
0.59216
0.592167
0.592173
0.592177
0.592181
0.592183
0.592184
0.592184
0.592184
0.592184
0.592185
0.592185
0.592187
0.592189
0.592191
0.592194
0.592197
0.592199
0.592201
0.592202
0.592203
0.592203
0.592203
0.592202
0.5922
0.592199
0.592197
0.592195
0.592193
0.59219
0.592188
0.592186
0.592183
0.592181
0.592178
0.592176
0.592173
0.59217
0.592168
0.592165
0.592163
0.59216
0.592157
0.592154
0.592151
0.592148
0.592145
0.592139
0.592138
0.592135
0.592132
0.592128
0.592125
0.592121
0.592117
0.592112
0.592108
0.592103
0.592099
0.592094
0.592088
0.592083
0.592078
0.592072
0.592067
0.592062
0.592057
0.592053
0.592047
0.592042
0.592037
0.592031
0.592027
0.592026
0.59202
0.592017
0.591389
0.591456
0.591526
0.591593
0.591654
0.591708
0.591758
0.591801
0.591841
0.591877
0.591911
0.591943
0.591973
0.592
0.592026
0.592049
0.592069
0.592088
0.592104
0.592118
0.59213
0.592141
0.59215
0.592157
0.592164
0.592169
0.592173
0.592176
0.592178
0.592179
0.59218
0.59218
0.592181
0.592181
0.592182
0.592184
0.592188
0.592192
0.592197
0.592202
0.592207
0.592211
0.592214
0.592216
0.592217
0.592218
0.592218
0.592218
0.592217
0.592215
0.592214
0.592212
0.592211
0.592209
0.592208
0.592206
0.592204
0.592202
0.592201
0.592199
0.592197
0.592196
0.592194
0.592193
0.592191
0.59219
0.592188
0.592187
0.592185
0.592184
0.592182
0.592181
0.592179
0.592178
0.592176
0.592174
0.592173
0.592172
0.59217
0.592168
0.592166
0.592165
0.592163
0.592161
0.592159
0.592157
0.592154
0.592153
0.592151
0.592148
0.592145
0.592142
0.592139
0.592135
0.592132
0.592129
0.592123
0.592122
0.592117
0.592114
0.591438
0.5915
0.591566
0.591627
0.591683
0.591735
0.591783
0.591826
0.591867
0.591905
0.591939
0.591971
0.591999
0.592025
0.592048
0.592068
0.592085
0.5921
0.592114
0.592125
0.592135
0.592144
0.592152
0.592158
0.592163
0.592167
0.59217
0.592171
0.592172
0.592173
0.592173
0.592175
0.592176
0.592177
0.592178
0.592179
0.592184
0.592189
0.592195
0.592202
0.592208
0.592213
0.592217
0.59222
0.592222
0.592224
0.592225
0.592225
0.592224
0.592224
0.592223
0.592222
0.59222
0.592219
0.592218
0.592216
0.592215
0.592213
0.592212
0.59221
0.592209
0.592207
0.592206
0.592204
0.592203
0.592202
0.5922
0.592199
0.592198
0.592197
0.592196
0.592195
0.592194
0.592193
0.592192
0.592191
0.59219
0.592189
0.592188
0.592187
0.592186
0.592186
0.592185
0.592184
0.592183
0.592182
0.592181
0.59218
0.592179
0.592178
0.592177
0.592176
0.592175
0.592174
0.592173
0.592171
0.59217
0.592168
0.592167
0.592165
0.591489
0.591545
0.591608
0.591666
0.591719
0.591768
0.591814
0.591855
0.591894
0.591929
0.591961
0.591989
0.592015
0.592038
0.592058
0.592076
0.592091
0.592105
0.592116
0.592127
0.592136
0.592144
0.592151
0.592157
0.592162
0.592166
0.592169
0.592171
0.592176
0.592178
0.59218
0.592182
0.592186
0.592187
0.592187
0.59219
0.592193
0.592198
0.592204
0.592209
0.592214
0.592219
0.592223
0.592225
0.592228
0.592229
0.59223
0.59223
0.59223
0.592229
0.592228
0.592227
0.592226
0.592225
0.592224
0.592223
0.592221
0.59222
0.592218
0.592217
0.592215
0.592214
0.592213
0.592211
0.59221
0.592208
0.592207
0.592206
0.592205
0.592204
0.592203
0.592202
0.592201
0.5922
0.5922
0.592199
0.592198
0.592197
0.592196
0.592195
0.592194
0.592194
0.592193
0.592192
0.592191
0.59219
0.59219
0.592189
0.592188
0.592188
0.592187
0.592186
0.592186
0.592185
0.592185
0.592184
0.592183
0.592182
0.592182
0.592181
0.59154
0.591589
0.591648
0.591701
0.59175
0.591794
0.591837
0.591876
0.591913
0.591948
0.591979
0.592008
0.592034
0.592057
0.592078
0.592095
0.592109
0.592122
0.592133
0.592142
0.59215
0.592157
0.592163
0.592168
0.592173
0.592177
0.592181
0.592185
0.59219
0.592194
0.592196
0.592199
0.592201
0.592205
0.592208
0.592212
0.592215
0.592219
0.592222
0.592225
0.592228
0.59223
0.592232
0.592233
0.592234
0.592235
0.592235
0.592235
0.592234
0.592234
0.592233
0.592232
0.592231
0.592229
0.592228
0.592227
0.592226
0.592224
0.592223
0.592222
0.592221
0.592219
0.592218
0.592217
0.592216
0.592214
0.592213
0.592212
0.592211
0.59221
0.592209
0.592208
0.592207
0.592206
0.592205
0.592204
0.592204
0.592203
0.592202
0.592201
0.5922
0.592199
0.592198
0.592197
0.592197
0.592196
0.592195
0.592195
0.592194
0.592193
0.592193
0.592192
0.592192
0.592191
0.592191
0.59219
0.592189
0.592188
0.592188
0.592187
0.591591
0.591635
0.591688
0.591738
0.591782
0.591824
0.591863
0.5919
0.591935
0.591967
0.591997
0.592024
0.592049
0.592071
0.592091
0.592107
0.592121
0.592133
0.592144
0.592153
0.592162
0.592169
0.592176
0.592182
0.592188
0.592192
0.592197
0.592203
0.592206
0.59221
0.592214
0.592216
0.59222
0.592222
0.592222
0.592223
0.592224
0.592226
0.592228
0.59223
0.592232
0.592234
0.592235
0.592236
0.592237
0.592237
0.592237
0.592237
0.592236
0.592236
0.592235
0.592234
0.592233
0.592232
0.592231
0.59223
0.592229
0.592228
0.592226
0.592225
0.592224
0.592223
0.592222
0.592221
0.592219
0.592218
0.592217
0.592216
0.592215
0.592214
0.592213
0.592212
0.592211
0.59221
0.59221
0.592209
0.592208
0.592207
0.592206
0.592205
0.592204
0.592203
0.592202
0.592201
0.5922
0.592199
0.592199
0.592198
0.592198
0.592197
0.592196
0.592196
0.592195
0.592195
0.592194
0.592194
0.592193
0.592192
0.592191
0.592191
0.591641
0.591681
0.591729
0.591774
0.591814
0.591852
0.591887
0.591921
0.591953
0.591982
0.59201
0.592035
0.592058
0.592079
0.592098
0.592114
0.592129
0.592141
0.592152
0.592161
0.59217
0.592177
0.592184
0.592191
0.592197
0.592203
0.592209
0.592214
0.592219
0.592223
0.592227
0.592231
0.592234
0.592236
0.592238
0.592239
0.592241
0.592241
0.592242
0.592242
0.592242
0.592242
0.592242
0.592242
0.592241
0.59224
0.59224
0.592239
0.592238
0.592237
0.592237
0.592236
0.592235
0.592234
0.592233
0.592232
0.592231
0.592229
0.592228
0.592227
0.592226
0.592225
0.592224
0.592223
0.592222
0.592221
0.59222
0.592219
0.592218
0.592217
0.592217
0.592216
0.592215
0.592214
0.592213
0.592212
0.592211
0.59221
0.592209
0.592208
0.592207
0.592207
0.592206
0.592205
0.592205
0.592204
0.592203
0.592203
0.592202
0.592201
0.5922
0.592199
0.592198
0.592198
0.592197
0.592197
0.592196
0.592195
0.592195
0.592194
0.591691
0.591726
0.591769
0.59181
0.591846
0.59188
0.591913
0.591944
0.591974
0.592001
0.592027
0.592052
0.592074
0.592094
0.592112
0.592128
0.592142
0.592154
0.592165
0.592174
0.592183
0.59219
0.592197
0.592203
0.592209
0.592215
0.59222
0.592224
0.592228
0.592231
0.592234
0.592237
0.592239
0.592241
0.592242
0.592243
0.592243
0.592244
0.592244
0.592244
0.592243
0.592242
0.592242
0.592241
0.59224
0.59224
0.592239
0.592239
0.592238
0.592237
0.592237
0.592236
0.592235
0.592234
0.592233
0.592232
0.592231
0.59223
0.592229
0.592228
0.592227
0.592226
0.592225
0.592224
0.592223
0.592222
0.592221
0.59222
0.59222
0.592219
0.592218
0.592217
0.592217
0.592216
0.592215
0.592214
0.592213
0.592213
0.592212
0.592211
0.592211
0.59221
0.592209
0.592208
0.592208
0.592207
0.592205
0.592205
0.592204
0.592203
0.592202
0.592202
0.592201
0.5922
0.5922
0.592199
0.592199
0.592198
0.592198
0.592197
0.591739
0.591768
0.591807
0.591844
0.591877
0.591908
0.591937
0.591965
0.591992
0.592016
0.59204
0.592062
0.592082
0.5921
0.592117
0.592132
0.592145
0.592156
0.592166
0.592175
0.592183
0.592191
0.592197
0.592204
0.592209
0.592215
0.59222
0.592224
0.592227
0.59223
0.592234
0.592237
0.592239
0.59224
0.592242
0.592242
0.592243
0.592243
0.592243
0.592243
0.592242
0.592242
0.592242
0.59224
0.592239
0.592239
0.592238
0.592238
0.592237
0.592237
0.592236
0.592235
0.592235
0.592234
0.592233
0.592232
0.592232
0.592231
0.59223
0.592229
0.592228
0.592227
0.592226
0.592225
0.592224
0.592223
0.592223
0.592222
0.592221
0.59222
0.592219
0.592218
0.592217
0.592217
0.592216
0.592215
0.592215
0.592214
0.592213
0.592213
0.592212
0.592212
0.592211
0.59221
0.59221
0.592209
0.592209
0.592208
0.592207
0.592207
0.592206
0.592205
0.592204
0.592203
0.592202
0.592202
0.592201
0.5922
0.5922
0.592199
0.591786
0.591812
0.591846
0.591878
0.591908
0.591935
0.591962
0.591987
0.592011
0.592034
0.592055
0.592075
0.592094
0.592111
0.592126
0.59214
0.592152
0.592163
0.592172
0.59218
0.592187
0.592194
0.5922
0.592206
0.592211
0.592216
0.59222
0.592224
0.592227
0.59223
0.592233
0.592235
0.592237
0.592238
0.592239
0.59224
0.59224
0.59224
0.59224
0.59224
0.592239
0.592239
0.592238
0.592238
0.592237
0.592237
0.592236
0.592236
0.592235
0.592235
0.592234
0.592234
0.592233
0.592233
0.592232
0.592231
0.592231
0.59223
0.592229
0.592228
0.592227
0.592226
0.592225
0.592225
0.592224
0.592223
0.592222
0.592222
0.592221
0.59222
0.592219
0.592219
0.592218
0.592217
0.592217
0.592216
0.592215
0.592215
0.592214
0.592213
0.592213
0.592212
0.592212
0.592211
0.592211
0.59221
0.59221
0.592209
0.592208
0.592207
0.592207
0.592206
0.592205
0.592205
0.592205
0.592204
0.592203
0.592203
0.592202
0.592202
0.591831
0.591853
0.591882
0.591911
0.591937
0.591962
0.591985
0.592008
0.592029
0.59205
0.592069
0.592087
0.592103
0.592119
0.592133
0.592145
0.592157
0.592167
0.592176
0.592184
0.592191
0.592198
0.592204
0.592209
0.592214
0.592218
0.592222
0.592225
0.592228
0.59223
0.592232
0.592234
0.592235
0.592236
0.592236
0.592237
0.592237
0.592237
0.592237
0.592236
0.592236
0.592236
0.592235
0.592234
0.592234
0.592234
0.592233
0.592233
0.592233
0.592233
0.592233
0.592232
0.592232
0.592231
0.592231
0.59223
0.59223
0.592229
0.592228
0.592228
0.592227
0.592226
0.592225
0.592224
0.592224
0.592223
0.592222
0.592221
0.592221
0.59222
0.592219
0.592219
0.592218
0.592218
0.592217
0.592216
0.592216
0.592215
0.592214
0.592214
0.592213
0.592213
0.592212
0.592212
0.592212
0.592211
0.592211
0.59221
0.59221
0.592209
0.592209
0.592208
0.592208
0.592207
0.592207
0.592206
0.592205
0.592205
0.592204
0.592204
0.591875
0.591894
0.591919
0.591944
0.591967
0.591988
0.592009
0.592029
0.592048
0.592067
0.592084
0.5921
0.592115
0.592129
0.592141
0.592153
0.592163
0.592172
0.59218
0.592188
0.592194
0.5922
0.592205
0.592209
0.592214
0.592217
0.592221
0.592223
0.592226
0.592228
0.592229
0.59223
0.592231
0.592232
0.592233
0.592233
0.592233
0.592233
0.592233
0.592233
0.592233
0.592232
0.592232
0.592231
0.592231
0.592231
0.592231
0.59223
0.59223
0.59223
0.59223
0.59223
0.59223
0.592229
0.592229
0.592228
0.592228
0.592227
0.592226
0.592226
0.592225
0.592224
0.592223
0.592223
0.592222
0.592221
0.592221
0.59222
0.592219
0.592219
0.592218
0.592218
0.592217
0.592217
0.592216
0.592216
0.592215
0.592215
0.592214
0.592214
0.592213
0.592213
0.592213
0.592212
0.592212
0.592211
0.592211
0.592211
0.59221
0.59221
0.592209
0.592209
0.592208
0.592208
0.592207
0.592207
0.592206
0.592205
0.592205
0.592205
0.591917
0.591932
0.591954
0.591975
0.591995
0.592014
0.592032
0.59205
0.592066
0.592082
0.592097
0.592111
0.592124
0.592136
0.592148
0.592158
0.592167
0.592176
0.592183
0.59219
0.592196
0.592202
0.592207
0.592211
0.592215
0.592218
0.592221
0.592223
0.592225
0.592226
0.592227
0.592228
0.592229
0.592229
0.59223
0.59223
0.59223
0.59223
0.59223
0.59223
0.592229
0.592229
0.592228
0.592228
0.592228
0.592227
0.592227
0.592227
0.592227
0.592227
0.592227
0.592227
0.592227
0.592227
0.592227
0.592226
0.592226
0.592225
0.592225
0.592224
0.592224
0.592223
0.592223
0.592222
0.592221
0.592221
0.59222
0.59222
0.592219
0.592219
0.592218
0.592217
0.592217
0.592216
0.592216
0.592215
0.592215
0.592215
0.592214
0.592214
0.592213
0.592213
0.592213
0.592212
0.592212
0.592212
0.592211
0.592211
0.59221
0.59221
0.59221
0.592209
0.592209
0.592208
0.592208
0.592207
0.592207
0.592206
0.592206
0.592205
0.591959
0.591972
0.59199
0.592008
0.592024
0.59204
0.592056
0.592071
0.592085
0.592099
0.592112
0.592124
0.592136
0.592146
0.592156
0.592165
0.592173
0.59218
0.592187
0.592193
0.592198
0.592203
0.592207
0.592211
0.592214
0.592217
0.592219
0.592221
0.592222
0.592223
0.592224
0.592225
0.592225
0.592225
0.592226
0.592226
0.592226
0.592225
0.592225
0.592225
0.592225
0.592225
0.592224
0.592224
0.592223
0.592223
0.592223
0.592223
0.592224
0.592224
0.592224
0.592224
0.592224
0.592224
0.592224
0.592223
0.592223
0.592223
0.592222
0.592222
0.592221
0.592221
0.59222
0.59222
0.592219
0.592219
0.592219
0.592218
0.592218
0.592217
0.592217
0.592216
0.592216
0.592216
0.592215
0.592215
0.592215
0.592214
0.592214
0.592213
0.592213
0.592212
0.592212
0.592212
0.592212
0.592211
0.592211
0.592211
0.59221
0.59221
0.59221
0.592209
0.592209
0.592209
0.592208
0.592208
0.592207
0.592207
0.592207
0.592206
0.591999
0.592009
0.592023
0.592038
0.592052
0.592065
0.592078
0.592091
0.592103
0.592114
0.592125
0.592135
0.592144
0.592153
0.592162
0.59217
0.592177
0.592183
0.592189
0.592195
0.592199
0.592204
0.592207
0.592211
0.592213
0.592216
0.592218
0.592219
0.59222
0.592221
0.592222
0.592222
0.592222
0.592222
0.592222
0.592221
0.592221
0.592221
0.592221
0.592221
0.59222
0.59222
0.59222
0.592219
0.592219
0.592219
0.592219
0.592219
0.59222
0.59222
0.59222
0.59222
0.59222
0.592221
0.592221
0.592221
0.59222
0.59222
0.59222
0.59222
0.592219
0.592219
0.592219
0.592218
0.592218
0.592217
0.592217
0.592217
0.592216
0.592216
0.592216
0.592215
0.592215
0.592215
0.592214
0.592214
0.592214
0.592214
0.592213
0.592213
0.592213
0.592213
0.592212
0.592212
0.592212
0.592212
0.592211
0.592211
0.592211
0.592211
0.59221
0.59221
0.592209
0.592209
0.592209
0.592209
0.592208
0.592208
0.592207
0.592207
0.592038
0.592046
0.592058
0.59207
0.592081
0.592091
0.592102
0.592112
0.592122
0.592131
0.59214
0.592148
0.592156
0.592163
0.59217
0.592176
0.592182
0.592187
0.592192
0.592196
0.592199
0.592203
0.592206
0.592208
0.592211
0.592212
0.592214
0.592215
0.592216
0.592217
0.592217
0.592217
0.592217
0.592217
0.592217
0.592216
0.592216
0.592216
0.592216
0.592216
0.592216
0.592216
0.592215
0.592215
0.592215
0.592215
0.592216
0.592216
0.592216
0.592217
0.592217
0.592217
0.592218
0.592218
0.592218
0.592218
0.592218
0.592218
0.592218
0.592218
0.592217
0.592217
0.592217
0.592216
0.592216
0.592216
0.592216
0.592215
0.592215
0.592215
0.592214
0.592214
0.592214
0.592214
0.592213
0.592213
0.592213
0.592213
0.592212
0.592212
0.592212
0.592212
0.592211
0.592211
0.592211
0.592211
0.592211
0.59221
0.59221
0.59221
0.59221
0.592209
0.592209
0.592209
0.592209
0.592208
0.592208
0.592208
0.592207
0.592207
0.592076
0.592081
0.59209
0.592099
0.592108
0.592116
0.592125
0.592133
0.592141
0.592148
0.592155
0.59216
0.592166
0.592171
0.592175
0.592179
0.592183
0.592186
0.59219
0.592192
0.592195
0.592198
0.5922
0.592202
0.592204
0.592206
0.592208
0.592209
0.592211
0.592212
0.592213
0.592214
0.592214
0.592213
0.592213
0.592213
0.592213
0.592213
0.592213
0.592213
0.592213
0.592213
0.592213
0.592213
0.592213
0.592214
0.592214
0.592214
0.592214
0.592215
0.592215
0.592215
0.592215
0.592215
0.592215
0.592215
0.592215
0.592215
0.592215
0.592215
0.592215
0.592215
0.592215
0.592215
0.592214
0.592214
0.592214
0.592214
0.592214
0.592213
0.592213
0.592213
0.592213
0.592212
0.592212
0.592212
0.592212
0.592212
0.592211
0.592211
0.592211
0.592211
0.592211
0.59221
0.59221
0.59221
0.59221
0.59221
0.59221
0.592209
0.592209
0.592209
0.592209
0.592208
0.592208
0.592208
0.592208
0.592207
0.592207
0.592207
0.592112
0.592116
0.592122
0.592129
0.592135
0.592142
0.592147
0.592153
0.592158
0.592163
0.592167
0.592171
0.592175
0.592178
0.592181
0.592184
0.592187
0.59219
0.592193
0.592195
0.592198
0.5922
0.592202
0.592204
0.592206
0.592208
0.59221
0.592211
0.592212
0.592212
0.592212
0.592212
0.592212
0.592212
0.592212
0.592211
0.592211
0.592211
0.592211
0.592211
0.592211
0.592211
0.592211
0.59221
0.59221
0.59221
0.59221
0.59221
0.592211
0.592211
0.592211
0.592211
0.592211
0.592212
0.592212
0.592212
0.592212
0.592212
0.592212
0.592212
0.592212
0.592212
0.592212
0.592212
0.592212
0.592212
0.592212
0.592211
0.592211
0.592211
0.592211
0.592211
0.592211
0.592211
0.59221
0.59221
0.59221
0.59221
0.59221
0.59221
0.59221
0.592209
0.592209
0.592209
0.592209
0.592209
0.592209
0.592209
0.592208
0.592208
0.592208
0.592208
0.592208
0.592207
0.592207
0.592207
0.592207
0.592206
0.592206
0.592206
0.592149
0.592151
0.592156
0.592161
0.592165
0.592169
0.592172
0.592175
0.592178
0.592181
0.592183
0.592186
0.592188
0.59219
0.592192
0.592194
0.592196
0.592199
0.592201
0.592204
0.592206
0.592209
0.59221
0.592211
0.592213
0.592214
0.592215
0.592215
0.592215
0.592214
0.592213
0.592212
0.592211
0.59221
0.59221
0.592209
0.592208
0.592208
0.592208
0.592207
0.592207
0.592207
0.592207
0.592207
0.592207
0.592207
0.592207
0.592207
0.592207
0.592207
0.592207
0.592207
0.592208
0.592208
0.592208
0.592208
0.592208
0.592208
0.592208
0.592208
0.592208
0.592208
0.592208
0.592208
0.592208
0.592208
0.592208
0.592208
0.592208
0.592208
0.592208
0.592208
0.592208
0.592208
0.592208
0.592208
0.592208
0.592208
0.592208
0.592207
0.592207
0.592207
0.592207
0.592207
0.592207
0.592207
0.592207
0.592207
0.592206
0.592206
0.592206
0.592206
0.592206
0.592206
0.592206
0.592205
0.592205
0.592205
0.592205
0.592205
0.592188
0.592189
0.592191
0.592193
0.592194
0.592196
0.592198
0.5922
0.592201
0.592202
0.592204
0.592205
0.592205
0.592206
0.592207
0.592207
0.592208
0.592208
0.592209
0.592211
0.592211
0.592212
0.592213
0.592213
0.592214
0.592214
0.592214
0.592214
0.592213
0.592212
0.59221
0.592209
0.592208
0.592207
0.592206
0.592205
0.592204
0.592204
0.592203
0.592203
0.592203
0.592202
0.592202
0.592202
0.592202
0.592202
0.592202
0.592202
0.592203
0.592203
0.592203
0.592203
0.592203
0.592204
0.592204
0.592204
0.592204
0.592205
0.592205
0.592205
0.592205
0.592205
0.592205
0.592205
0.592205
0.592205
0.592206
0.592206
0.592206
0.592206
0.592206
0.592206
0.592206
0.592206
0.592206
0.592206
0.592205
0.592205
0.592205
0.592205
0.592205
0.592205
0.592205
0.592205
0.592205
0.592205
0.592205
0.592205
0.592205
0.592205
0.592205
0.592205
0.592205
0.592205
0.592205
0.592205
0.592205
0.592205
0.592205
0.592205
0.591187
0.591176
0.591182
0.591202
0.591232
0.591263
0.591297
0.591312
0.591315
0.59128
0.591293
0.591278
0.591277
0.591287
0.591305
0.591328
0.59135
0.591368
0.591368
0.591344
0.59139
0.591372
0.591366
0.591368
0.591377
0.591392
0.591407
0.591419
0.591422
0.591405
0.591475
0.591456
0.591446
0.591444
0.591447
0.591455
0.591465
0.591475
0.591477
0.591464
0.591551
0.591533
0.591521
0.591516
0.591515
0.591518
0.591523
0.59153
0.591533
0.591523
0.591618
0.591601
0.591588
0.591581
0.591578
0.591578
0.591579
0.591583
0.591586
0.591579
0.591681
0.591664
0.591652
0.591644
0.591639
0.591636
0.591636
0.591636
0.591638
0.591634
0.591737
0.59172
0.591708
0.5917
0.591694
0.591691
0.591689
0.591688
0.591688
0.591686
0.591788
0.591774
0.591762
0.591754
0.591748
0.591744
0.591741
0.591739
0.591738
0.591736
0.591835
0.591821
0.591811
0.591802
0.591796
0.591792
0.591789