/*--------------------------------*- C++ -*----------------------------------*\
  =========                 |
  \\      /  F ield         | OpenFOAM: The Open Source CFD Toolbox
   \\    /   O peration     | Website:  https://openfoam.org
    \\  /    A nd           | Version:  8
     \\/     M anipulation  |
\*---------------------------------------------------------------------------*/
FoamFile
{
    version     2.0;
    format      ascii;
    class       volVectorField;
    location    "0.999962";
    object      U;
}
// * * * * * * * * * * * * * * * * * * * * * * * * * * * * * * * * * * * * * //

dimensions      [0 1 -1 0 0 0 0];

internalField   nonuniform List<vector> 
6800
(
(0.975696 4.08212 -1.04413e-14)
(20.9149 -3.21289 2.88741e-15)
(31.6516 -4.46629 2.85308e-15)
(38.6648 -4.41439 -2.88433e-15)
(43.4239 -4.03348 1.9483e-15)
(46.6581 -3.55378 2.59737e-15)
(48.8573 -3.0749 -4.11162e-15)
(50.3549 -2.63723 3.71255e-15)
(51.3927 -2.22916 -2.6489e-15)
(52.0889 -1.89385 5.19766e-16)
(10.9575 1.34562 1.48286e-14)
(27.8736 -5.40113 -4.0559e-15)
(37.7912 -5.27709 -9.46847e-16)
(43.8167 -4.63791 2.01585e-15)
(47.6149 -3.92493 -1.93217e-15)
(50.0361 -3.22905 -4.65544e-17)
(51.5712 -2.62892 5.83579e-18)
(52.5303 -2.14396 -1.13114e-15)
(53.1302 -1.75977 1.97712e-16)
(53.4601 -1.54192 2.62424e-15)
(18.1444 -0.854109 2.61671e-15)
(34.1814 -7.48971 -7.28771e-16)
(43.1601 -5.80857 1.96405e-15)
(48.1395 -4.65008 -4.52548e-15)
(50.9966 -3.64937 9.24477e-16)
(52.6596 -2.78544 -2.88653e-15)
(53.5942 -2.10264 2.63716e-15)
(54.0841 -1.58991 -3.15855e-16)
(54.3157 -1.2067 3.43742e-15)
(54.3661 -0.978654 -5.42596e-15)
(25.7891 -2.36571 4.2888e-15)
(40.4074 -9.08586 -9.95112e-16)
(48.0433 -5.89511 -1.88052e-16)
(51.8481 -4.39779 6.01315e-16)
(53.7798 -3.17562 -1.89865e-15)
(54.7347 -2.19964 1.8422e-15)
(55.137 -1.47811 -3.11612e-15)
(55.2406 -0.956548 4.57792e-15)
(55.1936 -0.573735 -3.22418e-15)
(55.0471 -0.331515 3.99836e-15)
(33.4036 -2.75264 4.17751e-18)
(46.3794 -9.90212 1.94859e-15)
(52.462 -5.4007 7.82587e-16)
(55.0549 -3.81449 3.582e-15)
(56.0988 -2.4521 -1.93657e-15)
(56.408 -1.44063 6.19513e-16)
(56.3605 -0.723774 7.83038e-16)
(56.1599 -0.21351 2.42842e-15)
(55.9028 0.157795 -3.3607e-15)
(55.6102 0.400502 1.45858e-15)
(40.6169 -1.9703 -1.95953e-15)
(51.9478 -9.83797 -9.63883e-16)
(56.3856 -4.27253 -4.98188e-17)
(57.8142 -2.85772 -1.30921e-15)
(58.03 -1.43633 -1.70434e-16)
(57.7804 -0.474863 9.98463e-16)
(57.3676 0.196719 -1.37723e-15)
(56.9271 0.671293 1.60168e-15)
(56.5053 1.01141 -1.80628e-15)
(56.0939 1.23915 -3.72055e-16)
(47.1553 -0.0949906 2.7834e-16)
(56.9641 -8.86773 1.04423e-15)
(59.765 -2.5177 7.71043e-16)
(60.1408 -1.50935 -1.13674e-15)
(59.6165 -0.106708 -1.59454e-16)
(58.905 0.723729 1.49584e-15)
(58.2001 1.30979 -6.25809e-16)
(57.5681 1.71983 9.75583e-16)
(57.0104 2.00296 -2.00324e-15)
(56.4951 2.19913 3.54903e-20)
(52.8092 2.6975 6.98347e-16)
(61.3028 -7.02505 -1.78595e-16)
(62.5479 -0.190286 -8.33797e-16)
(62.0132 0.22594 -1.42845e-15)
(60.8644 1.5317 2.51246e-15)
(59.794 2.15601 -1.76747e-15)
(58.8582 2.62216 3.57807e-16)
(58.0707 2.93613 -1.40115e-15)
(57.399 3.13279 -6.19014e-16)
(56.791 3.28105 -7.97179e-16)
(57.4249 6.25407 8.41062e-17)
(64.8613 -4.39166 1.3222e-16)
(64.6773 2.61194 -6.97772e-16)
(63.4019 2.30398 5.45557e-16)
(61.764 3.45926 4.52085e-16)
(60.4256 3.8101 -6.32643e-16)
(59.3128 4.12244 3.02022e-16)
(58.4015 4.30632 5.16941e-16)
(57.6398 4.38411 5.31134e-16)
(56.95 4.4729 6.23863e-16)
(60.913 10.339 -2.3218e-16)
(67.5466 -1.08301 -7.25789e-17)
(66.1066 5.76129 -1.64205e-16)
(64.2808 4.67699 1.66471e-16)
(62.2884 5.61879 -5.15637e-16)
(60.7693 5.65042 -9.8408e-17)
(59.5268 5.77702 -4.5518e-17)
(58.5239 5.79746 4.53572e-16)
(57.6986 5.7321 2.14772e-16)
(56.9419 5.74948 -9.85599e-16)
(-3.3422 1.69678 1.72546e-15)
(-5.33387 1.19571 -4.89047e-16)
(-7.20689 0.884768 -2.28004e-16)
(-8.63155 0.653152 3.65207e-16)
(-9.54332 0.435574 -7.6211e-17)
(-10.0145 0.209918 5.18879e-16)
(-10.0819 -0.0279631 1.74992e-16)
(-9.77728 -0.266617 -2.84705e-16)
(-9.13748 -0.484196 5.69885e-16)
(-8.21461 -0.639298 -1.95074e-16)
(-3.3585 4.30236 -8.82228e-16)
(-4.99656 3.28874 8.02754e-16)
(-6.54916 2.48493 1.63216e-16)
(-7.65704 1.84181 8.53511e-16)
(-8.26079 1.2266 -3.31694e-16)
(-8.4142 0.574407 -9.9352e-17)
(-8.13177 -0.134873 -1.01771e-15)
(-7.41727 -0.85907 7.14696e-16)
(-6.33754 -1.50203 2.31188e-16)
(-4.97656 -1.92844 1.04048e-15)
(-3.47833 6.55536 -2.09345e-15)
(-4.5477 5.08688 -1.01497e-16)
(-5.49785 3.85524 1.74051e-15)
(-5.98076 2.83224 -2.76787e-15)
(-5.94204 1.84524 7.09256e-18)
(-5.39573 0.785379 -3.45756e-16)
(-4.28363 -0.396179 2.91433e-15)
(-2.64586 -1.60806 -1.86938e-15)
(-0.834463 -2.6178 4.51999e-15)
(1.30673 -3.2208 -1.93822e-15)
(-3.71456 8.19503 -2.32899e-15)
(-4.08107 6.37991 2.23063e-15)
(-4.18818 4.80623 -3.75098e-15)
(-3.74411 3.44865 4.45012e-15)
(-2.64714 2.11543 1.06298e-15)
(-0.784033 0.622186 -5.44997e-16)
(1.96504 -1.04652 -2.00102e-15)
(4.54637 -2.45649 1.34641e-15)
(7.01511 -3.5257 9.84538e-16)
(9.69174 -4.02323 -3.85248e-15)
(-4.01345 9.10353 9.21786e-15)
(-3.62124 7.02801 5.91008e-17)
(-2.62092 5.16308 1.71685e-15)
(-0.756192 3.40866 -9.70558e-15)
(2.20424 1.61492 5.41455e-15)
(6.08944 -0.250046 9.96002e-16)
(9.74816 -1.84664 7.76325e-16)
(13.0582 -3.07537 1.23282e-15)
(16.0212 -3.99691 3.08364e-16)
(19.1699 -4.31211 5.52796e-15)
(-4.32686 9.3292 7.04769e-15)
(-3.07095 6.89804 2.3172e-15)
(-0.461887 4.67102 2.17944e-15)
(3.63222 2.49863 -8.74473e-15)
(8.95375 0.358817 7.41584e-15)
(13.8839 -1.35498 -4.75566e-15)
(18.2552 -2.67107 -7.30378e-15)
(22.0885 -3.59321 1.85707e-15)
(25.3441 -4.1864 -4.90745e-15)
(28.5908 -4.22439 1.7477e-15)
(-4.64532 8.95164 5.85831e-15)
(-2.20848 5.93135 4.59335e-15)
(2.9585 3.28807 -6.86937e-15)
(10.1266 0.69231 1.52439e-14)
(16.6073 -1.18724 2.73476e-15)
(22.1616 -2.49081 -7.5478e-15)
(26.8171 -3.32821 4.37789e-15)
(30.6382 -3.83379 -6.69439e-16)
(33.6881 -4.10244 2.7183e-15)
(36.5381 -3.91883 1.25602e-15)
(-5.07644 8.19228 -9.85346e-15)
(-0.481255 4.3115 -2.10192e-14)
(9.31322 0.831972 6.22497e-15)
(17.7778 -1.2991 5.2477e-16)
(24.6553 -2.54796 -3.26956e-15)
(30.1184 -3.26612 -2.72393e-15)
(34.3805 -3.6543 4.20923e-16)
(37.6948 -3.80366 -1.67544e-15)
(40.2535 -3.80309 -1.77695e-15)
(42.5353 -3.47224 5.04055e-15)
(-5.11919 6.87038 1.10669e-14)
(5.84598 1.30911 6.78435e-15)
(17.0339 -1.55115 2.8987e-15)
(25.5917 -2.85723 -1.13734e-15)
(32.0312 -3.44903 3.00881e-17)
(36.8455 -3.65679 2.07284e-15)
(40.4473 -3.65497 4.67224e-15)
(43.1457 -3.52964 -2.89922e-15)
(45.1592 -3.342 -3.15061e-15)
(46.8619 -2.93548 3.32876e-15)
(-3.99001 5.43807 -8.91872e-15)
(13.6544 -1.13482 -3.02354e-16)
(24.7078 -3.29347 -3.69222e-15)
(32.5965 -3.87077 -9.75423e-17)
(38.2548 -3.90627 4.89682e-16)
(42.3074 -3.7197 -3.36082e-16)
(45.2079 -3.43718 -2.29889e-16)
(47.2857 -3.1191 -2.18477e-15)
(48.7631 -2.79341 -3.22032e-15)
(49.8988 -2.36796 9.41238e-16)
(-7.01337 -0.700585 1.24686e-16)
(-5.48992 -0.671861 2.01141e-17)
(-4.07387 -0.617055 -1.97517e-16)
(-2.7736 -0.568415 1.48036e-16)
(-1.56171 -0.532901 6.64858e-17)
(-0.421332 -0.508044 -3.20425e-16)
(0.69555 -0.480948 -1.66025e-16)
(1.72382 -0.453236 2.46085e-16)
(2.7133 -0.431856 -1.49305e-16)
(3.66265 -0.41433 -4.42274e-17)
(4.57703 -0.39898 1.51309e-16)
(5.46002 -0.384932 -6.11345e-17)
(6.31372 -0.371725 3.75432e-16)
(7.13956 -0.359169 -1.91994e-16)
(7.93883 -0.347188 -4.39152e-16)
(8.71279 -0.335718 5.81211e-16)
(9.46251 -0.324672 -2.47416e-16)
(10.1888 -0.314001 -1.30075e-16)
(10.8924 -0.303634 1.3345e-16)
(11.5737 -0.293545 -3.13054e-17)
(12.2332 -0.283739 -3.24255e-17)
(12.8714 -0.274223 9.23961e-17)
(13.4889 -0.265012 -1.5606e-16)
(14.0864 -0.256117 4.16678e-16)
(14.6646 -0.247545 2.0664e-17)
(15.2241 -0.239297 -4.44148e-16)
(15.7656 -0.231363 3.25284e-16)
(16.29 -0.223725 7.24238e-17)
(16.7978 -0.216372 -1.53246e-18)
(17.2896 -0.209283 -2.49376e-16)
(17.766 -0.202446 1.51811e-16)
(18.2275 -0.195858 -2.47602e-16)
(18.6747 -0.189495 2.24812e-16)
(19.1079 -0.183345 -2.95474e-16)
(19.5277 -0.177408 4.30133e-16)
(19.9345 -0.171664 -2.67085e-16)
(20.3286 -0.166106 -1.16341e-16)
(20.7105 -0.16074 3.7859e-16)
(21.0805 -0.155565 -9.35485e-17)
(21.4392 -0.15058 -7.60743e-18)
(21.7867 -0.14578 -1.83717e-16)
(22.1236 -0.14116 6.72616e-17)
(22.4501 -0.136712 -3.58199e-17)
(22.7668 -0.13243 -1.90843e-17)
(23.074 -0.128306 2.2938e-16)
(23.3719 -0.124334 -9.86187e-17)
(23.661 -0.120509 1.55456e-16)
(23.9415 -0.116827 -2.68561e-16)
(24.2138 -0.113285 4.04441e-17)
(24.4782 -0.10988 3.09218e-17)
(24.7349 -0.106611 -1.77614e-18)
(24.9844 -0.10347 -6.7146e-17)
(25.2268 -0.100454 7.95271e-17)
(25.4624 -0.0975563 3.33954e-17)
(25.6916 -0.0947693 -1.68475e-17)
(25.9145 -0.0920877 -6.7717e-17)
(26.1315 -0.0895066 1.33292e-17)
(26.3426 -0.0870221 -6.97214e-17)
(26.5481 -0.0846315 4.38398e-17)
(26.7483 -0.0823314 1.06604e-16)
(26.9433 -0.0801187 -9.70724e-17)
(27.1333 -0.0779902 3.50289e-18)
(27.3185 -0.075941 -3.42228e-17)
(27.4991 -0.0739662 1.00059e-17)
(27.6752 -0.0720634 6.16452e-17)
(27.8469 -0.0702295 5.80513e-17)
(28.0146 -0.0684613 -1.45859e-16)
(28.1782 -0.0667566 4.32538e-17)
(28.3379 -0.0651143 1.0999e-17)
(28.4939 -0.0635337 -3.68643e-17)
(28.6463 -0.0620139 -6.86408e-17)
(28.7952 -0.0605523 1.45244e-16)
(28.9408 -0.0591466 -4.23699e-17)
(29.0832 -0.0577887 3.20581e-17)
(29.2225 -0.0564772 -2.89714e-17)
(29.3589 -0.0552104 -4.50266e-17)
(29.4924 -0.0539899 1.2993e-17)
(29.6231 -0.0528283 4.48449e-17)
(29.7511 -0.0517209 -6.69446e-17)
(29.8765 -0.0506577 8.33206e-17)
(29.9995 -0.0496352 2.37735e-18)
(30.1201 -0.048651 -1.32322e-17)
(30.2384 -0.0477028 -3.14643e-17)
(30.3545 -0.0467891 4.81736e-17)
(30.4686 -0.0459082 -4.00603e-17)
(30.5806 -0.0450587 3.43947e-17)
(30.6907 -0.044239 -5.0167e-17)
(30.7989 -0.0434479 -6.03362e-18)
(30.9053 -0.0426829 3.29439e-17)
(31.0101 -0.0419425 2.09171e-18)
(31.1131 -0.0412225 -1.21573e-17)
(31.2145 -0.0405197 -5.20676e-19)
(31.3143 -0.0398256 -1.90764e-18)
(31.4125 -0.0391339 -4.4318e-18)
(31.5092 -0.0384294 2.4893e-18)
(31.6041 -0.0376969 -1.56199e-18)
(31.6973 -0.0369127 5.80643e-18)
(31.7885 -0.0360543 4.03684e-18)
(31.8776 -0.035113 -7.44184e-19)
(31.9853 -0.0332026 1.20544e-18)
(-3.62228 -2.02947 -4.99411e-16)
(-2.36124 -1.89753 -3.54183e-16)
(-1.12893 -1.74328 -1.5604e-15)
(0.0228757 -1.61261 1.30312e-15)
(1.112 -1.50885 -1.88268e-15)
(2.12139 -1.43253 1.37107e-15)
(3.09331 -1.3635 -9.11238e-16)
(4.02585 -1.2969 -6.53764e-16)
(4.931 -1.24183 1.43747e-15)
(5.80766 -1.19495 4.91585e-16)
(6.65705 -1.15305 2.68304e-16)
(7.48062 -1.11418 -1.01815e-15)
(8.27923 -1.07723 3.67889e-16)
(9.05333 -1.04174 -4.09226e-16)
(9.80337 -1.00767 -1.05004e-15)
(10.5301 -0.975139 2.41039e-15)
(11.2343 -0.943954 1.6523e-16)
(11.9171 -0.913918 -1.54267e-16)
(12.579 -0.88465 -4.98816e-16)
(13.2205 -0.855926 -1.55643e-16)
(13.842 -0.827774 -1.03988e-15)
(14.4436 -0.800157 1.01059e-15)
(15.0256 -0.77318 -1.27405e-15)
(15.5882 -0.747024 2.4294e-15)
(16.132 -0.721833 -1.13732e-15)
(16.6577 -0.697685 3.30157e-16)
(17.166 -0.674556 -4.11046e-16)
(17.6577 -0.652391 4.56312e-16)
(18.1335 -0.631139 4.18728e-16)
(18.5941 -0.610678 -9.65734e-17)
(19.0401 -0.590983 -8.52242e-16)
(19.4721 -0.572042 -1.20661e-16)
(19.8905 -0.553731 4.12854e-16)
(20.2959 -0.535989 1.55617e-16)
(20.6887 -0.518867 -9.07366e-16)
(21.0692 -0.5023 7.56765e-16)
(21.438 -0.486237 2.06234e-16)
(21.7954 -0.470703 -3.14787e-16)
(22.1418 -0.45571 1.45294e-16)
(22.4775 -0.441255 -2.30362e-16)
(22.8029 -0.427315 -2.26643e-16)
(23.1183 -0.413894 7.34075e-16)
(23.4241 -0.400976 -3.80256e-16)
(23.7207 -0.388538 1.36174e-16)
(24.0084 -0.376554 -7.97258e-16)
(24.2875 -0.365002 5.97066e-16)
(24.5584 -0.353862 2.39771e-16)
(24.8213 -0.343124 -5.2782e-16)
(25.0765 -0.332783 -3.31979e-16)
(25.3243 -0.322838 2.86611e-16)
(25.565 -0.313283 1.8101e-16)
(25.7988 -0.304107 1.15843e-18)
(26.0261 -0.295295 5.5491e-16)
(26.2471 -0.286827 -7.60016e-16)
(26.4619 -0.278685 5.16605e-16)
(26.671 -0.270851 -3.93625e-16)
(26.8744 -0.263306 -1.94947e-16)
(27.0724 -0.256039 8.51477e-16)
(27.2652 -0.249043 -1.45066e-16)
(27.453 -0.242309 -2.33243e-16)
(27.6359 -0.235831 2.058e-16)
(27.8142 -0.229596 -2.79787e-16)
(27.988 -0.223593 -2.10134e-16)
(28.1574 -0.217812 1.96846e-16)
(28.3227 -0.212238 -1.04732e-16)
(28.484 -0.206862 -2.34481e-16)
(28.6414 -0.201678 4.41523e-16)
(28.7951 -0.19668 -8.05463e-17)
(28.9451 -0.19186 -1.41884e-16)
(29.0917 -0.187218 -1.97419e-16)
(29.2348 -0.182756 2.69398e-17)
(29.3748 -0.178464 1.78689e-16)
(29.5116 -0.174351 1.51972e-16)
(29.6453 -0.170396 7.33252e-17)
(29.7763 -0.166569 -2.08356e-17)
(29.9045 -0.162844 -3.20685e-16)
(30.0301 -0.159232 2.57887e-16)
(30.1531 -0.1558 1.85249e-16)
(30.2735 -0.152541 -1.60809e-16)
(30.3916 -0.149417 -2.33847e-16)
(30.5073 -0.146414 9.99918e-18)
(30.6208 -0.143524 7.91654e-17)
(30.7322 -0.140741 -3.90629e-17)
(30.8416 -0.138059 5.6164e-18)
(30.949 -0.135473 -9.30698e-18)
(31.0545 -0.132979 9.75581e-18)
(31.1582 -0.13057 -9.03555e-17)
(31.2603 -0.128245 2.07871e-16)
(31.3606 -0.125996 -9.23608e-17)
(31.4594 -0.12382 -7.20789e-17)
(31.5566 -0.121702 4.11638e-17)
(31.6523 -0.119636 2.28351e-17)
(31.7465 -0.117597 1.78052e-17)
(31.8393 -0.115566 -2.38427e-17)
(31.9305 -0.113499 1.36751e-17)
(32.0203 -0.111353 -8.57773e-17)
(32.1084 -0.109055 3.66735e-17)
(32.1945 -0.106488 -1.23431e-17)
(32.2795 -0.103544 2.46681e-18)
(32.3808 -0.0991747 -1.91908e-17)
(2.4878 -3.1544 -4.96176e-15)
(3.25968 -2.88353 1.05963e-15)
(4.13159 -2.67377 2.01881e-15)
(4.99839 -2.50386 1.97799e-15)
(5.84614 -2.35757 -1.452e-15)
(6.67189 -2.23841 -4.12454e-15)
(7.48039 -2.13998 4.26495e-15)
(8.27223 -2.05266 7.21097e-16)
(9.04937 -1.97594 -1.28437e-15)
(9.80899 -1.90761 -6.44767e-16)
(10.5495 -1.84476 7.58627e-16)
(11.2702 -1.78532 3.18055e-15)
(11.9707 -1.72798 -1.21656e-15)
(12.6508 -1.67216 -2.52946e-15)
(13.3105 -1.618 3.42842e-15)
(13.9504 -1.56612 -1.5168e-15)
(14.5708 -1.51637 -1.18746e-15)
(15.1724 -1.46853 4.00954e-16)
(15.7552 -1.42184 -6.09989e-16)
(16.3196 -1.37594 1.41462e-15)
(16.866 -1.33093 -2.03358e-15)
(17.3947 -1.28652 1.98733e-16)
(17.9059 -1.24285 -7.54146e-16)
(18.3999 -1.20038 1.66759e-15)
(18.8773 -1.15944 -3.95747e-16)
(19.3389 -1.12018 1.19481e-15)
(19.7853 -1.08262 -4.41315e-16)
(20.2171 -1.04666 -1.12795e-15)
(20.635 -1.01221 -5.51394e-16)
(21.0396 -0.979125 -8.50677e-17)
(21.4312 -0.947275 5.69781e-16)
(21.8104 -0.916627 7.96769e-16)
(22.1775 -0.88709 -1.37427e-15)
(22.533 -0.85856 9.85308e-16)
(22.8774 -0.830993 3.83116e-16)
(23.2108 -0.804344 -7.53398e-16)
(23.5339 -0.778619 1.56501e-15)
(23.8469 -0.753786 -1.36395e-15)
(24.1503 -0.729826 2.52192e-16)
(24.4443 -0.706711 -5.05397e-16)
(24.7292 -0.68442 2.38046e-16)
(25.0054 -0.662976 -2.28071e-16)
(25.2733 -0.642339 3.58442e-16)
(25.533 -0.622469 1.61545e-16)
(25.7849 -0.603325 -2.96842e-16)
(26.0294 -0.584868 8.93582e-16)
(26.2666 -0.567068 -5.57022e-16)
(26.4968 -0.549905 -5.53173e-16)
(26.7203 -0.533374 8.41278e-16)
(26.9373 -0.517473 -9.09461e-16)
(27.1481 -0.502195 -1.49042e-17)
(27.3529 -0.487521 1.56743e-15)
(27.552 -0.473426 -2.04656e-15)
(27.7456 -0.459883 1.67567e-15)
(27.9338 -0.446864 -1.12707e-15)
(28.117 -0.434342 1.53701e-16)
(28.2953 -0.422284 7.13408e-16)
(28.4688 -0.410669 -3.75822e-16)
(28.6377 -0.39949 -1.77794e-16)
(28.8022 -0.388743 2.54867e-16)
(28.9626 -0.378408 -8.33005e-18)
(29.1188 -0.368464 -2.09753e-16)
(29.2711 -0.358889 -2.42176e-16)
(29.4197 -0.349661 3.01803e-17)
(29.5645 -0.340765 2.91542e-16)
(29.7059 -0.332183 -1.46208e-16)
(29.8438 -0.323904 3.84398e-16)
(29.9785 -0.315922 -1.92477e-16)
(30.11 -0.308225 -2.23042e-17)
(30.2385 -0.300809 -4.65462e-16)
(30.364 -0.293677 4.32731e-16)
(30.4867 -0.286817 2.24447e-16)
(30.6067 -0.280225 5.62614e-17)
(30.7241 -0.27389 -2.983e-16)
(30.839 -0.267776 2.34369e-16)
(30.9516 -0.261858 -8.66802e-17)
(31.062 -0.256162 -1.99415e-17)
(31.17 -0.250713 -3.19698e-16)
(31.276 -0.245497 2.51032e-16)
(31.3798 -0.240496 7.23107e-17)
(31.4817 -0.235692 -2.35806e-16)
(31.5816 -0.231074 8.33033e-17)
(31.6798 -0.226629 8.15478e-17)
(31.7762 -0.22235 -1.75393e-16)
(31.8709 -0.218228 -3.41491e-18)
(31.9641 -0.214254 3.20084e-16)
(32.0557 -0.21042 6.62881e-17)
(32.1459 -0.206721 -6.58306e-17)
(32.2347 -0.203145 -1.72655e-16)
(32.3221 -0.199687 -2.38173e-17)
(32.4082 -0.196326 -6.8767e-17)
(32.4931 -0.193048 3.33063e-17)
(32.5767 -0.189815 1.25749e-16)
(32.6591 -0.186597 -5.03793e-17)
(32.7403 -0.183322 4.3105e-17)
(32.8202 -0.179922 -7.09078e-17)
(32.8987 -0.176276 7.25162e-17)
(32.9756 -0.172147 -2.96069e-17)
(33.0517 -0.167366 -1.31637e-17)
(33.1423 -0.161788 1.45697e-17)
(10.4593 -3.78839 1.83375e-15)
(10.7221 -3.48656 -4.73993e-16)
(11.1397 -3.29999 3.82935e-15)
(11.6744 -3.14932 -3.16743e-15)
(12.2521 -3.00604 2.60119e-15)
(12.8472 -2.87974 1.13466e-15)
(13.4514 -2.77229 2.53697e-16)
(14.0583 -2.67656 3.76675e-16)
(14.6647 -2.58878 -8.37487e-16)
(15.2646 -2.50722 -9.58106e-16)
(15.8548 -2.42987 -2.54981e-15)
(16.4328 -2.35515 3.27518e-15)
(16.9973 -2.28202 -3.35235e-15)
(17.5474 -2.2102 2.29233e-15)
(18.083 -2.13998 -1.05732e-15)
(18.6044 -2.07236 -2.79988e-16)
(19.1107 -2.00709 1.18074e-15)
(19.6023 -1.944 -2.57474e-16)
(20.0775 -1.88194 -4.54851e-16)
(20.5372 -1.82068 -8.63529e-16)
(20.9815 -1.76087 2.37581e-15)
(21.411 -1.70175 -5.68774e-16)
(21.8262 -1.64367 1.528e-16)
(22.2276 -1.58734 1.51591e-15)
(22.6159 -1.5332 -4.03092e-15)
(22.9918 -1.48136 2.87752e-15)
(23.3558 -1.43172 -3.17283e-15)
(23.7083 -1.38417 4.38876e-15)
(24.0497 -1.33855 -2.46007e-15)
(24.3804 -1.29474 1.6087e-15)
(24.7006 -1.25258 1.24706e-15)
(25.0106 -1.21197 -3.43731e-15)
(25.3108 -1.17286 8.69827e-16)
(25.6014 -1.13505 -5.7384e-16)
(25.8827 -1.0985 1.12261e-15)
(26.155 -1.06319 -1.29578e-16)
(26.4187 -1.02914 -2.28928e-15)
(26.6741 -0.996308 2.0064e-15)
(26.9216 -0.964649 -2.68808e-16)
(27.1614 -0.934124 3.04109e-16)
(27.3938 -0.904707 4.49421e-16)
(27.619 -0.876429 3.86819e-16)
(27.8373 -0.849195 4.17714e-17)
(28.0489 -0.822957 -9.25706e-16)
(28.254 -0.797669 2.60692e-17)
(28.4529 -0.773288 -1.27367e-16)
(28.6458 -0.749777 -3.92164e-16)
(28.8329 -0.727114 1.72013e-15)
(29.0145 -0.705297 -7.18893e-16)
(29.1909 -0.684325 2.57767e-16)
(29.3621 -0.664179 3.46363e-16)
(29.5284 -0.644828 -5.24166e-16)
(29.6901 -0.626235 -5.9987e-16)
(29.8473 -0.608362 1.26429e-15)
(30.0001 -0.59117 -1.19572e-15)
(30.1487 -0.574629 -1.16448e-16)
(30.2933 -0.558701 1.2485e-15)
(30.434 -0.543352 -8.21048e-16)
(30.571 -0.528583 2.81597e-16)
(30.7043 -0.514391 1.5687e-16)
(30.8342 -0.500748 -6.10338e-16)
(30.9607 -0.487623 7.87834e-16)
(31.084 -0.474983 -2.67839e-16)
(31.2041 -0.462803 -7.48863e-16)
(31.3213 -0.45106 4.21796e-16)
(31.4355 -0.439734 -5.57715e-17)
(31.547 -0.428812 9.07236e-16)
(31.6558 -0.418281 -1.55273e-15)
(31.762 -0.408135 1.39367e-15)
(31.8657 -0.398365 -6.53388e-17)
(31.9671 -0.388971 -5.52758e-16)
(32.0662 -0.37995 7.3885e-16)
(32.1631 -0.371286 -4.92616e-16)
(32.258 -0.362948 2.41498e-16)
(32.351 -0.354916 -4.13286e-16)
(32.4422 -0.347176 -6.35129e-17)
(32.5315 -0.33974 2.3113e-16)
(32.6191 -0.33262 -8.62027e-17)
(32.705 -0.325796 -2.89227e-16)
(32.7893 -0.319252 2.79055e-16)
(32.8721 -0.312968 4.08042e-16)
(32.9534 -0.306929 -7.05099e-17)
(33.0333 -0.301122 2.38816e-16)
(33.1118 -0.295533 -2.92244e-16)
(33.1891 -0.290152 -2.1058e-16)
(33.2652 -0.284969 -7.7403e-17)
(33.3402 -0.279971 1.78189e-17)
(33.414 -0.275153 1.18667e-16)
(33.4869 -0.2705 2.14616e-16)
(33.5587 -0.266003 -4.37913e-16)
(33.6295 -0.261639 3.28026e-16)
(33.6994 -0.257388 -1.71363e-16)
(33.7684 -0.253199 3.54511e-17)
(33.8365 -0.249035 1.41166e-16)
(33.9038 -0.244801 -1.27288e-17)
(33.9701 -0.240405 -1.17173e-16)
(34.0354 -0.235691 9.08453e-17)
(34.0996 -0.230342 -3.7454e-17)
(34.1632 -0.224176 -2.5857e-18)
(34.2393 -0.217337 -1.36646e-17)
(19.6727 -3.96409 -6.57673e-15)
(19.5608 -3.72053 -2.73254e-15)
(19.5649 -3.61048 3.84698e-15)
(19.7559 -3.51792 -1.00525e-15)
(20.0397 -3.41309 -1.10893e-15)
(20.3607 -3.30769 2.74564e-15)
(20.7096 -3.21185 -2.78753e-15)
(21.0806 -3.12249 -1.19769e-15)
(21.4668 -3.03599 1.16435e-15)
(21.8603 -2.95245 1.2168e-15)
(22.2561 -2.87032 -2.51143e-15)
(22.6507 -2.78884 3.83349e-15)
(23.0416 -2.70766 -2.82522e-15)
(23.4276 -2.62694 3.89819e-15)
(23.8078 -2.54709 -2.95887e-15)
(24.1824 -2.46899 -1.99971e-15)
(24.5469 -2.39228 1.03543e-15)
(24.9033 -2.31715 2.6186e-15)
(25.2445 -2.24263 1.0444e-15)
(25.577 -2.16951 -2.37565e-15)
(25.8965 -2.09844 2.16036e-15)
(26.2059 -2.02826 6.85287e-17)
(26.5059 -1.95943 -1.54667e-16)
(26.7972 -1.89294 -1.57491e-15)
(27.0805 -1.82919 1.4311e-15)
(27.356 -1.76808 -3.29562e-16)
(27.6238 -1.70944 -3.33156e-15)
(27.8839 -1.6531 2.04532e-15)
(28.1364 -1.59889 3.85703e-16)
(28.3813 -1.54665 9.47769e-16)
(28.6187 -1.49624 -3.55557e-15)
(28.8489 -1.44763 2.36778e-16)
(29.0715 -1.40073 3.10964e-15)
(29.2868 -1.35541 -1.68165e-16)
(29.4953 -1.31166 -2.45771e-15)
(29.697 -1.26947 -6.94736e-16)
(29.8924 -1.22882 3.46795e-15)
(30.0815 -1.18962 -9.27867e-16)
(30.2648 -1.15185 -9.74142e-16)
(30.4421 -1.11543 9.1292e-16)
(30.6141 -1.0804 7.8681e-16)
(30.7805 -1.04667 1.26999e-15)
(30.9415 -1.01411 -3.50959e-15)
(31.0974 -0.982744 2.28361e-15)
(31.2483 -0.952514 2.93861e-16)
(31.3945 -0.923379 -1.7756e-15)
(31.5361 -0.895304 6.1546e-17)
(31.6734 -0.86826 -3.60518e-16)
(31.8066 -0.842244 1.31295e-15)
(31.9358 -0.817248 8.32629e-16)
(32.0613 -0.793237 -4.88983e-16)
(32.1831 -0.770168 -6.74695e-16)
(32.3015 -0.747988 -3.21762e-17)
(32.4164 -0.72666 3.01561e-16)
(32.5281 -0.706138 -2.43085e-16)
(32.6367 -0.686389 9.4764e-17)
(32.7422 -0.667365 -6.04418e-16)
(32.8447 -0.649017 1.25087e-15)
(32.9444 -0.631373 -1.03728e-15)
(33.0415 -0.614429 1.2609e-15)
(33.1358 -0.598127 -1.80594e-15)
(33.2277 -0.582429 2.75371e-16)
(33.317 -0.567303 6.2027e-16)
(33.404 -0.552726 -1.10277e-16)
(33.4886 -0.538679 4.88071e-16)
(33.5711 -0.525144 -1.27205e-15)
(33.6515 -0.512109 7.85793e-16)
(33.7299 -0.499562 -5.60354e-16)
(33.8065 -0.487493 -2.58713e-16)
(33.8812 -0.475891 1.68273e-15)
(33.9543 -0.464741 -1.38235e-15)
(34.0258 -0.454042 6.46712e-16)
(34.0957 -0.443783 -2.97627e-16)
(34.1643 -0.433914 7.78918e-18)
(34.2316 -0.424415 6.92756e-16)
(34.2976 -0.415294 -4.73009e-16)
(34.3623 -0.406548 -2.17754e-16)
(34.4259 -0.39817 1.90268e-16)
(34.4883 -0.390141 3.98075e-16)
(34.5496 -0.382444 -3.49585e-16)
(34.6099 -0.375058 -3.33463e-16)
(34.6692 -0.367966 7.27472e-16)
(34.7276 -0.361152 -5.06207e-16)
(34.7851 -0.354601 9.61694e-17)
(34.8418 -0.348299 -2.1873e-16)
(34.8977 -0.342233 1.88244e-16)
(34.9529 -0.33639 2.25786e-16)
(35.0075 -0.330763 -8.3615e-17)
(35.0613 -0.325335 1.32276e-16)
(35.1146 -0.3201 3.01163e-16)
(35.1672 -0.315027 -3.17439e-16)
(35.2194 -0.310097 4.10795e-16)
(35.271 -0.305244 -3.32932e-16)
(35.3221 -0.30043 1.73807e-16)
(35.3727 -0.295539 1.15843e-16)
(35.4229 -0.290469 -3.68202e-17)
(35.4724 -0.285036 4.46449e-17)
(35.5213 -0.278871 -6.66611e-17)
(35.5701 -0.271765 7.93439e-17)
(35.6288 -0.263954 3.81055e-17)
(29.0361 -3.84715 7.28784e-16)
(28.7957 -3.71692 -2.4403e-15)
(28.579 -3.69096 -7.26972e-16)
(28.5345 -3.65396 7.26185e-15)
(28.5828 -3.59425 2.63045e-18)
(28.6647 -3.52569 -3.40979e-15)
(28.7762 -3.45333 1.81209e-15)
(28.9122 -3.37887 -2.09346e-15)
(29.0704 -3.30202 5.17447e-16)
(29.2444 -3.22349 3.80953e-15)
(29.4283 -3.14329 -7.41613e-16)
(29.6187 -3.06194 -9.08859e-15)
(29.814 -2.97998 2.81274e-15)
(30.0126 -2.89751 6.36063e-15)
(30.2121 -2.81345 -1.11688e-16)
(30.4099 -2.73 -3.28973e-15)
(30.606 -2.64682 -2.37263e-15)
(30.7993 -2.56623 -4.08342e-16)
(30.9893 -2.48705 1.34022e-15)
(31.1795 -2.40864 2.71863e-16)
(31.3654 -2.33312 2.24968e-15)
(31.5461 -2.25699 -2.67664e-16)
(31.7232 -2.18237 -2.77443e-15)
(31.8975 -2.11058 7.01869e-16)
(32.0687 -2.04156 -6.55499e-16)
(32.2365 -1.97499 3.49719e-16)
(32.4006 -1.91072 -2.93489e-16)
(32.5605 -1.84867 -7.64454e-16)
(32.716 -1.78869 2.49546e-15)
(32.8671 -1.73071 -2.09436e-15)
(33.0136 -1.67456 1.84267e-15)
(33.1555 -1.62034 2.95239e-16)
(33.2928 -1.56804 1.0857e-15)
(33.4256 -1.51735 -1.47618e-15)
(33.5541 -1.46828 -5.33546e-16)
(33.6783 -1.4208 -1.11076e-15)
(33.7984 -1.37506 2.0612e-15)
(33.9145 -1.33096 -1.81787e-15)
(34.0266 -1.28848 -7.43658e-16)
(34.1349 -1.24735 1.70885e-15)
(34.2395 -1.20759 4.98268e-16)
(34.3402 -1.16949 4.18075e-16)
(34.4377 -1.13284 -1.60984e-16)
(34.5318 -1.09758 -1.32223e-16)
(34.6229 -1.06363 -9.45561e-16)
(34.7111 -1.03094 -2.07167e-15)
(34.7965 -0.999499 3.88345e-15)
(34.8794 -0.969257 -2.64403e-15)
(34.9598 -0.940189 -1.16647e-15)
(35.0379 -0.912265 1.95998e-15)
(35.1136 -0.885435 -1.28223e-15)
(35.1871 -0.859653 1.54312e-15)
(35.2584 -0.834862 -1.40039e-16)
(35.3275 -0.81102 4.87556e-17)
(35.3945 -0.788076 -1.31849e-15)
(35.4596 -0.765997 3.014e-16)
(35.5227 -0.744733 -6.28759e-16)
(35.5839 -0.724231 4.12321e-16)
(35.6434 -0.704496 2.55139e-16)
(35.701 -0.685501 -3.96902e-16)
(35.757 -0.667204 6.44893e-16)
(35.8112 -0.649582 -1.17533e-16)
(35.8637 -0.632614 8.8162e-16)
(35.9147 -0.616283 2.76592e-16)
(35.9643 -0.600575 7.35781e-18)
(36.0124 -0.585474 -2.7537e-17)
(36.0593 -0.570964 -8.38708e-16)
(36.1051 -0.557019 1.86906e-16)
(36.1497 -0.543625 -8.53754e-17)
(36.1934 -0.530775 -3.69313e-16)
(36.2361 -0.518446 -2.77696e-16)
(36.278 -0.506617 4.74817e-16)
(36.319 -0.495276 -7.50817e-16)
(36.3593 -0.484392 -1.50594e-16)
(36.3989 -0.473933 8.18414e-16)
(36.4378 -0.463903 -6.47145e-17)
(36.4761 -0.454302 -5.77482e-16)
(36.5137 -0.44511 -5.71393e-16)
(36.5508 -0.436306 1.42422e-15)
(36.5873 -0.427871 -4.41412e-16)
(36.6233 -0.419784 -8.37714e-18)
(36.6588 -0.412028 -8.43188e-17)
(36.6939 -0.404583 -2.28487e-16)
(36.7285 -0.397439 3.27111e-16)
(36.7629 -0.390573 -4.02779e-16)
(36.7969 -0.383976 4.03441e-16)
(36.8306 -0.377628 -5.52594e-17)
(36.864 -0.371527 3.29845e-16)
(36.8972 -0.365652 -5.92719e-16)
(36.9302 -0.360002 3.62507e-18)
(36.963 -0.354545 3.61142e-17)
(36.9956 -0.349255 -5.18445e-17)
(37.0282 -0.344057 -8.84173e-17)
(37.0606 -0.338916 -1.66062e-16)
(37.093 -0.333706 1.94473e-16)
(37.1253 -0.328316 -2.03931e-17)
(37.1575 -0.322557 5.77336e-17)
(37.1896 -0.316032 -1.19812e-16)
(37.222 -0.30848 -4.91108e-17)
(37.2616 -0.300154 4.26411e-18)
(36.9251 -3.611 -1.07933e-15)
(36.6303 -3.60577 2.96921e-16)
(36.3039 -3.65204 -4.70259e-15)
(36.1347 -3.65624 2.2512e-15)
(36.0576 -3.63013 3.92701e-15)
(36.0181 -3.58923 2.14169e-15)
(35.9979 -3.54006 -5.34115e-16)
(35.9993 -3.48384 -8.41882e-15)
(36.0207 -3.4193 1.87514e-16)
(36.0574 -3.35021 5.46225e-15)
(36.1062 -3.27751 -2.756e-16)
(36.1651 -3.20156 -1.60251e-16)
(36.2315 -3.1228 4.31567e-15)
(36.3024 -3.04233 -9.05744e-16)
(36.3762 -2.96005 -5.18411e-16)
(36.4502 -2.87596 -6.91353e-16)
(36.5276 -2.79055 -1.6217e-15)
(36.6042 -2.70601 -2.32016e-15)
(36.6875 -2.62225 -9.87689e-16)
(36.7703 -2.53921 6.1994e-15)
(36.8553 -2.46117 7.65214e-16)
(36.9416 -2.38556 -4.63633e-15)
(37.0286 -2.30989 -1.47774e-15)
(37.114 -2.23551 -3.59486e-15)
(37.1967 -2.16328 6.22397e-15)
(37.2762 -2.09319 -2.54963e-15)
(37.3524 -2.02532 2.31137e-15)
(37.4252 -1.95966 1.34715e-15)
(37.4946 -1.8961 -3.1283e-15)
(37.5607 -1.8346 1.24039e-15)
(37.6235 -1.77505 1.85833e-16)
(37.6831 -1.71737 -1.18544e-15)
(37.7399 -1.66168 2.67115e-15)
(37.794 -1.60798 -3.1206e-15)
(37.8455 -1.55617 5.14333e-16)
(37.8944 -1.50615 7.24349e-16)
(37.9407 -1.45784 -1.17986e-16)
(37.9847 -1.41124 7.82198e-16)
(38.0265 -1.36638 -1.072e-15)
(38.0664 -1.32318 1.1529e-15)
(38.1042 -1.28155 -1.52211e-15)
(38.1405 -1.2414 1.65125e-15)
(38.1752 -1.20268 -1.47416e-15)
(38.2085 -1.16544 7.89002e-16)
(38.2405 -1.12963 1.15232e-15)
(38.2712 -1.09516 5.39387e-16)
(38.3008 -1.06193 -1.15985e-15)
(38.3293 -1.02991 1.33139e-15)
(38.3567 -0.999059 -2.42625e-15)
(38.3831 -0.969374 1.47953e-15)
(38.4084 -0.940788 -4.28578e-16)
(38.4326 -0.913254 2.33052e-16)
(38.4558 -0.886723 -1.29352e-15)
(38.4779 -0.861166 2.70316e-15)
(38.499 -0.836548 -1.35331e-15)
(38.5192 -0.812857 -2.16299e-15)
(38.5384 -0.790053 1.62699e-15)
(38.5567 -0.767987 -5.16841e-17)
(38.5742 -0.746728 -1.14445e-15)
(38.5909 -0.726325 -1.10357e-15)
(38.6068 -0.706673 3.03643e-15)
(38.622 -0.68776 -1.94982e-15)
(38.6365 -0.669569 1.94647e-15)
(38.6505 -0.652098 -9.81361e-16)
(38.664 -0.635348 9.56427e-17)
(38.677 -0.619302 4.36954e-16)
(38.6897 -0.603933 -1.14982e-15)
(38.7021 -0.589214 -1.41555e-16)
(38.7142 -0.57512 8.73223e-16)
(38.7261 -0.561629 -6.14061e-16)
(38.7378 -0.548713 5.15265e-16)
(38.7493 -0.536335 5.65002e-17)
(38.7607 -0.524468 -6.87366e-16)
(38.7719 -0.513093 -7.81018e-17)
(38.7831 -0.502193 1.35373e-15)
(38.7941 -0.491763 -5.01778e-16)
(38.8051 -0.481789 -3.44478e-16)
(38.8161 -0.472244 4.91262e-16)
(38.8269 -0.463109 -2.45258e-16)
(38.8378 -0.454366 3.9158e-16)
(38.8486 -0.445991 4.05416e-16)
(38.8594 -0.437968 -1.09898e-15)
(38.8703 -0.430276 9.88303e-17)
(38.8812 -0.422907 4.35111e-16)
(38.8923 -0.415837 -7.03523e-16)
(38.9034 -0.409052 8.86929e-16)
(38.9147 -0.402532 -3.21712e-16)
(38.9262 -0.396282 -4.65228e-16)
(38.9378 -0.390276 7.65901e-17)
(38.9496 -0.384511 5.26464e-17)
(38.9617 -0.378954 1.04883e-16)
(38.974 -0.373592 -1.27047e-16)
(38.9865 -0.368346 8.64773e-17)
(38.9995 -0.36318 4.16519e-18)
(39.0127 -0.35798 5.75705e-17)
(39.0263 -0.352653 -2.03427e-17)
(39.0404 -0.346982 3.54543e-17)
(39.0551 -0.340596 -2.66619e-17)
(39.0706 -0.333175 -4.70971e-17)
(39.0905 -0.324878 -4.03866e-17)
(42.7689 -3.2766 1.79289e-15)
(42.4043 -3.38881 -2.68698e-15)
(41.9834 -3.49902 4.40843e-15)
(41.6958 -3.54146 -3.0365e-15)
(41.5066 -3.55008 -4.88568e-15)
(41.3664 -3.5441 4.17817e-15)
(41.2547 -3.52496 1.80358e-15)
(41.1719 -3.49304 5.29862e-17)
(41.114 -3.44974 -7.48479e-17)
(41.0783 -3.39692 2.81657e-15)
(41.0619 -3.33699 -2.88219e-15)
(41.0612 -3.27169 -1.92106e-15)
(41.0734 -3.20181 -4.41172e-15)
(41.0956 -3.12761 3.41916e-15)
(41.1263 -3.04966 -5.42618e-16)
(41.1637 -2.96906 -1.33428e-15)
(41.207 -2.88694 5.46357e-16)
(41.2538 -2.80468 6.81159e-15)
(41.3048 -2.72284 -6.2498e-15)
(41.3563 -2.64076 -1.13897e-15)
(41.4102 -2.55976 2.17616e-15)
(41.4671 -2.48081 6.4079e-16)