/*--------------------------------*- C++ -*----------------------------------*\
  =========                 |
  \\      /  F ield         | OpenFOAM: The Open Source CFD Toolbox
   \\    /   O peration     | Website:  https://openfoam.org
    \\  /    A nd           | Version:  8
     \\/     M anipulation  |
\*---------------------------------------------------------------------------*/
FoamFile
{
    version     2.0;
    format      ascii;
    class       surfaceScalarField;
    location    "0.8";
    object      phi;
}
// * * * * * * * * * * * * * * * * * * * * * * * * * * * * * * * * * * * * * //

dimensions      [1 0 -1 0 0 0 0];

internalField   nonuniform List<scalar> 
4780
(
-1.3543768e-08
-0.00011477937
-3.578217e-14
-2.5958812e-09
-0.00011480399
9.6204718e-15
-2.0181336e-11
-0.00011479573
1.3350228e-13
-6.0675108e-10
-0.00011479236
-1.4106373e-13
8.7358037e-14
-0.00011479335
8.6511291e-15
6.0763928e-10
-0.00011479335
-2.5998922e-14
2.1414847e-11
-0.00011479236
-4.0554139e-13
2.5980227e-09
-0.00011479573
6.5202324e-13
1.3545251e-08
-0.00011480399
1.3157089e-13
-0.00011477937
-4.1843573e-14
-2.8334578e-08
-0.00018376114
-2.755597e-14
-5.4758361e-09
-0.00018383669
1.2626763e-14
-4.0506889e-11
-0.00018381126
1.0281755e-13
-1.1066152e-09
-0.00018380123
-1.0622558e-13
1.2156648e-14
-0.00018380418
1.0069794e-14
1.1071416e-09
-0.00018380419
-2.4966895e-14
4.1370623e-11
-0.00018380123
-3.0703078e-13
5.4772121e-09
-0.00018381126
4.8973365e-13
2.8335659e-08
-0.00018383669
9.8551039e-14
-0.00018376114
-3.8883841e-14
-2.1608011e-08
-0.0001998114
-2.7990329e-14
-7.1122917e-09
-0.00019992297
1.2673448e-14
-1.0999798e-10
-0.00019989023
1.0273723e-13
-1.4222093e-09
-0.00019987171
-1.083045e-13
1.6500459e-14
-0.00019987719
1.0016836e-14
1.4227803e-09
-0.0001998772
-2.5671154e-14
1.1082897e-10
-0.00019987171
-3.0775553e-13
7.1136657e-09
-0.00019989023
4.9266674e-13
2.1609115e-08
-0.00019992297
9.9123149e-14
-0.0001998114
-3.8912535e-14
-1.4591145e-08
-0.0002021608
-2.7191883e-14
-7.8804001e-09
-0.00020229384
1.1991892e-14
-1.6604426e-10
-0.0002022622
1.017074e-13
-1.5837217e-09
-0.00020223434
-1.0896998e-13
2.1778346e-14
-0.00020224263
9.3628579e-15
1.5843399e-09
-0.00020224264
-2.6132804e-14
1.6689019e-10
-0.00020223434
-3.0497695e-13
7.8817737e-09
-0.0002022622
4.9305498e-13
1.4592274e-08
-0.00020229383
9.8998388e-14
-0.0002021608
-3.8536767e-14
-1.0967947e-08
-0.00020240377
-2.5708714e-14
-8.1857072e-09
-0.00020255079
1.0569915e-14
-1.9464203e-10
-0.00020252445
9.9338518e-14
-1.6633567e-09
-0.0002024869
-1.09054e-13
2.7060374e-14
-0.00020249814
8.5032332e-15
1.6640158e-09
-0.00020249815
-2.6015654e-14
1.9551953e-10
-0.0002024869
-3.0035945e-13
8.187092e-09
-0.00020252445
4.9088307e-13
1.0969102e-08
-0.00020255078
9.8198432e-14
-0.00020240377
-3.7736745e-14
-9.1985457e-09
-0.00020241728
-2.459738e-14
-8.281823e-09
-0.00020257466
9.5868659e-15
-1.982654e-10
-0.00020255559
9.7105811e-14
-1.7056052e-09
-0.00020250821
-1.0923894e-13
3.1055983e-14
-0.00020252247
7.6784713e-15
1.7062941e-09
-0.00020252248
-2.4989982e-14
1.9918383e-10
-0.0002025082
-2.9565098e-13
8.2832251e-09
-0.00020255558
4.8671816e-13
9.1997213e-09
-0.00020257465
9.7055035e-14
-0.00020241728
-3.6562013e-14
-8.5973702e-09
-0.00020241185
-2.3662939e-14
-8.2971808e-09
-0.00020257836
8.334761e-15
-1.953347e-10
-0.0002025672
9.4587329e-14
-1.7338682e-09
-0.00020250994
-1.0782325e-13
3.3320993e-14
-0.00020252728
7.1768303e-15
1.7345786e-09
-0.00020252729
-2.3219072e-14
1.9628048e-10
-0.00020250993
-2.903078e-13
8.2986013e-09
-0.00020256719
4.8073343e-13
8.5985635e-09
-0.00020257835
9.4941243e-14
-0.00020241185
-3.5079176e-14
-8.1836791e-09
-0.00020240544
-2.3090495e-14
-8.2830514e-09
-0.00020258027
7.0850798e-15
-1.7689256e-10
-0.00020257743
9.2042694e-14
-1.7561867e-09
-0.00020251024
-1.0637179e-13
3.4143476e-14
-0.00020253073
6.7207844e-15
1.7569111e-09
-0.00020253074
-2.052342e-14
1.7787701e-10
-0.00020251023
-2.8395878e-13
8.2844891e-09
-0.00020257742
4.7257763e-13
8.1848878e-09
-0.00020258026
9.2480454e-14
-0.00020240544
-3.3120207e-14
-8.0842708e-09
-0.00020239917
-2.2555277e-14
-8.2595024e-09
-0.00020258212
5.6668986e-15
-1.6896739e-10
-0.00020258768
8.9192799e-14
-1.7778706e-09
-0.00020251054
-1.0333236e-13
3.4225284e-14
-0.00020253423
6.5398853e-15
1.7786081e-09
-0.00020253424
-1.7025697e-14
1.699699e-10
-0.00020251053
-2.7630616e-13
8.2609562e-09
-0.00020258767
4.6200647e-13
8.0854931e-09
-0.00020258211
8.8439009e-14
-0.00020239917
-3.098983e-14
-7.8034825e-09
-0.00020239319
-2.1579025e-14
-8.2318234e-09
-0.00020258373
4.4192038e-15
-1.3763595e-10
-0.00020259795
8.5995753e-14
-1.7969948e-09
-0.0002025108
-1.0143488e-13
3.3937895e-14
-0.00020253776
5.4665317e-15
1.7977414e-09
-0.00020253777
-1.3795515e-14
1.3868642e-10
-0.00020251079
-2.671991e-13
8.2332924e-09
-0.00020259795
4.495813e-13
7.8047178e-09
-0.00020258372
8.4868803e-14
-0.00020239319
-2.8070245e-14
-7.7829537e-09
-0.00020238741
-2.1195123e-14
-8.202213e-09
-0.00020258552
2.8883569e-15
-1.342538e-10
-0.0002026084
8.1758045e-14
-1.8181617e-09
-0.00020251122
-9.7987949e-14
3.3416852e-14
-0.0002025415
4.6827388e-15
1.818921e-09
-0.00020254152
-9.7138803e-15
1.3531424e-10
-0.00020251121
-2.5645711e-13
8.2036977e-09
-0.00020260839
4.3403442e-13
7.7842014e-09
-0.00020258551
8.0225432e-14
-0.00020238741
-2.463446e-14
-7.4363215e-09
-0.00020238194
-1.9889977e-14
-8.1703517e-09
-0.00020258694
1.7017491e-15
-8.5068335e-11
-0.00020261881
7.7121828e-14
-1.8350395e-09
-0.00020251153
-9.5274331e-14
3.2866677e-14
-0.00020254521
3.5533534e-15
1.8358062e-09
-0.00020254523
-5.8451298e-15
8.6193659e-11
-0.00020251152
-2.4368166e-13
8.1718497e-09
-0.0002026188
4.1573811e-13
7.437581e-09
-0.00020258692
7.4548303e-14
-0.00020238194
-2.0891116e-14
-7.5042836e-09
-0.00020237664
-1.9426412e-14
-8.1363472e-09
-0.00020258868
-4.6634939e-16
-9.5215412e-11
-0.00020262943
7.1505024e-14
-1.8568816e-09
-0.00020251206
-8.995666e-14
3.2008273e-14
-0.00020254919
2.8991998e-15
1.8576631e-09
-0.0002025492
4.3746609e-16
9.6337654e-11
-0.00020251205
-2.2907534e-13
8.1378606e-09
-0.00020262942
3.9515377e-13
7.5055544e-09
-0.00020258867
6.7542862e-14
-0.00020237664
-1.7329994e-14
-7.009244e-09
-0.00020237171
-1.7631851e-14
-8.1015388e-09
-0.00020258983
-1.9331407e-15
-1.764051e-11
-0.00020263998
6.5310759e-14
-1.8702728e-09
-0.00020251237
-8.5858745e-14
3.1561395e-14
-0.00020255305
1.8454692e-15
1.8710596e-09
-0.00020255307
7.4783161e-15
1.8792825e-11
-0.00020251236
-2.1184575e-13
8.1030632e-09
-0.00020263997
3.7191494e-13
7.0105243e-09
-0.00020258982
5.9646917e-14
-0.00020237171
-1.3243103e-14
-7.2532662e-09
-0.00020236692
-1.7216949e-14
-8.0625413e-09
-0.00020259164
-6.0929269e-15
-5.5957044e-11
-0.00020265084
5.8327897e-14
-1.8944012e-09
-0.00020251308
-8.0766767e-14
3.0299355e-14
-0.00020255732
-2.5411403e-16
1.8952063e-09
-0.00020255734
1.7289321e-14
5.7140831e-11
-0.00020251307
-1.9381499e-13
8.0640812e-09
-0.00020265083
3.4580544e-13
7.2545576e-09
-0.00020259163
5.1167063e-14
-0.00020236693
-9.1855298e-15
-6.4922396e-09
-0.00020236267
-1.494488e-14
-8.0259575e-09
-0.00020259248
-8.1559173e-15
8.1223483e-11
-0.00020266158
5.0144772e-14
-1.9018185e-09
-0.00020251341
-7.3984962e-14
3.0221022e-14
-0.00020256137
-9.6978302e-16
1.9026252e-09
-0.00020256139
2.9166264e-14
-7.9888236e-11
-0.0002025134
-1.7021605e-13
8.0275054e-09
-0.00020266157
3.1746312e-13
6.4935373e-09
-0.00020259246
4.1476613e-14
-0.00020236267
-4.4231973e-15
-7.0599191e-09
-0.00020235844
-1.4149626e-14
-7.9803908e-09
-0.00020259452
-1.3263116e-14
-2.3561992e-11
-0.00020267278
4.1796733e-14
-1.9313079e-09
-0.00020251442
-7.0114803e-14
2.8334397e-14
-0.00020256605
-4.7778669e-15
1.9321381e-09
-0.00020256607
3.9627486e-14
2.4829253e-11
-0.0002025144
-1.4926903e-13
7.9819559e-09
-0.00020267277
2.8488269e-13
7.0612274e-09
-0.00020259451
3.1630671e-14
-0.00020235844
1.1835385e-15
-5.8447843e-09
-0.00020235499
-1.1122649e-14
-7.9442075e-09
-0.00020259492
-1.471628e-14
2.1659973e-10
-0.00020268374
3.4729325e-14
-1.9282687e-09
-0.00020251473
-6.2139344e-14
2.9190292e-14
-0.00020257028
-5.8390079e-15
1.9290944e-09
-0.0002025703
5.0977616e-14
-2.1524949e-10
-0.00020251471
-1.2271705e-13
7.9457765e-09
-0.00020268373
2.492173e-13
5.8460954e-09
-0.00020259491
2.2649211e-14
-0.00020235499
9.5510731e-15
-6.9692296e-09
-0.00020235129
-9.9893091e-15
-7.8892404e-09
-0.00020259738
-2.0609437e-14
-8.66022e-12
-0.00020269532
2.760238e-14
-1.9686684e-09
-0.00020251611
-5.6843189e-14
2.6246587e-14
-0.00020257543
-1.1082972e-14
1.9695261e-09
-0.00020257545
6.2488331e-14
1.0158754e-11
-0.0002025161
-1.0326448e-13
7.8908296e-09
-0.00020269531
2.0809287e-13
6.9705519e-09
-0.00020259737
1.3718164e-14
-0.00020235129
1.8374369e-14
-5.0111248e-09
-0.00020234878
-7.6293269e-15
-7.8570624e-09
-0.00020259713
-2.1579342e-14
4.057933e-10
-0.00020270652
2.1563883e-14
-1.9474856e-09
-0.00020251632
-4.5744851e-14
2.8671803e-14
-0.00020257979
-9.3566832e-15
1.9483291e-09
-0.00020257981
7.4714716e-14
-4.0438982e-10
-0.0002025163
-7.6739597e-14
7.8586501e-09
-0.00020270651
1.6859126e-13
5.0124443e-09
-0.00020259712
6.5824239e-15
-0.00020234879
2.9540842e-14
-7.0416259e-09
-0.00020234553
-6.1789729e-15
-7.788331e-09
-0.00020260027
-2.8140199e-14
-3.066471e-11
-0.0002027185
1.4840183e-14
-2.0081191e-09
-0.0002025182
-3.7955539e-14
2.4074947e-14
-0.00020258549
-1.4855347e-14
2.0090076e-09
-0.00020258552
8.6986499e-14
3.2235498e-11
-0.00020251818
-6.0015722e-14
7.7899435e-09
-0.00020271849
1.3292489e-13
7.0429579e-09
-0.00020260025
-2.7312288e-15
-0.00020234554
3.6977214e-14
-3.9201663e-09
-0.00020234418
-3.8557819e-15
-7.7652462e-09
-0.00020259907
-2.8635583e-14
6.7343426e-10
-0.00020272997
7.9823537e-15
-1.9563975e-09
-0.00020251819
-2.9570732e-14
2.9140048e-14
-0.00020258992
-1.3167153e-14
1.9572578e-09
-0.00020258995
9.6575122e-14
-6.7196562e-10
-0.00020251817
-3.317899e-14
7.7668503e-09
-0.00020272996
1.0126128e-13
3.9214862e-09
-0.00020259905
-1.3669515e-14
-0.00020234419
4.6040695e-14
-7.3526288e-09
-0.00020234122
-3.3316926e-15
-7.6771028e-09
-0.00020260322
-3.704381e-14
-1.1676165e-10
-0.00020274238
2.3427357e-15
-2.0523107e-09
-0.0002025207
-2.2564527e-14
2.1825929e-14
-0.00020259627
-1.9249092e-14
2.0532282e-09
-0.00020259629
1.0986558e-13
1.1835588e-10
-0.00020252068
-1.8912979e-14
7.6787382e-09
-0.00020274237
6.8916631e-14
7.3539667e-09
-0.00020260321
-2.8533483e-14
-0.00020234123
5.3028071e-14
-2.4873799e-09
-0.00020234133
-8.9280414e-16
-7.6690137e-09
-0.0002026007
-3.3734679e-14
1.0511295e-09
-0.00020275416
-6.2502529e-15
-1.9508825e-09
-0.00020252032
-1.7143093e-14
3.1665106e-14
-0.0002026007
-1.594464e-14
1.9517587e-09
-0.00020260073
1.1655838e-13
-1.0495915e-09
-0.0002025203
9.6763818e-15
7.6706317e-09
-0.00020275415
3.9428382e-14
2.4886841e-09
-0.00020260068
-3.7253184e-14
-0.00020234133
6.2741422e-14
-7.9924207e-09
-0.00020233841
-1.1987245e-15
-7.5556797e-09
-0.00020260629
-4.4702269e-14
-2.9885912e-10
-0.00020276697
-1.5863594e-14
-2.1056082e-09
-0.00020252365
-9.0580945e-15
2.0145281e-14
-0.00020260778
-2.2408761e-14
2.106557e-09
-0.00020260781
1.3136705e-13
3.0050399e-10
-0.00020252363
2.591779e-14
7.5573387e-09
-0.00020276697
1.0826548e-14
7.9937612e-09
-0.00020260628
-5.2990353e-14
-0.00020233842
6.8199655e-14
-6.2674013e-10
-0.00020234034
1.9682712e-15
-7.567583e-09
-0.00020260197
-3.5350764e-14
1.5779305e-09
-0.00020277916
-2.9459118e-14
-1.925721e-09
-0.00020252273
-7.4120323e-15
3.6761087e-14
-0.00020261215
-1.8531615e-14
1.9266124e-09
-0.00020261217
1.3283312e-13
-1.5763246e-09
-0.0002025227
7.8231946e-14
7.5692135e-09
-0.00020277916
-2.6390378e-14
6.2797126e-10
-0.00020260195
-5.9538622e-14
-0.00020234035
7.8425681e-14
-9.066864e-09
-0.00020233712
9.2704944e-16
-7.4254679e-09
-0.00020260955
-5.1452119e-14
-6.1677687e-10
-0.00020279231
-3.8503432e-14
-2.1729061e-09
-0.00020252707
2.4791922e-15
1.8438523e-14
-0.00020262006
-2.662276e-14
2.1738909e-09
-0.00020262008
1.4944972e-13
6.1848556e-10
-0.00020252705
8.9589123e-14
7.4271501e-09
-0.00020279231
-7.8910848e-14
9.0682049e-09
-0.00020260953
-7.8135217e-14
-0.00020233713
8.0034066e-14
1.8282589e-09
-0.00020234143
4.3825605e-15
-7.4585387e-09
-0.0002026028
-3.4461429e-14
2.3004824e-09
-0.00020280506
-5.1757001e-14
-1.8745933e-09
-0.00020252539
2.3765008e-15
4.5547386e-14
-0.00020262428
-2.0354407e-14
1.8754995e-09
-0.0002026243
1.4530295e-13
-2.298812e-09
-0.00020252537
1.4732368e-13
7.4601818e-09
-0.00020280506
-1.2701085e-13
-1.8269627e-09
-0.00020260279
-8.2257751e-14
-0.00020234145
9.0659581e-14
-1.0700502e-08
-0.00020233744
2.8405222e-15
-7.2898143e-09
-0.00020261302
-5.5630817e-14
-1.1179609e-09
-0.00020281844
-5.9204996e-14
-2.2598826e-09
-0.00020253101
2.1817768e-14
1.7080173e-14
-0.00020263313
-2.9884243e-14
2.26091e-09
-0.00020263315
1.6526161e-13
1.1197388e-09
-0.00020253099
1.4567267e-13
7.2915225e-09
-0.00020281844
-1.8075327e-13
1.0701842e-08
-0.00020261301
-1.0156771e-13
-0.00020233745
8.976082e-14
4.9973337e-09
-0.00020234482
5.8217467e-15
-7.3372727e-09
-0.00020260313
-3.1118621e-14
3.2731629e-09
-0.00020283195
-7.2374734e-14
-1.790067e-09
-0.00020252834
1.7693653e-14
5.9171965e-14
-0.00020263716
-2.0318075e-14
1.7909879e-09
-0.00020263718
1.5317824e-13
-3.2714345e-09
-0.00020252832
2.1391108e-13
7.338929e-09
-0.00020283195
-2.2534242e-13
-4.9960196e-09
-0.00020260312
-1.0108866e-13
-0.00020234483
1.0073457e-13
-1.3040988e-08
-0.0002023394
2.8544753e-15
-7.1546104e-09
-0.00020261676
-6.1329701e-14
-1.8576577e-09
-0.00020284538
-7.7524801e-14
-2.3728961e-09
-0.00020253552
4.0125564e-14
1.5949768e-14
-0.00020264704
-3.2339506e-14
2.373974e-09
-0.00020264705
1.7451029e-13
1.8595066e-09
-0.00020253549
1.9493383e-13
7.1563446e-09
-0.00020284538
-2.738062e-13
1.3042326e-08
-0.00020261675
-1.1868172e-13
-0.00020233942
9.7020621e-14
9.0385659e-09
-0.00020235072
7.1166409e-15
-7.1963316e-09
-0.00020260288
-2.1731652e-14
4.5584458e-09
-0.00020285992
-8.9789917e-14
-1.663508e-09
-0.00020253158
2.9101627e-14
7.9111834e-14
-0.00020265082
-2.0860614e-14
1.6644431e-09
-0.00020265083
1.5059729e-13
-4.556669e-09
-0.00020253155
2.7653519e-13
7.1980011e-09
-0.00020285993
-3.1931183e-13
-9.0372456e-09
-0.00020260287
-1.1854184e-13
-0.00020235074
1.0691363e-13
-1.6264463e-08
-0.00020234304
2.7013427e-15
-7.0288277e-09
-0.00020262083
-6.4430152e-14
-2.8993075e-09
-0.00020287312
-8.9894046e-14
-2.5189261e-09
-0.00020254061
5.5611838e-14
1.4799093e-14
-0.00020266179
-3.6645093e-14
2.5200651e-09
-0.0002026618
1.7685608e-13
2.9012264e-09
-0.00020254058
2.3227332e-13
7.0305885e-09
-0.00020287313
-3.6502266e-13
1.6265794e-08
-0.00020262082
-1.3988925e-13
-0.00020234306
9.6806831e-14
1.4156388e-08
-0.00020235936
7.8993518e-15
-7.0247381e-09
-0.00020260189
-6.6053234e-15
6.2273807e-09
-0.00020288903
-1.086641e-13
-1.4848526e-09
-0.00020253506
3.1931625e-14
1.0598776e-13
-0.00020266527
-2.005568e-14
1.4858011e-09
-0.00020266528
1.3793887e-13
-6.2255677e-09
-0.00020253503
3.3307716e-13
7.0264223e-09
-0.00020288904
-4.0908953e-13
-1.4155067e-08
-0.00020260188
-1.329215e-13
-0.00020235938
1.0771664e-13
-2.0581608e-08
-0.00020234831
2.2129604e-15
-6.9250345e-09
-0.00020262523
-6.6958847e-14
-4.3150651e-09
-0.00020290163
-1.01215e-13
-2.7055776e-09
-0.00020254629
6.8367291e-14
1.2413807e-14
-0.00020267738
-3.7510741e-14
2.7067895e-09
-0.00020267739
1.7133034e-13
4.3170519e-09
-0.00020254626
2.5819787e-13
6.9268219e-09
-0.00020290164
-4.452525e-13
2.058293e-08
-0.00020262522
-1.5391952e-13
-0.00020234834
9.4041639e-14
2.0591487e-08
-0.00020237096
7.9884053e-15
-6.8071996e-09
-0.00020259997
1.0731179e-14
8.3601293e-09
-0.00020291932
-1.1954333e-13
-1.2420718e-09
-0.00020253875
3.7543642e-14
1.4199318e-13
-0.0002026805
-1.7080916e-14
1.2430336e-09
-0.00020268051
1.1371877e-13
-8.3582936e-09
-0.00020253872
3.8324434e-13
6.8088988e-09
-0.00020291933
-4.9056006e-13
-2.0590171e-08
-0.00020259997
-1.4206564e-13
-0.00020237099
1.0484061e-13
-2.6244493e-08
-0.00020235517
1.3731411e-15
-6.8599626e-09
-0.00020262996
-6.8366339e-14
-6.1864008e-09
-0.00020293084
-1.0847731e-13
-2.9411422e-09
-0.00020255254
7.8134403e-14
7.2519606e-15
-0.00020269377
-3.5423943e-14
2.9424405e-09
-0.00020269377
1.5771102e-13
6.1884546e-09
-0.00020255251
2.7245026e-13
6.8617756e-09
-0.00020293085
-5.1015627e-13
2.6245803e-08
-0.00020262995
-1.609794e-13
-0.00020235519
8.7270333e-14
2.8630622e-08
-0.0002023858
6.2681473e-15
-6.5231972e-09
-0.00020259688
3.2805598e-14
1.1046501e-08
-0.00020295081
-1.3179669e-13
-9.1973979e-10
-0.00020254258
3.3618445e-14
1.8805028e-13
-0.00020269651
-1.336703e-14
9.2071561e-10
-0.00020269652
7.8861757e-14
-1.1044659e-08
-0.00020254255
4.2085204e-13
6.5249119e-09
-0.00020295082
-5.63659e-13
-2.8629312e-08
-0.00020259688
-1.4558573e-13
-0.00020238583
9.8738549e-14
-3.3554104e-08
-0.00020236353
8.8719056e-16
-6.8550584e-09
-0.00020263501
-6.7573017e-14
-8.6046984e-09
-0.00020296065
-1.0611864e-13
-3.2346979e-09
-0.00020255935
8.7027113e-14
-7.6757924e-16
-0.00020271092
-3.2815675e-14
3.2360997e-09
-0.00020271092
1.3858048e-13
8.6068206e-09
-0.00020255932
2.7085362e-13
6.8568943e-09
-0.00020296067
-5.5875849e-13
3.3555393e-08
-0.00020263501
-1.6247933e-13
-0.00020236356
7.8392121e-14
3.8615313e-08
-0.00020240419
2.8931854e-15
-6.14581e-09
-0.00020259236
6.1918249e-14
1.4386475e-08
-0.00020298354
-1.4280402e-13
-4.9320914e-10
-0.0002025465
2.3179356e-14
2.4691282e-13
-0.00020271328
-8.4921675e-15
4.9422006e-10
-0.00020271328
4.3657321e-14
-1.4384646e-08
-0.00020254648
4.4863391e-13
6.1475413e-09
-0.00020298355
-6.2808159e-13
-3.8614011e-08
-0.00020259236
-1.4593894e-13
-0.00020240422
8.9346751e-14
-4.2868613e-08
-0.00020237332
2.7075708e-15
-6.9370064e-09
-0.00020264042
-6.3051679e-14
-1.1671777e-08
-0.000202991
-9.7684402e-14
-3.5962279e-09
-0.00020256671
9.0830859e-14
-2.3739294e-14
-0.0002027288
-2.737401e-14
3.597753e-09
-0.0002027288
1.1834287e-13
1.1673975e-08
-0.00020256668
2.5872425e-13
6.9388628e-09
-0.00020299102
-5.9236871e-13
4.2869872e-08
-0.00020264042
-1.5997498e-13
-0.00020237336
6.6791113e-14
5.0951361e-08
-0.0002024265
-5.6964268e-15
-5.6402105e-09
-0.00020258609
9.6148874e-14
1.8490621e-08
-0.00020301754
-1.5478219e-13
7.8912399e-11
-0.00020255051
6.1662175e-15
3.2146505e-13
-0.00020273078
-2.667375e-15
-7.8284056e-11
-0.00020273078
7.9542725e-15
-1.8488829e-08
-0.00020255049
4.6246826e-13
5.6419589e-09
-0.00020301756
-6.7706664e-13
-5.0950063e-08
-0.00020258609
-1.4015814e-13
-0.00020242653
7.6941031e-14
-5.4613003e-08
-0.00020238444
9.2543095e-15
-7.1383969e-09
-0.0002026462
-5.4177851e-14
-1.5500323e-08
-0.0002030218
-8.4606058e-14
-4.0367444e-09
-0.00020257466
8.5452196e-14
-6.6267418e-14
-0.00020274733
-2.1670652e-14
4.0384159e-09
-0.00020274733
9.2866758e-14
1.5502612e-08
-0.00020257464
2.3770306e-13
7.1402717e-09
-0.00020302181
-6.0540775e-13
5.4614217e-08
-0.00020264621
-1.4887799e-13
-0.00020238447
5.2937424e-14
6.6119667e-08
-0.00020245316
-2.2102221e-14
-4.9615337e-09
-0.00020257771
1.3115752e-13
2.3480363e-08
-0.00020305287
-1.6197521e-13
5.8136943e-10
-0.00020255435
-3.4236318e-15
4.1688398e-13
-0.00020274922
9.8700778e-15
-5.8067665e-10
-0.00020274922
-4.7816916e-14
-2.3478635e-08
-0.00020255433
4.6589315e-13
4.9633014e-09
-0.00020305288
-7.1314111e-13
-6.6118368e-08
-0.00020257771
-1.3122186e-13
-0.00020245319
6.2300006e-14
-6.9290108e-08
-0.00020239673
2.1539264e-14
-7.4984747e-09
-0.0002026524
-4.2753782e-14
-2.0214131e-08
-0.00020305292
-6.7780926e-14
-4.5683671e-09
-0.000202583
6.848058e-14
-1.3302167e-13
-0.00020276665
-1.3041861e-14
4.5702143e-09
-0.00020276665
6.1646268e-14
2.0216538e-08
-0.00020258298
2.1939547e-13
7.500366e-09
-0.00020305294
-6.0060756e-13
6.9291259e-08
-0.0002026524
-1.3221089e-13
-0.00020239676
3.8433032e-14
8.4688774e-08
-0.00020248463
-4.9473867e-14
-4.0505678e-09
-0.00020256681
1.5995701e-13
2.9487974e-08
-0.00020308953
-1.7604208e-13
1.2263655e-09
-0.00020255794
-1.4207619e-14
5.3882359e-13
-0.00020276857
2.7015935e-14
-1.2257507e-09
-0.00020276857
-1.1372239e-13
-2.9486348e-08
-0.00020255792
4.5089413e-13
4.0523623e-09
-0.00020308955
-7.3193568e-13
-8.4687461e-08
-0.00020256681
-1.1988173e-13
-0.00020248467
4.2815014e-14
-8.7493381e-08
-0.00020240998
4.8256479e-14
-8.0639279e-09
-0.00020265905
-1.9645919e-14
-2.5948052e-08
-0.00020308424
-3.4932263e-14
-5.2046166e-09
-0.00020259167
4.7237421e-14
-2.329309e-13
-0.00020278669
-3.0543886e-15
5.2066757e-09
-0.00020278669
2.387054e-14
2.5950619e-08
-0.00020259166
2.107973e-13
8.0658328e-09
-0.00020308425
-5.75886e-13
8.7494441e-08
-0.00020265905
-1.0937637e-13
-0.00020241002
2.3599953e-14
1.0732948e-07
-0.00020252146
-8.9680466e-14
-2.8240504e-09
-0.0002025529
1.7895261e-13
3.6656256e-08
-0.00020312752
-1.9993263e-13
2.0058337e-09
-0.00020256115
-2.768236e-14
6.9554296e-13
-0.00020278883
4.3549814e-14
-2.0053541e-09
-0.00020278883
-1.7366556e-13
-3.6654779e-08
-0.00020256113
4.1432809e-13
2.8258956e-09
-0.00020312754
-7.3264698e-13
-1.0732814e-07
-0.00020255291
-1.0688896e-13
-0.0002025215
2.2007916e-14
-1.0992173e-07
-0.00020242395
9.3489671e-14
-8.8898332e-09
-0.00020266624
2.6041207e-14
-3.2847546e-08
-0.00020311557
-2.8191787e-15
-5.9605806e-09
-0.00020260059
8.5545654e-15
-3.7878855e-13
-0.00020280734
1.1397895e-14
5.962896e-09
-0.00020280734
-3.4740512e-14
3.2850334e-08
-0.00020260058
2.2738391e-13
8.8917526e-09
-0.00020311558
-5.3279525e-13
1.0992266e-07
-0.00020266625
-8.7011848e-14
-0.00020242399
8.8439639e-15
1.3483188e-07
-0.00020256424
-1.4921494e-13
-1.1215974e-09
-0.00020253553
1.7947295e-13
4.5137704e-08
-0.00020316674
-2.3044702e-13
2.9306075e-09
-0.00020256382
-2.8410386e-14
8.9707563e-13
-0.00020280995
6.0773741e-14
-2.9303219e-09
-0.00020280995
-2.2086292e-13
-4.5136439e-08
-0.00020256381
3.5691546e-13
1.1236459e-09
-0.00020316675
-7.1267374e-13
-1.3483047e-07
-0.00020253554
-1.0019672e-13
-0.00020256428
-3.8755732e-15
-1.3739692e-07
-0.00020243832
1.6630526e-13
-1.0040589e-08
-0.00020267417
1.101851e-13
-4.1067681e-08
-0.00020314663
4.7413217e-14
-6.8531222e-09
-0.00020260965
-5.4248112e-14
-5.8395844e-13
-0.00020282849
2.5765249e-14
6.8557477e-09
-0.0002028285
-1.4028722e-13
4.1070774e-08
-0.00020260964
2.9227064e-13
1.0042521e-08
-0.00020314664
-4.7277647e-13
1.3739768e-07
-0.00020267418
-6.1121789e-14
-0.00020243836
-1.0085679e-14
1.6812567e-07
-0.00020261368
-2.3471757e-13
8.4239897e-10
-0.00020251384
1.5000984e-13
5.5093029e-08
-0.00020320738
-2.7508456e-13
4.015551e-09
-0.00020256578
-8.2330021e-15
1.1524085e-12
-0.00020283189
7.9641897e-14
-4.0155306e-09
-0.0002028319
-2.449285e-13
-5.5092063e-08
-0.00020256578
2.6908384e-13
-8.4106089e-10
-0.00020320739
-6.7514761e-13
-1.6812415e-07
-0.00020251385
-9.3203861e-14
-0.00020261372
-3.7578324e-14
-1.7088443e-07
-0.00020245273
2.7637485e-13
-1.1590775e-08
-0.00020268281
2.4373576e-13
-5.0771409e-08
-0.00020317747
1.0848744e-13
-7.9010962e-09
-0.00020261872
-1.5098833e-13
-8.6460489e-13
-0.00020285002
4.1232109e-14
7.9040976e-09
-0.00020285002
-2.7621151e-13
5.077492e-08
-0.00020261872
4.2947652e-13
1.1592717e-08
-0.00020317748
-4.136553e-13
1.7088495e-07
-0.00020268282
-3.1327669e-14
-0.00020245277
-3.2531935e-14
2.0830467e-07
-0.0002026706
-3.5628803e-13
2.8745808e-09
-0.00020248661
7.4128322e-14
6.6688701e-08
-0.00020324995
-3.3561794e-13
5.2784004e-09
-0.00020256687
3.5265212e-14
1.4757359e-12
-0.0002028546
9.7877283e-14
-5.2787313e-09
-0.00020285461
-2.3037388e-13
-6.6688146e-08
-0.00020256687
1.3173843e-13
-2.8730917e-09
-0.00020324997
-6.3720425e-13
-2.0830298e-07
-0.00020248663
-9.555952e-14
-0.00020267065
-7.8384276e-14
-2.1151863e-07
-0.00020246677
4.3776094e-13
-1.3626075e-08
-0.00020269187
4.5366709e-13
-6.2126926e-08
-0.00020320839
1.8193172e-13
-9.125492e-09
-0.00020262768
-2.9618618e-13
-1.2383811e-12
-0.00020287176
6.2587798e-14
9.128951e-09
-0.00020287177
-4.6253904e-13
6.2131002e-08
-0.00020262769
6.7438491e-13
1.362802e-08
-0.00020320841
-3.6614297e-13
2.1151884e-07
-0.00020269188
5.780982e-15
-0.00020246681
-4.6000154e-14
2.5665678e-07
-0.00020273596
-5.333152e-13
5.527188e-09
-0.00020245291
-7.4967143e-14
8.0093454e-08
-0.00020329449
-4.1609946e-13
6.7400347e-09
-0.00020256689
1.2493523e-13
1.8875375e-12
-0.00020287797
1.1100202e-13
-6.7408237e-09
-0.00020287798
-1.5699707e-13
-8.0093464e-08
-0.00020256689
-9.9959058e-14
-5.5256432e-09
-0.0002032945
-5.9745239e-13
-2.5665485e-07
-0.00020245293
-1.0534897e-13
-0.00020273601
-1.1738041e-13
-2.6063303e-07
-0.00020247994
6.6432771e-13
-1.624459e-08
-0.00020270153
7.7043258e-13
-7.530377e-08
-0.00020323925
2.7413227e-13
-1.0549292e-08
-0.00020263636
-5.1375553e-13
-1.7241036e-12
-0.00020289351
8.9206906e-14
1.055331e-08
-0.00020289353
-7.3031414e-13
7.5308595e-08
-0.00020263637
1.0705067e-12
1.6246528e-08
-0.00020323926
-3.2594174e-13
2.6063283e-07
-0.00020270155
6.7078604e-14
-0.00020247999
-5.828931e-14
3.146997e-07
-0.00020281088
-7.763197e-13
8.8625884e-09
-0.00020241156
-3.2706975e-13
9.5472975e-08
-0.00020334102
-5.2413237e-13
8.4235078e-09
-0.00020256562
2.8964403e-13
2.4099914e-12
-0.00020290185
1.2231829e-13
-8.4248829e-09
-0.00020290186
1.6712597e-14
-9.5473751e-08
-0.00020256562
-5.0192394e-13
-8.8610081e-09
-0.00020334104
-5.5728361e-13
-3.146974e-07
-0.00020241159
-1.2625023e-13
-0.00020281093
-1.5264881e-13
-3.197959e-07
-0.00020249167
9.8196004e-13
-1.9557491e-08
-0.00020271195
1.2454287e-12
-9.0467268e-08
-0.00020326987
3.6672855e-13
-1.2197565e-08
-0.00020264454
-8.5671824e-13
-2.3467162e-12
-0.00020291502
1.2455012e-13
1.2202266e-08
-0.00020291503
-1.1214437e-12
9.0473077e-08
-0.00020264455
1.684363e-12
1.9559406e-08
-0.00020326989
-2.9473606e-13
3.1979514e-07
-0.00020271198
1.3838349e-13
-0.00020249172
-6.1966676e-14
3.8422381e-07
-0.00020289663
-1.1130057e-12
1.2987531e-08
-0.00020236113
-7.3459972e-13
1.1298254e-07
-0.00020338953
-6.5574137e-13
1.0354262e-08
-0.00020256278
5.6505127e-13
3.0692633e-12
-0.00020292602
1.1681544e-13
-1.035638e-08
-0.00020292603
2.6416116e-13
-1.1298434e-07
-0.00020256279
-1.0976922e-12
-1.2985922e-08
-0.00020338955
-5.1398355e-13
-3.84221e-07
-0.00020236115
-1.6789493e-13
-0.00020289668
-1.8799233e-13
-3.9085299e-07
-0.00020250125
1.4211374e-12
-2.3689603e-08
-0.00020272328
1.9507877e-12
-1.0777092e-07
-0.00020330008
4.7437322e-13
-1.4097531e-08
-0.00020265194
-1.3609898e-12
-3.1287871e-12
-0.00020293594
1.8392812e-13
1.4103064e-08
-0.00020293596
-1.6852728e-12
1.0777801e-07
-0.00020265195
2.6157688e-12
2.3691475e-08
-0.0002033001
-2.7159083e-13
3.9085152e-07
-0.0002027233
2.3075846e-13
-0.00020250131
-5.4713225e-14
4.6734492e-07
-0.00020299472
-1.5795834e-12
1.8030177e-08
-0.00020229982
-1.3664302e-12
1.3275679e-07
-0.0002034399
-8.1265341e-13
1.2560263e-08
-0.00020255808
1.0109189e-12
3.8963743e-12
-0.00020295019
8.9107518e-14
-1.2563312e-08
-0.00020295019
7.2123388e-13
-1.3275995e-07
-0.00020255809
-1.9876294e-12
-1.8028538e-08
-0.00020343992
-4.6970384e-13
-4.6734143e-07
-0.00020229986
-2.3348438e-13
-0.00020299478
-2.2084159e-13
-4.7598046e-07
-0.00020250793
2.0238042e-12
-2.8779909e-08
-0.00020273566
2.9883304e-12
-1.2734602e-07
-0.00020332963
5.8986781e-13
-1.6278573e-08
-0.00020265826
-2.1134549e-12
-4.0982398e-12
-0.00020295594
2.774003e-13
1.628512e-08
-0.00020295595
-2.510364e-12
1.2735474e-07
-0.00020265828
4.0011128e-12
2.8781715e-08
-0.00020332965
-2.5847115e-13
4.7597809e-07
-0.00020273569
3.5194076e-13
-0.00020250799
-3.7020511e-14
5.6657034e-07
-0.00020310696
-2.2223331e-12
2.4136342e-08
-0.00020222553
-2.3286257e-12
1.5489569e-07
-0.00020349191
-9.9145253e-13
1.5072026e-08
-0.0002025512
1.7088787e-12
4.9239941e-12
-0.00020297403
2.1819769e-14
-1.5076234e-08
-0.00020297403
1.4761945e-12
-1.5490064e-07
-0.00020255121
-3.3201714e-12
-2.4134666e-08
-0.00020349194
-4.2188436e-13
-5.6656596e-07
-0.00020222556
-3.2746405e-13
-0.00020310701
-2.4511845e-13
-5.777503e-07
-0.00020251084
2.8517589e-12
-3.4982089e-08
-0.0002027493
4.5125244e-12
-1.4928766e-07
-0.00020335828
6.9923927e-13
-1.8772161e-08
-0.00020266317
-3.2317702e-12
-5.2855653e-12
-0.00020297462
4.2871547e-13
1.877994e-08
-0.00020297464
-3.7256041e-12
1.4929846e-07
-0.00020266319
6.0442975e-12
3.4983804e-08
-0.00020335831
-2.603311e-13
5.7774676e-07
-0.00020274933
4.9952792e-13
-0.0002025109
-1.2837014e-14
6.8488133e-07
-0.00020323551
-3.1051355e-12
3.1469046e-08
-0.00020213565
-3.7689419e-12
1.7944568e-07
-0.00020354521
-1.1751477e-12
1.7922433e-08
-0.00020254185
2.7867064e-12
6.1875781e-12
-0.00020299719
-1.2111048e-13
-1.7928065e-08
-0.00020299719
2.6655153e-12
-1.7945294e-07
-0.00020254186
-5.3131851e-12
-3.1467324e-08
-0.00020354524
-3.7759625e-13
-6.8487577e-07
-0.00020213569
-4.7088081e-13
-0.00020323557
-2.7251816e-13
-6.9921213e-07
-0.00020250902
3.9894652e-12
-4.2465182e-08
-0.00020276443
6.7406259e-12
-1.7363613e-07
-0.00020338574
7.8153905e-13
-2.1611575e-08
-0.00020266632
-4.8870778e-12
-6.723837e-12
-0.00020299161
6.684532e-13
2.1620839e-08
-0.00020299163
-5.5297318e-12
1.7364958e-07
-0.00020266634
9.0449696e-12
4.2466789e-08
-0.00020338576
-2.6653288e-13
6.9920711e-07
-0.00020276446
7.0619043e-13
-0.00020250908
1.4900896e-14
8.2583808e-07
-0.00020338301
-4.3232386e-12
4.0209212e-08
-0.00020202706
-5.9220755e-12
2.0637429e-07
-0.00020359932
-1.3325961e-12
2.1146218e-08
-0.00020252975
4.4424051e-12
7.728369e-12
-0.00020301927
-3.8572512e-13
-2.1153582e-08
-0.00020301926
4.4955727e-12
-2.0638451e-07
-0.00020252976
-8.2941751e-12
-4.0207442e-08
-0.00020359935
-3.3888053e-13
-8.2583102e-07
-0.00020202711
-6.7696193e-13
-0.00020338308
-3.0429055e-13
-8.4399748e-07
-0.00020250143
5.5526027e-12
-5.141446e-08
-0.00020278133
1.0007832e-11
-2.003523e-07
-0.00020341168
7.9015365e-13
-2.483129e-08
-0.00020266732
-7.3556845e-12
-8.4523324e-12
-0.00020300652
1.0441348e-12
2.4842335e-08
-0.00020300654
-8.2094496e-12
2.0036907e-07
-0.00020266735
1.3452661e-11
5.1415959e-08
-0.00020341171
-2.8518863e-13
8.4399062e-07
-0.00020278136
9.6336182e-13
-0.00020250149
4.4233687e-14
9.9371261e-07
-0.00020355269
-6.0028892e-12
5.0556996e-08
-0.00020189596
-9.139662e-12
2.3553651e-07
-0.00020365355