/*--------------------------------*- C++ -*----------------------------------*\
  =========                 |
  \\      /  F ield         | OpenFOAM: The Open Source CFD Toolbox
   \\    /   O peration     | Website:  https://openfoam.org
    \\  /    A nd           | Version:  8
     \\/     M anipulation  |
\*---------------------------------------------------------------------------*/
FoamFile
{
    version     2.0;
    format      ascii;
    class       volVectorField;
    location    "0.8";
    object      U;
}
// * * * * * * * * * * * * * * * * * * * * * * * * * * * * * * * * * * * * * //

dimensions      [0 1 -1 0 0 0 0];

internalField   nonuniform List<vector> 
2000
(
(-1.7163978e-05 -0.00062624245 -3.2851919e-05)
(-2.6922325e-06 -0.00062609417 -3.2891862e-05)
(-4.4377884e-07 -0.00062618889 -3.2891295e-05)
(4.1042815e-07 -0.00062614741 -3.2891605e-05)
(-1.1291677e-06 -0.00062616571 -3.2891456e-05)
(1.1293163e-06 -0.00062616572 -3.2891475e-05)
(-4.0964311e-07 -0.00062614741 -3.289168e-05)
(4.4500888e-07 -0.00062618888 -3.289116e-05)
(2.69339e-06 -0.00062609416 -3.289183e-05)
(1.7164676e-05 -0.00062624245 -3.2851931e-05)
(-3.2908489e-05 -0.0026350091 -6.2566314e-05)
(-6.4474239e-06 -0.0026358232 -6.2655115e-05)
(-1.1622599e-06 -0.0026355104 -6.2654457e-05)
(1.1010117e-06 -0.0026354547 -6.2654389e-05)
(-2.6233119e-06 -0.0026354654 -6.2654391e-05)
(2.6233379e-06 -0.0026354654 -6.265441e-05)
(-1.1004414e-06 -0.0026354547 -6.2654454e-05)
(1.1630894e-06 -0.0026355104 -6.2654344e-05)
(6.4482747e-06 -0.0026358232 -6.2655089e-05)
(3.29089e-05 -0.0026350091 -6.2566324e-05)
(-2.1638977e-05 -0.0033226328 -3.922748e-05)
(-8.2965548e-06 -0.0033242407 -3.9302182e-05)
(-1.5618839e-06 -0.0033237422 -3.9301693e-05)
(1.403243e-06 -0.0033234702 -3.9301666e-05)
(-3.3586284e-06 -0.0033235569 -3.9301656e-05)
(3.3586621e-06 -0.003323557 -3.9301675e-05)
(-1.4026232e-06 -0.0033234701 -3.9301731e-05)
(1.5626754e-06 -0.0033237421 -3.9301579e-05)
(8.2974344e-06 -0.0033242407 -3.9302156e-05)
(2.1639385e-05 -0.0033226328 -3.922749e-05)
(-1.0926949e-05 -0.0032716683 -1.7594933e-05)
(-9.0370517e-06 -0.0032737541 -1.7638678e-05)
(-1.7508227e-06 -0.0032731579 -1.7638743e-05)
(1.516695e-06 -0.0032728342 -1.7638638e-05)
(-3.6686137e-06 -0.0032729215 -1.76387e-05)
(3.6686557e-06 -0.0032729216 -1.7638719e-05)
(-1.5160283e-06 -0.0032728342 -1.7638701e-05)
(1.7515946e-06 -0.0032731578 -1.7638629e-05)
(9.0379282e-06 -0.003273754 -1.7638652e-05)
(1.0927377e-05 -0.0032716683 -1.7594943e-05)
(-5.5663678e-06 -0.0033708091 -6.946274e-06)
(-9.2322715e-06 -0.0033730775 -6.9686087e-06)
(-1.8199096e-06 -0.003372656 -6.9684394e-06)
(1.5504352e-06 -0.0033720399 -6.9686031e-06)
(-3.7802245e-06 -0.0033722356 -6.9685498e-06)
(3.7802744e-06 -0.0033722358 -6.9685677e-06)
(-1.5497317e-06 -0.0033720399 -6.9686635e-06)
(1.8206801e-06 -0.0033726559 -6.9683275e-06)
(9.2331412e-06 -0.0033730774 -6.9685829e-06)
(5.566815e-06 -0.0033708091 -6.946284e-06)
(-3.051036e-06 -0.0033084875 -2.1726746e-06)
(-9.1876677e-06 -0.0033111006 -2.1831765e-06)
(-1.8378836e-06 -0.0033106232 -2.1834376e-06)
(1.5666953e-06 -0.0033100316 -2.1832393e-06)
(-3.8211859e-06 -0.0033101925 -2.183344e-06)
(3.8212413e-06 -0.0033101927 -2.1833609e-06)
(-1.5659678e-06 -0.0033100316 -2.1832974e-06)
(1.8386588e-06 -0.0033106231 -2.1833276e-06)
(9.1885327e-06 -0.0033111005 -2.1831512e-06)
(3.0514955e-06 -0.0033084875 -2.1726843e-06)
(-2.2185397e-06 -0.0033458259 -7.8296155e-07)
(-9.0603653e-06 -0.0033483473 -7.8945541e-07)
(-1.832813e-06 -0.003348241 -7.8915552e-07)
(1.5697034e-06 -0.0033472287 -7.8946818e-07)
(-3.8301133e-06 -0.003347557 -7.8933771e-07)
(3.8301715e-06 -0.0033475571 -7.8935348e-07)
(-1.5689611e-06 -0.0033472286 -7.8952447e-07)
(1.8335919e-06 -0.0033482409 -7.8904776e-07)
(9.0612287e-06 -0.0033483471 -7.8943069e-07)
(2.2190032e-06 -0.0033458259 -7.8297088e-07)
(-1.6885141e-06 -0.003332629 -8.0773128e-08)
(-8.8996468e-06 -0.0033356596 -8.4473236e-08)
(-1.8219237e-06 -0.0033353392 -8.4961703e-08)
(1.5853579e-06 -0.0033345236 -8.452379e-08)
(-3.8423546e-06 -0.00333474 -8.4731451e-08)
(3.8424132e-06 -0.0033347402 -8.4745725e-08)
(-1.5846078e-06 -0.0033345235 -8.4578146e-08)
(1.8227053e-06 -0.0033353391 -8.4856602e-08)
(8.9005078e-06 -0.0033356595 -8.4449184e-08)
(1.6889791e-06 -0.003332629 -8.0781698e-08)
(-1.5757696e-06 -0.0033205964 -1.4230291e-07)
(-8.737121e-06 -0.0033232352 -1.4648164e-07)
(-1.8069421e-06 -0.0033235442 -1.4594771e-07)
(1.5847734e-06 -0.0033220646 -1.4649635e-07)
(-3.838631e-06 -0.0033225603 -1.4625662e-07)
(3.838689e-06 -0.0033225605 -1.4626934e-07)
(-1.5840163e-06 -0.0033220646 -1.4654884e-07)
(1.8077242e-06 -0.0033235441 -1.4584583e-07)
(8.7379812e-06 -0.003323235 -1.464584e-07)
(1.5762326e-06 -0.0033205964 -1.4231071e-07)
(-1.25169e-06 -0.0033600636 1.0741578e-07)
(-8.567061e-06 -0.0033635714 1.0526285e-07)
(-1.7922396e-06 -0.0033633357 1.0442493e-07)
(1.6110279e-06 -0.0033623844 1.0521712e-07)
(-3.8561546e-06 -0.0033626188 1.0484756e-07)
(3.8562114e-06 -0.0033626191 1.0483682e-07)
(-1.610267e-06 -0.0033623842 1.0516694e-07)
(1.7930237e-06 -0.0033633356 1.0452333e-07)
(8.5679181e-06 -0.0033635712 1.0528523e-07)
(1.2521523e-06 -0.0033600636 1.0740889e-07)
(-1.2481526e-06 -0.0032879835 -1.3489419e-07)
(-8.4061426e-06 -0.0032905922 -1.3887737e-07)
(-1.775706e-06 -0.0032914463 -1.3785556e-07)
(1.6030313e-06 -0.0032893758 -1.3889454e-07)
(-3.8445348e-06 -0.0032900981 -1.3843344e-07)
(3.8445902e-06 -0.0032900983 -1.3844207e-07)
(-1.6022633e-06 -0.0032893757 -1.3894217e-07)
(1.7764897e-06 -0.0032914461 -1.3776106e-07)
(8.4069997e-06 -0.003290592 -1.3885588e-07)
(1.2486107e-06 -0.0032879835 -1.3489977e-07)
(-8.6480449e-07 -0.003399569 1.7118084e-07)
(-8.2356674e-06 -0.0034036979 1.7038009e-07)
(-1.7596768e-06 -0.0034033986 1.6887151e-07)
(1.6474855e-06 -0.0034024692 1.7033827e-07)
(-3.8759318e-06 -0.0034026527 1.6966075e-07)
(3.8759857e-06 -0.003402653 1.696547e-07)
(-1.6467145e-06 -0.003402469 1.7029349e-07)
(1.7604631e-06 -0.0034033985 1.6896173e-07)
(8.2365198e-06 -0.0034036976 1.7040023e-07)
(8.652621e-07 -0.003399569 1.7117632e-07)
(-9.7146964e-07 -0.0032378443 -2.1405596e-07)
(-8.0796246e-06 -0.0032401889 -2.1839275e-07)
(-1.7422435e-06 -0.0032418035 -2.1650755e-07)
(1.6221719e-06 -0.0032389301 -2.1841146e-07)
(-3.8487196e-06 -0.0032399785 -2.1755821e-07)
(3.8487717e-06 -0.0032399787 -2.1756197e-07)
(-1.6213913e-06 -0.00323893 -2.1845341e-07)
(1.7430282e-06 -0.0032418033 -2.1642204e-07)
(8.0804781e-06 -0.0032401887 -2.1837374e-07)
(9.7192084e-07 -0.0032378443 -2.140591e-07)
(-4.3587758e-07 -0.0034632034 2.8214446e-07)
(-7.9083408e-06 -0.0034682066 2.8318974e-07)
(-1.7249895e-06 -0.0034675878 2.8053547e-07)
(1.6986297e-06 -0.0034669469 2.8315378e-07)
(-3.9056697e-06 -0.0034669609 2.8195091e-07)
(3.9057203e-06 -0.0034669613 2.8194997e-07)
(-1.6978469e-06 -0.0034669467 2.8311492e-07)
(1.7257777e-06 -0.0034675877 2.8061622e-07)
(7.9091871e-06 -0.0034682063 2.8320681e-07)
(4.363297e-07 -0.0034632034 2.8214242e-07)
(-7.4648742e-07 -0.0031557141 -3.6347369e-07)
(-7.758927e-06 -0.0031574277 -3.6880623e-07)
(-1.706958e-06 -0.003160149 -3.6547049e-07)
(1.6377036e-06 -0.003156128 -3.6882785e-07)
(-3.847609e-06 -0.0031576629 -3.6731402e-07)
(3.8476573e-06 -0.0031576631 -3.6731219e-07)
(-1.6369078e-06 -0.0031561279 -3.6886303e-07)
(1.7077428e-06 -0.0031601487 -3.6539544e-07)
(7.7597765e-06 -0.0031574275 -3.6879012e-07)
(7.4693036e-07 -0.0031557141 -3.634742e-07)
(6.4938241e-08 -0.0035683019 4.7648963e-07)
(-7.5853719e-06 -0.0035745856 4.8015634e-07)
(-1.6881772e-06 -0.003573239 4.7565211e-07)
(1.7709546e-06 -0.0035733086 4.8012971e-07)
(-3.950885e-06 -0.0035729632 4.7807786e-07)
(3.9509324e-06 -0.0035729637 4.7808299e-07)
(-1.7701594e-06 -0.0035733082 4.8009798e-07)
(1.6889678e-06 -0.0035732389 4.75722e-07)
(7.5862102e-06 -0.0035745853 4.8017022e-07)
(-6.4491959e-08 -0.0035683019 4.7649052e-07)
(-6.0282054e-07 -0.0030210117 -6.1459551e-07)
(-7.4444351e-06 -0.0030215501 -6.2182687e-07)
(-1.6701649e-06 -0.0030258997 -6.1621253e-07)
(1.6420978e-06 -0.0030202082 -6.2185361e-07)
(-3.834916e-06 -0.0030224718 -6.1929917e-07)
(3.8349603e-06 -0.003022472 -6.1929137e-07)
(-1.6412846e-06 -0.0030202081 -6.2188085e-07)
(1.6709495e-06 -0.0030258994 -6.1614891e-07)
(7.4452808e-06 -0.00302155 -6.2181378e-07)
(6.0325272e-07 -0.0030210117 -6.145929e-07)
(6.7549196e-07 -0.0037389633 7.9284486e-07)
(-7.2669022e-06 -0.0037471261 8.0018082e-07)
(-1.6491129e-06 -0.0037444528 7.9288752e-07)
(1.874637e-06 -0.0037458484 8.0016576e-07)
(-4.0201876e-06 -0.0037448648 7.9683353e-07)
(4.0202322e-06 -0.0037448654 7.9684499e-07)
(-1.8738297e-06 -0.003745848 8.0014216e-07)
(1.649906e-06 -0.0037444528 7.9294554e-07)
(7.2677309e-06 -0.0037471257 8.0019125e-07)
(-6.7505144e-07 -0.0037389633 7.9284885e-07)
(-5.8309732e-07 -0.0028060402 -1.0100831e-06)
(-7.1363722e-06 -0.0028046522 -1.0203713e-06)
(-1.6322964e-06 -0.0028113538 -1.0114421e-06)
(1.6236768e-06 -0.0028032645 -1.0204018e-06)
(-3.8008299e-06 -0.0028065932 -1.0163315e-06)
(3.8008702e-06 -0.0028065934 -1.0163172e-06)
(-1.6228442e-06 -0.0028032645 -1.0204206e-06)
(1.6330788e-06 -0.0028113535 -1.0113909e-06)
(7.1372157e-06 -0.0028046521 -1.0203615e-06)
(5.8351652e-07 -0.0028060402 -1.0100775e-06)
(1.4457629e-06 -0.0040063821 1.2771373e-06)
(-6.9531379e-06 -0.0040172317 1.2894155e-06)
(-1.607594e-06 -0.0040124308 1.278235e-06)
(2.0245009e-06 -0.0040159717 1.2894091e-06)
(-4.1261595e-06 -0.0040139764 1.2842913e-06)
(4.126202e-06 -0.0040139771 1.2843094e-06)
(-2.0236825e-06 -0.0040159712 1.2893941e-06)
(1.6083897e-06 -0.0040124308 1.2782801e-06)
(6.9539553e-06 -0.0040172312 1.2894224e-06)
(-1.4453274e-06 -0.0040063822 1.2771446e-06)
(-7.4141062e-07 -0.0024764279 -1.5975321e-06)
(-6.8348945e-06 -0.0024721526 -1.6122093e-06)
(-1.5938718e-06 -0.0024821259 -1.5988345e-06)
(1.5658375e-06 -0.002470716 -1.6122325e-06)
(-3.7313192e-06 -0.0024755376 -1.6061281e-06)
(3.7313555e-06 -0.0024755376 -1.6061073e-06)
(-1.5649825e-06 -0.002470716 -1.6122426e-06)
(1.5946503e-06 -0.0024821256 -1.5987972e-06)
(6.8357374e-06 -0.0024721526 -1.6122031e-06)
(7.4181337e-07 -0.002476428 -1.5975232e-06)
(2.4362634e-06 -0.004407624 1.9769279e-06)
(-6.6442064e-06 -0.004422166 1.9955428e-06)
(-1.5634178e-06 -0.0044142582 1.9793568e-06)
(2.2405327e-06 -0.0044209398 1.995528e-06)
(-4.2858467e-06 -0.0044174762 1.9881125e-06)
(4.2858882e-06 -0.0044174771 1.9881369e-06)
(-2.2397051e-06 -0.004420939 1.9955227e-06)
(1.5642166e-06 -0.0044142583 1.9793887e-06)
(6.64501e-06 -0.0044221654 1.9955458e-06)
(-2.435832e-06 -0.0044076241 1.9769384e-06)
(-1.1408274e-06 -0.0019930309 -2.4227743e-06)
(-6.5403546e-06 -0.0019847202 -2.4432334e-06)
(-1.5553768e-06 -0.0019990426 -2.4243429e-06)
(1.4468357e-06 -0.0019832367 -2.4432224e-06)
(-3.607873e-06 -0.0019900514 -2.4345943e-06)
(3.6079053e-06 -0.0019900512 -2.4345672e-06)
(-1.4459559e-06 -0.0019832368 -2.4432228e-06)
(1.5561488e-06 -0.0019990422 -2.4243192e-06)
(6.5411991e-06 -0.0019847203 -2.4432302e-06)
(1.14121e-06 -0.0019930311 -2.422762e-06)
(3.7152936e-06 -0.0049832561 2.9348378e-06)
(-6.3397617e-06 -0.0050026646 2.9611943e-06)
(-1.5165523e-06 -0.0049905401 2.9390141e-06)
(2.5478249e-06 -0.0050014801 2.9611367e-06)
(-4.5207991e-06 -0.0049960323 2.9509717e-06)
(4.520842e-06 -0.0049960332 2.951002e-06)
(-2.5469921e-06 -0.0050014792 2.9611414e-06)
(1.5173558e-06 -0.0049905402 2.939032e-06)
(6.3405466e-06 -0.005002664 2.9611933e-06)
(-3.7148636e-06 -0.0049832562 2.9348515e-06)
(-1.8507834e-06 -0.0013145095 -3.5241294e-06)
(-6.2537806e-06 -0.0013008604 -3.5517301e-06)
(-1.5170618e-06 -0.0013207149 -3.5264387e-06)
(1.2400614e-06 -0.0012993434 -3.551639e-06)
(-3.4076368e-06 -0.0013086985 -3.540085e-06)
(3.4076659e-06 -0.0013086982 -3.5400521e-06)
(-1.2391545e-06 -0.0012993436 -3.5516305e-06)
(1.5178241e-06 -0.0013207144 -3.52643e-06)
(6.2546296e-06 -0.0013008605 -3.5517303e-06)
(1.8511414e-06 -0.0013145097 -3.524114e-06)
(5.3569631e-06 -0.0057748205 4.1842164e-06)
(-6.0383918e-06 -0.0058004069 4.21966e-06)
(-1.4673684e-06 -0.0057828763 4.1907217e-06)
(2.9761807e-06 -0.0057992582 4.2195065e-06)
(-4.8568287e-06 -0.0057912755 4.2062455e-06)
(4.8568756e-06 -0.0057912766 4.206281e-06)
(-2.9753476e-06 -0.0057992571 4.2195217e-06)
(1.4681764e-06 -0.0057828766 4.1907255e-06)
(6.0391547e-06 -0.0058004063 4.2196544e-06)
(-5.3565319e-06 -0.0057748206 4.1842332e-06)
(-2.9458999e-06 -0.00039960049 -4.9297433e-06)
(-5.9775197e-06 -0.00037918243 -4.9657734e-06)
(-1.4786857e-06 -0.00040581107 -4.9334382e-06)
(9.1449699e-07 -0.00037766189 -4.9655388e-06)
(-3.1037058e-06 -0.00039012874 -4.9507691e-06)
(3.1037318e-06 -0.00039012819 -4.950731e-06)
(-9.1355989e-07 -0.00037766222 -4.9655216e-06)
(1.4794337e-06 -0.00040581059 -4.9334443e-06)
(5.9783759e-06 -0.00037918266 -4.9657775e-06)
(2.9462295e-06 -0.0003996007 -4.9297253e-06)
(7.440889e-06 -0.0068229408 5.748131e-06)
(-5.7369562e-06 -0.0068561337 5.793933e-06)
(-1.4168948e-06 -0.0068319669 5.7577223e-06)
(3.5596791e-06 -0.0068549955 5.7936187e-06)
(-5.3237336e-06 -0.0068439124 5.7770297e-06)
(5.3237882e-06 -0.0068439137 5.7770688e-06)
(-3.5588523e-06 -0.0068549943 5.7936446e-06)
(1.4177092e-06 -0.0068319673 5.7577116e-06)
(5.737693e-06 -0.006856133 5.7939225e-06)
(-7.4404541e-06 -0.0068229409 5.7481502e-06)
(-4.5065885e-06 0.00079141274 -6.6579826e-06)
(-5.7159614e-06 0.00082014655 -6.7036605e-06)
(-1.4392456e-06 0.00078547208 -6.6638793e-06)
(4.3507809e-07 0.00082161793 -6.7032079e-06)
(-2.6653513e-06 0.00080546002 -6.6850433e-06)
(2.6653747e-06 0.00080546081 -6.6850009e-06)
(-4.3410776e-07 0.00082161747 -6.7031828e-06)
(1.4399735e-06 0.0007854726 -6.6639005e-06)
(5.7168313e-06 0.00082014622 -6.7036681e-06)
(4.5068824e-06 0.0007914125 -6.6579626e-06)
(1.0053532e-05 -0.0081662646 7.6407606e-06)
(-5.4298503e-06 -0.0082086009 7.6981587e-06)
(-1.3671609e-06 -0.0081765505 7.654378e-06)
(4.3363939e-06 -0.0082074246 7.6976009e-06)
(-5.9551367e-06 -0.0081926735 7.677556e-06)
(5.9552031e-06 -0.008192675 7.6775974e-06)
(-4.3355818e-06 -0.0082074232 7.6976368e-06)
(1.3679832e-06 -0.008176551 7.6543531e-06)
(5.4305564e-06 -0.0082086001 7.6981438e-06)
(-1.005309e-05 -0.0081662648 7.640782e-06)
(-6.6207523e-06 0.0022960012 -8.7194589e-06)
(-5.4762162e-06 0.0023347092 -8.7759622e-06)
(-1.3966946e-06 0.0022907047 -8.7285382e-06)
(-2.3713017e-07 0.0023360525 -8.7752131e-06)
(-2.0581051e-06 0.0023156257 -8.7535674e-06)
(2.0581264e-06 0.0023156268 -8.7535226e-06)
(2.3813703e-07 0.0023360519 -8.7751818e-06)
(1.3973963e-06 0.0022907052 -8.7285732e-06)
(5.4771034e-06 0.0023347088 -8.7759716e-06)
(6.6210059e-06 0.0022960009 -8.7194366e-06)
(1.3290253e-05 -0.0098410487 9.8697233e-06)
(-5.1083068e-06 -0.0098941741 9.9399225e-06)
(-1.3214744e-06 -0.0098529857 9.8884671e-06)
(5.3483151e-06 -0.0098928841 9.9390435e-06)
(-6.7884757e-06 -0.0098739019 9.9154993e-06)
(6.7885592e-06 -0.0098739035 9.9155408e-06)
(-5.3475279e-06 -0.0098928825 9.9390891e-06)
(1.3223073e-06 -0.0098529865 9.8884284e-06)
(5.1089757e-06 -0.0098941733 9.9399023e-06)
(-1.3289797e-05 -0.009841049 9.8697463e-06)
(-9.3859166e-06 0.0041491924 -1.111934e-05)
(-5.2687456e-06 0.0041996477 -1.1187841e-05)
(-1.34764e-06 0.0041450226 -1.1132741e-05)
(-1.1449256e-06 0.004200755 -1.1186719e-05)
(-1.2437191e-06 0.0041754874 -1.1161581e-05)
(1.2437384e-06 0.0041754887 -1.1161535e-05)
(1.145974e-06 0.0042007542 -1.1186684e-05)
(1.3483079e-06 0.0041450233 -1.1132791e-05)
(5.2696555e-06 0.0041996472 -1.1187854e-05)
(9.3861224e-06 0.0041491921 -1.1119317e-05)
(1.7257523e-05 -0.011881116 1.2438217e-05)
(-4.759728e-06 -0.011946791 1.2522439e-05)
(-1.2847407e-06 -0.011895206 1.2463349e-05)
(6.6414197e-06 -0.011945282 1.2521164e-05)
(-7.8651102e-06 -0.011921513 1.2494144e-05)
(7.8652159e-06 -0.011921515 1.2494183e-05)
(-6.6406689e-06 -0.01194528 1.252122e-05)
(1.285587e-06 -0.011895207 1.2463298e-05)
(4.7603545e-06 -0.01194679 1.2522413e-05)
(-1.7257049e-05 -0.011881116 1.2438241e-05)
(-1.2911387e-05 0.0063836332 -1.3859275e-05)
(-5.1079787e-06 0.0064477325 -1.3940972e-05)
(-1.2870188e-06 0.0063811894 -1.3878292e-05)
(-2.3350882e-06 0.0064484628 -1.3939408e-05)
(-1.8003114e-07 0.0064177905 -1.391082e-05)
(1.800474e-07 0.0064177921 -1.3910775e-05)
(2.3361845e-06 0.0064484619 -1.393937e-05)
(1.2876443e-06 0.0063811901 -1.3878353e-05)
(5.1089177e-06 0.0064477318 -1.3940987e-05)
(1.2911537e-05 0.0063836329 -1.3859252e-05)
(2.2075155e-05 -0.014317985 1.5346675e-05)
(-4.3670194e-06 -0.014398095 1.5446177e-05)
(-1.2638315e-06 -0.014334847 1.5379613e-05)
(8.2658351e-06 -0.014396228 1.5444448e-05)
(-9.2304961e-06 -0.014367125 1.5414023e-05)
(9.2306308e-06 -0.014367127 1.5414059e-05)
(-8.2651345e-06 -0.014396226 1.5444512e-05)
(1.264696e-06 -0.014334848 1.5379549e-05)
(4.3675958e-06 -0.014398094 1.5446145e-05)
(-2.2074655e-05 -0.014317985 1.5346699e-05)
(-1.7320369e-05 0.0090297576 -1.6938751e-05)
(-5.0129812e-06 0.009109532 -1.7034893e-05)
(-1.2077321e-06 0.009029762 -1.6964828e-05)
(-3.8585946e-06 0.0091097082 -1.703283e-05)
(1.1792373e-06 0.0090730752 -1.7000879e-05)
(-1.1792266e-06 0.0090730771 -1.7000835e-05)
(3.8597478e-06 0.0091097071 -1.7032791e-05)
(1.2083062e-06 0.0090297627 -1.69649e-05)
(5.0139558e-06 0.0091095312 -1.7034907e-05)
(1.7320455e-05 0.0090297572 -1.6938729e-05)
(2.787835e-05 -0.017181059 1.8593833e-05)
(-3.9079344e-06 -0.017277626 1.8709938e-05)
(-1.2680211e-06 -0.017201435 1.8636155e-05)
(1.0276061e-05 -0.017275226 1.8707709e-05)
(-1.0934406e-05 -0.017240249 1.8673995e-05)
(1.0934576e-05 -0.017240251 1.8674024e-05)
(-1.0275427e-05 -0.017275224 1.870778e-05)
(1.2689098e-06 -0.017201437 1.863608e-05)
(3.9084526e-06 -0.017277625 1.8709902e-05)
(-2.7877817e-05 -0.017181059 1.8593856e-05)
(-2.2751972e-05 0.012115983 -2.0355915e-05)
(-5.0081171e-06 0.012213612 -2.0467817e-05)
(-1.1002146e-06 0.012119287 -2.0390651e-05)
(-5.7708786e-06 0.012213016 -2.0465217e-05)
(2.8847157e-06 0.012169873 -2.0430022e-05)
(-2.8847144e-06 0.012169876 -2.0429984e-05)
(5.7721009e-06 0.012213015 -2.046518e-05)
(1.1007276e-06 0.012119288 -2.0390732e-05)
(5.0091334e-06 0.012213611 -2.0467831e-05)
(2.2751983e-05 0.012115982 -2.0355894e-05)
(3.4819775e-05 -0.020497819 2.217733e-05)
(-3.3543415e-06 -0.020613018 2.2311444e-05)
(-1.309497e-06 -0.020522583 2.2230778e-05)
(1.2731242e-05 -0.020609867 2.230869e-05)
(-1.3031176e-05 -0.020568483 2.2271834e-05)
(1.303139e-05 -0.020568486 2.2271854e-05)
(-1.2730694e-05 -0.020609864 2.2308767e-05)
(1.3104176e-06 -0.020522584 2.2230695e-05)
(3.3547928e-06 -0.020613017 2.2311402e-05)
(-3.4819198e-05 -0.02049782 2.2177352e-05)
(-2.9363107e-05 0.015668896 -2.4107977e-05)
(-5.1237002e-06 0.015786724 -2.4237044e-05)
(-9.5192001e-07 0.01567649 -2.4153133e-05)
(-8.1321061e-06 0.015785091 -2.4233892e-05)
(4.9916356e-06 0.015734898 -2.4195599e-05)
(-4.9916506e-06 0.015734901 -2.4195567e-05)
(8.1334146e-06 0.01578509 -2.4233857e-05)
(9.5236188e-07 0.01567649 -2.4153221e-05)
(5.1247656e-06 0.015786723 -2.4237058e-05)
(2.9363029e-05 0.015668896 -2.410796e-05)
(4.3071686e-05 -0.024294006 2.6093987e-05)
(-2.6714277e-06 -0.024430178 2.6247614e-05)
(-1.4039884e-06 -0.024324166 2.616048e-05)
(1.5695482e-05 -0.024426012 2.6244335e-05)
(-1.5579965e-05 -0.024377696 2.6204518e-05)
(1.5580233e-05 -0.024377699 2.6204528e-05)
(-1.5695045e-05 -0.02442601 2.6244416e-05)
(1.4049497e-06 -0.024324167 2.616039e-05)
(2.6718019e-06 -0.024430177 2.6247567e-05)
(-4.3071053e-05 -0.024294007 2.6094008e-05)
(-3.7330593e-05 0.019713423 -2.8191431e-05)
(-5.3967788e-06 0.019853979 -2.8339173e-05)
(-7.4670215e-07 0.019726439 -2.8248941e-05)
(-1.1007485e-05 0.019850989 -2.8335481e-05)
(7.5601215e-06 0.019793209 -2.8294255e-05)
(-7.5601641e-06 0.019793212 -2.829423e-05)
(1.1008903e-05 0.019850987 -2.8335448e-05)
(7.4706312e-07 0.01972644 -2.8249034e-05)
(5.3979007e-06 0.019853977 -2.8339186e-05)
(3.733041e-05 0.019713423 -2.8191419e-05)
(5.2828241e-05 -0.028593773 3.0339989e-05)
(-1.8168345e-06 -0.028753451 3.0514751e-05)
(-1.571541e-06 -0.028630483 3.0421636e-05)
(1.9238182e-05 -0.028747951 3.0510994e-05)
(-1.8644993e-05 -0.028692176 3.0468388e-05)
(1.8645325e-05 -0.02869218 3.0468387e-05)
(-1.9237885e-05 -0.028747948 3.0511078e-05)
(1.5725538e-06 -0.028630484 3.0421541e-05)
(1.8171201e-06 -0.028753449 3.0514699e-05)
(-5.2827535e-05 -0.028593774 3.0340009e-05)
(-4.6853459e-05 0.024272974 -3.2602197e-05)
(-5.8719812e-06 0.024438991 -3.277025e-05)
(-4.6406988e-07 0.024292699 -3.267418e-05)
(-1.4467571e-05 0.024434271 -3.2766057e-05)
(1.0655517e-05 0.024368359 -3.2722087e-05)
(-1.0655603e-05 0.024368363 -3.2722071e-05)
(1.446913e-05 0.024434269 -3.2766023e-05)
(4.6433883e-07 0.0242927 -3.2674275e-05)
(5.8731685e-06 0.024438989 -3.2770264e-05)
(4.685315e-05 0.024272974 -3.2602191e-05)
(6.4308083e-05 -0.033419821 3.4910975e-05)
(-7.3966613e-07 -0.03360575 3.5108632e-05)
(-1.8371279e-06 -0.033464391 3.5010096e-05)
(2.3434051e-05 -0.033598533 3.5104487e-05)
(-2.2296464e-05 -0.033534778 3.5059278e-05)
(2.2296876e-05 -0.033534782 3.5059264e-05)
(-2.343393e-05 -0.033598529 3.5104571e-05)
(1.8382045e-06 -0.033464393 3.5010001e-05)
(7.398509e-07 -0.033605749 3.5108577e-05)
(-6.4307284e-05 -0.033419822 3.4910996e-05)
(-5.8155493e-05 0.029369566 -3.7335628e-05)
(-6.6024897e-06 0.029564012 -3.7525779e-05)
(-7.8193393e-08 0.029397455 -3.7424408e-05)
(-1.8588634e-05 0.029557115 -3.7521148e-05)
(1.4348604e-05 0.029482528 -3.7474647e-05)
(-1.4348754e-05 0.029482532 -3.7474644e-05)
(1.8590373e-05 0.029557112 -3.7521111e-05)
(7.835997e-08 0.029397456 -3.7424505e-05)
(6.6037497e-06 0.02956401 -3.7525793e-05)
(5.8155033e-05 0.029369566 -3.7335631e-05)
(7.7757261e-05 -0.038793514 3.980192e-05)
(6.2068695e-07 -0.039008687 4.0024384e-05)
(-2.232052e-06 -0.038847425 3.9921071e-05)
(2.8363735e-05 -0.03899929 4.0019982e-05)
(-2.6610344e-05 -0.038927035 3.9972387e-05)
(2.6610854e-05 -0.03892704 3.9972363e-05)
(-2.8363835e-05 -0.038999287 4.0020062e-05)
(2.2332058e-06 -0.038847427 3.9920978e-05)
(-6.2061611e-07 -0.039008685 4.0024329e-05)
(-7.7756342e-05 -0.038793515 3.9801942e-05)
(-7.1488101e-05 0.035023934 -4.2386247e-05)
(-7.6511704e-06 0.03525004 -4.2600455e-05)
(4.4327709e-07 0.03506162 -4.2494367e-05)
(-2.3453006e-05 0.035240433 -4.2595484e-05)
(1.871593e-05 0.035156628 -4.2546681e-05)
(-1.8716172e-05 0.035156633 -4.2546692e-05)
(2.3454978e-05 0.03524043 -4.2595435e-05)
(-4.4322435e-07 0.035061621 -4.2494464e-05)
(7.6525141e-06 0.035250038 -4.2600474e-05)
(7.1487458e-05 0.035023934 -4.2386261e-05)
(9.3452493e-05 -0.044734979 4.5006758e-05)
(2.3359327e-06 -0.044982669 4.5256098e-05)
(-2.7952982e-06 -0.044799897 4.5148783e-05)
(3.4114127e-05 -0.044970538 4.5251649e-05)
(-3.1668767e-05 -0.044889261 4.5201902e-05)
(3.1669398e-05 -0.044889267 4.5201868e-05)
(-3.4114504e-05 -0.044970534 4.5251719e-05)
(2.7965447e-06 -0.044799899 4.5148696e-05)
(-2.3359908e-06 -0.044982667 4.5256044e-05)
(-9.3451421e-05 -0.044734981 4.5006785e-05)
(-8.7133643e-05 0.041255618 -4.7747349e-05)
(-9.0918979e-06 0.041516919 -4.7987774e-05)
(1.1407147e-06 0.041304938 -4.78776e-05)
(-2.9149463e-05 0.04150397 -4.7982599e-05)
(2.384014e-05 0.0414104 -4.7931734e-05)
(-2.3840508e-05 0.041410407 -4.7931764e-05)
(2.9151731e-05 0.041503966 -4.7982526e-05)
(-1.1407875e-06 0.041304939 -4.7877698e-05)
(9.0933341e-06 0.041516917 -4.7987802e-05)
(8.7132778e-05 0.041255617 -4.774738e-05)
(0.00011170509 -0.051263194 5.0518081e-05)
(4.4905872e-06 -0.051547 5.0796724e-05)
(-3.5752054e-06 -0.051340986 5.068596e-05)
(4.0778688e-05 -0.051531464 5.0792342e-05)
(-3.7560411e-05 -0.05144064 5.0740695e-05)
(3.7561192e-05 -0.051440648 5.0740656e-05)
(-4.0779412e-05 -0.05153146 5.0792391e-05)
(3.5765608e-06 -0.051340988 5.0685884e-05)
(-4.4907882e-06 -0.051546997 5.0796677e-05)
(-0.00011170383 -0.051263195 5.0518117e-05)
(-0.00010540951 0.048083047 -5.341087e-05)
(-1.101112e-05 0.048383438 -5.3679848e-05)
(2.0643588e-06 0.048146049 -5.3566364e-05)
(-3.5773613e-05 0.048366383 -5.3674696e-05)
(2.9810316e-05 0.048262498 -5.3622023e-05)
(-2.9810853e-05 0.048262505 -5.3622078e-05)
(3.5776256e-05 0.048366379 -5.3674584e-05)
(-2.0645698e-06 0.048146051 -5.3566463e-05)
(1.101266e-05 0.048383435 -5.3679891e-05)
(0.00010540837 0.048083047 -5.3410922e-05)
(0.00013286635 -0.058396056 5.6327183e-05)
(7.1835446e-06 -0.058719956 5.6637762e-05)
(-4.6320597e-06 -0.058488822 5.652426e-05)
(4.8458286e-05 -0.058700209 5.6633669e-05)
(-4.4380869e-05 -0.058599309 5.6580379e-05)
(4.4381839e-05 -0.058599317 5.6580341e-05)
(-4.845944e-05 -0.058700204 5.6633683e-05)
(4.6335398e-06 -0.058488824 5.6524198e-05)
(-7.1839045e-06 -0.058719953 5.6637728e-05)
(-0.00013286484 -0.058396057 5.6327233e-05)
(-0.00012667314 0.055523607 -5.9367586e-05)
(-1.3509876e-05 0.055867405 -5.9667691e-05)
(3.2765201e-06 0.055602573 -5.955177e-05)
(-4.3428243e-05 0.055845318 -5.9662866e-05)
(3.6722346e-05 0.05573056 -5.9608649e-05)
(-3.6723105e-05 0.055730569 -5.9608737e-05)
(4.3431357e-05 0.055845313 -5.966269e-05)
(-3.276884e-06 0.055602575 -5.9551872e-05)
(1.3511528e-05 0.055867401 -5.966776e-05)
(0.00012667169 0.055523607 -5.9367666e-05)
(0.000157334 -0.066150456 6.24243e-05)
(1.0530181e-05 -0.066518865 6.2769668e-05)
(-6.0411364e-06 -0.066260561 6.2654357e-05)
(5.7261989e-05 -0.066493937 6.2766227e-05)
(-5.2233038e-05 -0.066382426 6.2711563e-05)
(5.2234242e-05 -0.066382436 6.2711535e-05)
(-5.7263678e-05 -0.066493932 6.2766185e-05)
(6.0427576e-06 -0.066260563 6.2654314e-05)
(-1.0530712e-05 -0.066518861 6.2769656e-05)
(-0.00015733219 -0.066150458 6.2424372e-05)
(-0.0001513278 0.063593707 -6.5607206e-05)
(-1.6706417e-05 0.063985701 -6.5941303e-05)
(4.8540977e-06 0.063691204 -6.5823886e-05)
(-5.2223488e-05 0.06395748 -6.5937179e-05)
(4.4679308e-05 0.063831286 -6.5881687e-05)
(-4.4680348e-05 0.063831296 -6.5881821e-05)
(5.2227186e-05 0.063957475 -6.5936906e-05)
(-4.8546295e-06 0.063691206 -6.5823994e-05)
(1.670819e-05 0.063985697 -6.5941414e-05)
(0.00015132596 0.063593708 -6.5607322e-05)
(0.00018555851 -0.074542334 6.8798349e-05)
(1.4666201e-05 -0.074960174 6.9181689e-05)
(-7.8952484e-06 -0.074672442 6.9065586e-05)
(6.7306725e-05 -0.074928903 6.9179356e-05)
(-6.1227499e-05 -0.074806236 6.9123586e-05)
(6.1228993e-05 -0.074806247 6.9123582e-05)
(-6.7309072e-05 -0.074928898 6.9179227e-05)
(7.8970252e-06 -0.074672444 6.9065567e-05)
(-1.4666913e-05 -0.07496017 6.9181714e-05)
(-0.00018555632 -0.074542336 6.8798454e-05)
(-0.00017982914 0.072308834 -7.2117569e-05)
(-2.0739208e-05 0.072754368 -7.2488842e-05)
(6.8918919e-06 0.072427752 -7.2370971e-05)
(-6.2277164e-05 0.072718696 -7.2485893e-05)
(5.3791839e-05 0.072580494 -7.2429396e-05)
(-5.3793231e-05 0.072580505 -7.2429595e-05)
(6.2281582e-05 0.07271869 -7.2485475e-05)
(-6.8926082e-06 0.072427753 -7.2371086e-05)
(2.074111e-05 0.072754363 -7.2489014e-05)
(0.00017982683 0.072308835 -7.2117734e-05)
(0.00021805119 -0.083586732 7.5435573e-05)
(1.9751432e-05 -0.084059525 7.5860434e-05)
(-1.0308911e-05 -0.083739858 7.5744661e-05)
(7.8717765e-05 -0.084020511 7.5859776e-05)
(-7.148291e-05 -0.083886134 7.5803164e-05)
(7.1484763e-05 -0.083886147 7.5803206e-05)
(-7.8720918e-05 -0.084020505 7.5859515e-05)
(1.0310857e-05 -0.08373986 7.574467e-05)
(-1.9752335e-05 -0.08405952 7.5860514e-05)
(-0.00021804854 -0.083586734 7.5435723e-05)
(-0.00021269296 0.081683604 -7.8883007e-05)
(-2.5770676e-05 0.082188675 -7.9294985e-05)
(9.5066566e-06 0.081827207 -7.9177817e-05)
(-7.3715112e-05 0.082143973 -7.9293806e-05)
(6.4178534e-05 0.081993183 -7.923657e-05)
(-6.4180358e-05 0.081993197 -7.9236861e-05)
(7.3720406e-05 0.082143966 -7.9293176e-05)
(-9.5075718e-06 0.081827208 -7.9177941e-05)
(2.5772713e-05 0.082188669 -7.9295248e-05)
(0.00021269009 0.081683605 -7.8883236e-05)
(0.00025539422 -0.093297851 8.2318051e-05)
(2.5974658e-05 -0.09383182 8.2788389e-05)
(-1.3423441e-05 -0.093477411 8.2674192e-05)
(9.1629115e-05 -0.093783379 8.2790111e-05)
(-8.3126406e-05 -0.093636729 8.2732914e-05)
(8.31287e-05 -0.093636743 8.273303e-05)
(-9.1633248e-05 -0.093783373 8.2789655e-05)
(1.3425566e-05 -0.093477413 8.2674231e-05)
(-2.5975757e-05 -0.093831814 8.2788553e-05)
(-0.00025539102 -0.093297853 8.2318263e-05)
(-0.00025050497 0.091731814 -8.5883372e-05)
(-3.1991865e-05 0.092303187 -8.6339967e-05)
(1.2842059e-05 0.091903803 -8.6224795e-05)
(-8.6671503e-05 0.092247561 -8.6341306e-05)
(7.5966334e-05 0.092083595 -8.6283582e-05)
(-7.5968682e-05 0.092083611 -8.6284008e-05)
(8.6677854e-05 0.092247553 -8.6340371e-05)
(-1.2843184e-05 0.091903804 -8.6224932e-05)
(3.1994036e-05 0.09230318 -8.6340362e-05)
(0.00025050145 0.091731815 -8.5883685e-05)
(0.00029825345 -0.10368909 8.9423205e-05)
(3.3559751e-05 -0.10429129 8.9943431e-05)
(-1.7413253e-05 -0.10389897 8.9832198e-05)
(0.00010618381 -0.10423139 8.994841e-05)
(-9.6293971e-05 -0.10407189 8.9890863e-05)
(9.62968e-05 -0.10407191 8.9891098e-05)
(-0.00010618912 -0.10423138 8.9947665e-05)
(1.741556e-05 -0.10389897 8.9832268e-05)
(-3.3561042e-05 -0.10429128 8.9943719e-05)
(-0.00029824959 -0.10368909 8.9423504e-05)
(-0.00029393322 0.10246649 -9.3093638e-05)
(-3.9628255e-05 0.10311184 -9.3599182e-05)
(1.7074768e-05 0.10267108 -9.348746e-05)
(-0.00010128909 0.10304301 -9.3603976e-05)
(8.9290915e-05 0.10286527 -9.3545993e-05)
(-8.9293892e-05 0.10286529 -9.3546612e-05)
(0.00010129671 0.103043 -9.3602603e-05)
(-1.7076106e-05 0.10267108 -9.348761e-05)
(3.9630555e-05 0.10311183 -9.359977e-05)
(0.00029392893 0.10246649 -9.3094063e-05)
(0.00034739431 -0.11477311 9.6723472e-05)
(4.2773387e-05 -0.11545155 9.7298507e-05)
(-2.2493668e-05 -0.11501774 9.7191788e-05)
(0.0001225341 -0.11537775 9.7307832e-05)
(-0.00011113083 -0.11520483 9.7250135e-05)
(0.0001111343 -0.11520484 9.7250553e-05)
(-0.00012254083 -0.11537775 9.7306662e-05)
(2.2496153e-05 -0.11501774 9.719189e-05)
(-4.2774862e-05 -0.11545154 9.7298974e-05)
(-0.00034738967 -0.11477311 9.6723887e-05)
(-0.00034374358 0.11389992 -0.00010048442)
(-4.8947063e-05 0.11462799 -0.00010104373)
(2.2421917e-05 0.11414193 -0.00010093709)
(-0.00011771938 0.11454321 -0.00010105315)
(0.00010429708 0.11435111 -0.00010099509)
(-0.0001043008 0.11435113 -0.00010099599)
(0.0001177285 0.11454321 -0.00010105115)