/*--------------------------------*- C++ -*----------------------------------*\
  =========                 |
  \\      /  F ield         | OpenFOAM: The Open Source CFD Toolbox
   \\    /   O peration     | Website:  https://openfoam.org
    \\  /    A nd           | Version:  8
     \\/     M anipulation  |
\*---------------------------------------------------------------------------*/
FoamFile
{
    version     2.0;
    format      ascii;
    class       volScalarField;
    location    "0.500023";
    object      epsilon;
}
// * * * * * * * * * * * * * * * * * * * * * * * * * * * * * * * * * * * * * //

dimensions      [0 2 -3 0 0 0 0];

internalField   nonuniform List<scalar> 
6800
(
1457.38
3714.57
3238.41
2553.4
1937.94
1322.97
795.137
412.071
225.004
139.316
1090.37
2732.19
2588.58
2193.11
1482.67
828.407
423.034
231.255
131.575
87.7534
1169.54
2369.44
2245.24
1828.7
1039.99
529.54
276.815
147.423
84.3818
53.0103
1232.69
2080.08
2049.84
1530.27
750.898
341.454
158.704
89.1905
55.3415
39.9506
1285.78
2004.63
1932.62
1167.79
468.524
209.096
114.408
69.3899
45.212
33.1455
1330.24
1973.95
1809.66
852.798
348.801
163.442
84.7263
50.1042
34.5519
27.5064
1370.82
2060.77
1649.7
591.22
229.495
110.646
63.6217
43.4562
31.3174
25.7687
1400.83
2181.05
1381.4
459.904
193.495
96.2453
57.0061
36.2932
26.8361
22.9469
1429.38
2317.04
1151.18
350.455
138.712
73.6174
45.5308
32.4954
25.5303
22.1637
1445.55
2413.52
911.211
285.913
125.268
68.4233
43.007
29.8225
23.2756
20.5615
11253.3
7764.34
6710.72
6439.11
6700.91
7300.45
7989.99
8594.67
8930.74
9037.25
10920.5
7476.75
6673.04
6662.86
7372.25
8492.59
9747.2
10891.1
11766.4
12142.3
10322.5
7105.71
6640.33
7249.86
8756.07
10706.8
12454.2
13689.7
14348.7
14390.4
9668.31
6915.35
7010.27
8662.94
11341.3
13784.1
15030.1
15107.9
14868.1
13818.8
9152.1
7278.64
8653.48
12105.8
15423.4
16318.7
15947.5
14572.4
13015.9
9643.76
8859.16
9040.01
13148
17691.8
17959.5
16633.1
14092.7
9859.8
7088.78
4027.07
8941.73
13415.4
19963.9
19489.5
16915.4
11174.9
6550.59
3906.57
2794.53
1686.84
8955.07
19891.3
19630.2
14780.5
7523.91
4405.36
2864.41
1905.77
1467.51
893.216
7978.07
15855.1
10897.7
5839.17
3625.57
2466.68
1730.31
1222.75
937.375
540.083
5181.92
6645.98
4692.92
3205.22
2364.46
1755.76
1247.63
862.016
501.009
254.738
8807.38
8024.54
7267.92
6583.11
5991.83
5497.44
5080.37
4726.75
4423.98
4161.86
3932.52
3730.07
3549.72
3387.73
3241.23
3107.89
2985.77
2873.24
2768.96
2671.78
2580.83
2495.29
2414.59
2338.12
2265.51
2196.3
2130.11
2066.6
2005.5
1946.61
1889.82
1835.04
1782.25
1731.43
1682.55
1635.6
1590.52
1547.29
1505.82
1466.09
1428.01
1391.56
1356.68
1323.35
1291.5
1261.13
1232.15
1204.56
1178.26
1153.24
1129.4
1106.72
1085.14
1064.6
1045.06
1026.46
1008.76
991.898
975.829
960.492
945.835
931.79
918.303
905.308
892.756
880.591
868.789
857.314
846.168
835.319
824.767
814.455
804.358
794.395
784.534
774.695
764.858
754.958
744.99
734.91
724.726
714.41
703.987
693.439
682.809
672.079
661.318
650.487
639.701
628.856
618.167
607.382
596.926
586.237
576.186
565.546
556.159
545.344
537.11
525.523
11919
10786.3
9670.29
8699.49
7888.32
7206.44
6626.54
6135.62
5716.71
5355.53
5040.54
4763.07
4516.38
4295.23
4095.57
3914.13
3748.12
3595.21
3453.56
3321.64
3198.3
3082.49
2973.45
2870.31
2772.9
2680.43
2592.27
2507.95
2427.13
2349.59
2275.18
2203.8
2135.38
2069.84
2007.1
1947.09
1889.69
1834.82
1782.34
1732.19
1684.24
1638.4
1594.59
1552.78
1512.88
1474.86
1438.64
1404.17
1371.36
1340.16
1310.48
1282.26
1255.41
1229.88
1205.57
1182.43
1160.38
1139.35
1119.26
1100.05
1081.63
1063.93
1046.88
1030.41
1014.46
998.987
983.961
969.363
955.202
941.44
928.076
915.034
902.282
889.72
877.312
864.968
852.671
840.35
828.006
815.592
803.123
790.569
777.961
765.278
752.572
739.819
727.099
714.361
701.741
689.106
676.712
664.251
652.226
639.961
628.491
616.35
605.726
593.439
584.224
571.191
14101.8
12976
11692.7
10582.7
9646.82
8853.14
8182.81
7609.97
7115.89
6686.05
6308.18
5973.41
5674
5404.33
5159.93
4936.79
4731.34
4540.87
4363.34
4197.01
4040.76
3893.43
3754.21
3622.35
3496.65
3376.52
3261.49
3151.19
3045.36
2943.83
2846.51
2753.32
2664.2
2579.07
2497.82
2420.3
2346.32
2275.7
2208.26
2143.9
2082.33
2023.42
1967.15
1913.48
1862.3
1813.5
1766.92
1722.49
1680.06
1639.59
1600.97
1564.19
1529.16
1495.85
1464.17
1434.05
1405.43
1378.18
1352.19
1327.35
1303.53
1280.6
1258.49
1237.08
1216.29
1196.03
1176.27
1157.01
1138.33
1120.27
1102.83
1085.87
1069.31
1053
1036.88
1020.85
1004.9
988.96
973.041
957.091
941.124
925.105
909.068
892.994
876.95
860.909
844.978
829.086
813.414
797.779
782.517
767.214
752.53
737.567
723.679
708.937
696.2
681.298
670.406
654.408
13325.8
12350.6
11316.6
10391
9598.52
8911.12
8311.13
7790.39
7336.49
6938.83
6586.68
6273.46
5991.72
5737.2
5506.03
5293.97
5096.87
4912.44
4738.99
4575.11
4420.04
4272.74
4132.74
3999.29
3871.55
3748.7
3630.24
3515.95
3405.53
3299.05
3196.73
3098.5
3004.32
2914.15
2827.81
2745.2
2666.08
2590.29
2517.69
2448.05
2381.55
2318.14
2257.53
2199.54
2144.03
2090.76
2039.62
1990.54
1943.43
1898.34
1855.22
1814.16
1775.11
1738.04
1702.86
1669.41
1637.58
1607.18
1578.07
1550.11
1523.14
1497.03
1471.63
1446.84
1422.58
1398.79
1375.44
1352.57
1330.31
1308.85
1288.2
1268.06
1248.29
1228.7
1209.26
1189.88
1170.55
1151.22
1131.9
1112.56
1093.21
1073.81
1054.43
1035.03
1015.71
996.444
977.366
958.372
939.712
921.119
903.052
884.932
867.645
849.989
833.731
816.373
801.566
784.033
771.535
752.772
8662.54
7672.51
6900.25
6316.54
5883.84
5554.72
5295.21
5090.75
4920.43
4777.08
4651.36
4542.79
4442.53
4353.32
4270.23
4187.11
4101.27
4015.59
3931.31
3847.77
3766.46
3686.16
3607.8
3531.26
3455.46
3379.96
3304.37
3229.56
3155.14
3082.12
3010.56
2940.55
2872.46
2806.35
2742.05
2679.7
2618.83
2559.67
2501.98
2445.93
2391.42
2338.76
2287.72
2238.52
2191.02
2144.72
2099.89
2056.14
2013.58
1972.41
1932.62
1894.52
1858.2
1823.74
1791.22
1760.53
1731.58
1704
1677.67
1652.31
1627.69
1603.65
1579.98
1556.65
1533.61
1510.79
1488.14
1465.64
1443.49
1422.29
1402.01
1382.03
1362.17
1342.26
1322.33
1302.3
1282.24
1262.17
1242.08
1221.87
1201.53
1181.02
1160.42
1139.73
1119.09
1098.44
1077.99
1057.59
1037.59
1017.6
998.247
978.757
960.26
941.243
923.865
905.129
889.312
870.361
856.979
836.751
3534.42
3093.27
2768.16
2524.54
2344.61
2204.86
2099.93
2018.02
1955.55
1907.55
1871.93
1847.36
1829.43
1822.64
1813.57
1816.44
1827.88
1846.61
1869.77
1893.2
1918.49
1943.18
1967.41
1990.04
2009.64
2026.04
2037.77
2046.44
2049.81
2053.72
2053.19
2049.85
2043.65
2035.24
2023.74
2010.77
1994.82
1977.94
1959.56
1940.14
1919.98
1900.72
1879.74
1859.9
1840.19
1818.21
1797.28
1774.39
1751.64
1728.41
1705.8
1683.31
1661.8
1641.63
1623.21
1606.23
1590.97
1575.81
1561.93
1547.77
1533.46
1518.76
1503.48
1488.35
1472.69
1457.02
1441.38
1425.5
1409.06
1393.22
1378.21
1363.35
1348.43
1332.97
1317.29
1301.29
1284.8
1268.08
1251.19
1233.89
1216.18
1198.03
1179.6
1160.87
1142.04
1123.05
1104.17
1085.19
1066.55
1047.8
1029.65
1011.21
993.779
975.654
959.185
941.213
926.124
907.884
895.005
875.563
1530.05
1363.53
1226.67
1115.89
1025.49
950.16
887.446
834.494
789.448
751.061
718.768
691.523
669.358
650.509
636.267
623.995
615.207
610.45
604.263
605.183
609.513
618.886
629.505
642.22
655.201
670.242
684.376
700.839
715.912
733.618
750.177
769.868
786.92
809.527
828.733
853.051
876.056
900.931
924.374
952.179
974.699
1002.91
1027.51
1049.9
1078.19
1094.53
1115.38
1132.06
1141.23
1145.04
1158.23
1161.49
1161.3
1155.64
1155.35
1158.39
1164.51
1168.47
1177.39
1177.46
1182.08
1180.64
1180.14
1179.73
1178.69
1177.59
1178.8
1178.53
1170.89
1167.3
1168.46
1166.35
1162.25
1156.59
1149.98
1142.46
1134.19
1125.25
1115.61
1105.36
1094.49
1083.06
1071.05
1058.49
1045.54
1032.17
1018.67
1004.85
991.172
977.152
963.556
949.494
936.219
922.175
909.385
895.309
883.238
869.018
858.162
843.576
816.718
730.862
656.675
593.416
538.38
489.838
446.792
408.464
375.059
345.528
320.005
296.99
276.833
258.952
243.322
229.839
218.49
208.55
200.144
192.89
187.081
182.59
179.222
177.082
175.647
175.191
174.564
175.159
176.33
178.78
181.096
184.996
188.197
193.387
198.453
204.291
211.783
219.448
229.177
239.522
253.24
265.689
283.228
299.859
317.24
336.822
357.516
373.502
399.262
417.727
434.724
464.117
475.847
473.094
476.683
491.028
511.721
535.432
561.148
587.177
613.027
637.584
660.959
682.717
703.223
722.229
739.048
753.781
766.851
778.457
789.202
798.511
806.615
813.409
819.01
823.538
827.14
829.547
831.073
831.423
831.27
830.808
829.063
826.445
823.053
818.967
814.397
809.252
803.835
797.921
791.971
785.52
779.222
772.034
765.586
758.141
751.473
743.901
737.026
729.566
490.639
434.855
384.427
339.911
300.953
266.847
237.249
211.644
189.383
170.376
153.513
139.343
127.449
117.305
108.646
101.129
94.6288
88.9108
83.9339
79.5134
75.6276
72.1371
69.049
66.2544
63.7837
61.5356
59.544
57.7479
56.149
54.7668
53.5212
52.4987
51.5707
50.9465
50.2684
49.9195
50.1706
50.2016
50.7903
51.2195
52.1666
53.2952
55.0584
57.1969
59.4947
62.2722
65.5738
68.6083
72.8123
77.2942
81.6004
86.3291
92.0298
94.1366
101.781
102.896
109.214
118.325
129.472
142.089
156.043
171.268
187.435
203.937
220.632
237.337
254.072
270.621
287.098
303.522
319.741
335.744
351.293
366.477
381.023
395.064
408.396
421.126
432.976
444.189
454.42
464.122
472.727
480.786
487.732
494.182
499.598
504.661
508.681
512.461
515.111
518.078
520.735
522.319
525.647
527.62
528.433
530.48
530.856
531.245
222.02
191.215
166.317
146.329
130.071
116.624
105.325
95.7193
87.4649
80.2996
74.0236
68.501
63.6288
59.3193
55.5055
52.1156
49.1036
46.4139
44.015
41.8608
39.9261
38.1719
36.5862
35.1337
33.8143
32.5904
31.4735
30.4258
29.4649
28.5609
27.7288
26.9158
26.2167
25.4365
24.8048
24.0689
23.4769
22.8465
22.3111
21.7721
21.2905
20.8603
20.5506
20.2314
20.0938
19.9775
19.8009
19.8773
19.9629
20.0528
20.126
20.2464
21.3004
21.5987
22.027
22.2016
22.0162
22.9921
23.5475
24.1123
24.1973
24.7704
28.0221
29.8069
29.961
30.9191
33.4666
37.25
41.6188
46.9263
52.4332
58.802
65.1489
72.3486
79.3656
87.2607
94.8208
103.291
111.233
120.11
128.239
137.342
145.466
154.593
162.515
171.487
179.074
187.814
195.006
203.464
210.23
218.284
224.334
232.159
237.795
245.393
250.543
257.956
261.216
271.947
88.2852
82.9861
77.717
72.5502
67.5951
62.9262
58.5924
54.6075
50.9712
47.667
44.6738
41.9654
39.5165
37.3
35.2927
33.4698
31.8129
30.3008
28.9197
27.6515
26.4838
25.4051
24.4089
23.4848
22.6289
21.8304
21.0887
20.3923
19.7435
19.1309
18.5585
18.0149
17.5076
17.0208
16.5679
16.1296
15.7208
15.325
14.954
14.5945
14.2554
13.9278
13.6183
13.3185
13.0394
12.7666
12.5125
12.2711
12.0452
11.8273
11.6239
11.4263
11.2581
11.0829
10.9296
10.7589
10.6163
10.4724
10.3337
10.2198
10.0853
10.0043
9.94662
9.84891
9.86015
9.86005
9.89788
10.0672
10.2428
10.6603
10.9535
11.5754
11.9826
12.819
13.3526
14.4059
15.0713
16.4191
17.2384
18.93
19.9251
21.9729
23.1599
25.5622
26.9479
29.7148
31.2944
34.4498
36.2224
39.7655
41.7328
45.6602
47.8234
52.1243
54.4953
59.0831
61.643
66.4186
69.6862
75.2396
54.5096
51.2528
48.0644
45.0681
42.2897
39.7314
37.3894
35.2483
33.2953
31.5119
29.8849
28.3968
27.0367
25.7889
24.6454
23.5927
22.6236
21.73
20.903
20.1371
19.431
18.7764
18.1695
17.6029
17.0735
16.5755
16.1064
15.6619
15.2405
14.8381
14.4551
14.0876
13.7361
13.3982
13.0739
12.7613
12.461
12.1706
11.8913
11.6206
11.3602
11.1069
10.8642
10.6281
10.4019
10.183
9.97679
9.77737
9.59185
9.41102
9.24535
9.08354
8.93716
8.79137
8.65491
8.51994
8.39059
8.2626
8.13666
8.01459
7.89646
7.7867
7.66372
7.55168
7.41535
7.28836
7.12975
7.0024
6.85231
6.74367
6.61861
6.53546
6.44192
6.37654
6.32529
6.26518
6.2449
6.26947
6.26389
6.26966
6.30486
6.33766
6.37485
6.46854
6.53898
6.678
6.78061
6.97898
7.10759
7.36348
7.5155
7.83043
8.02998
8.40973
8.62691
9.03129
9.44618
9.85788
10.4945
11.4331
36.5094
34.8427
33.2228
31.6587
30.1679
28.7563
27.4302
26.1861
25.025
23.9401
22.9304
21.9877
21.1103
20.2901
19.5254
18.8088
18.1395
17.5102
16.921
16.3659
15.8452
15.3532
14.8908
14.453
14.041
13.6503
13.2821
12.9322
12.6018
12.2872
11.9892
11.7046
11.4344
11.1754
10.9288
10.6918
10.4658
10.248
10.0401
9.83934
9.64734
9.46146
9.28338
9.11038
8.94443
8.7826
8.62729
8.47526
8.32953
8.18642
8.04961
7.91482
7.78646
7.65966
7.5394
7.42034
7.30768
7.19607
7.09035
6.9857
6.88618
6.78789
6.69379
6.60123
6.51196
6.42446
6.33945
6.25652
6.17553
6.09695
6.01989
5.9457
5.87248
5.80274
5.73321
5.66802
5.60185
5.54124
5.47869
5.42201
5.36302
5.31022
5.25417
5.20592
5.1543
5.11121
5.06362
5.02607
4.98181
4.94985
4.90864
4.88201
4.84465
4.82301
4.79075
4.77318
4.74694
4.73351
4.71762
4.7177
26.3183
25.3869
24.4533
23.5227
22.6109
21.7265
20.8788
20.0692
19.3026
18.5768
17.8945
17.2516
16.6499
16.0839
15.5551
15.0573
14.5919
14.1526
13.7408
13.3502
12.9827
12.6321
12.3011
11.9837
11.6833
11.3941
11.1201
10.8558
10.6056
10.3638
10.1353
9.91403
9.70524
9.50263
9.31157
9.12558
8.95026
8.77875
8.61717
8.45809
8.30835
8.15998
8.02053
7.88149
7.75113
7.62041
7.49822
7.37496
7.26023
7.14382
7.03599
6.92587
6.82443
6.72009
6.62454
6.52545
6.43527
6.34092
6.25568
6.16563
6.08495
5.9989
5.92248
5.84019
5.76781
5.6891
5.62061
5.54535
5.48063
5.40875
5.34779
5.27919
5.22202
5.1565
5.10313
5.04044
4.99075
4.93061
4.88446
4.82659
4.78373
4.72771
4.68783
4.63348
4.59636
4.54353
4.50904
4.45751
4.42552
4.37496
4.34517
4.2953
4.26718
4.2179
4.19081
4.14196
4.11471
4.06719
4.03309
3.97758
20.3644
19.8004
19.2255
18.6418
18.0617
17.4908
16.9372
16.4015
15.8886
15.3964
14.9285
14.4814
14.0578
13.6536
13.2712
12.9063
12.5614
12.2319
11.9206
11.6226
11.3413
11.0715
10.8167
10.5717
10.3402
10.1167
9.90548
9.7006
9.50669
9.31771
9.13863
8.96323
8.79688
8.63316
8.47789
8.32436
8.17887
8.03438
7.89771
7.76138
7.63274
7.50387
7.38268
7.26074
7.14651
7.03103
6.92334
6.81387
6.71231
6.60849
6.51265
6.414
6.32357
6.22971
6.14424
6.05477
5.97391
5.88847
5.81191
5.73021
5.65769
5.57947
5.5108
5.43585
5.37083
5.29897
5.23745
5.16851
5.11032
5.04413
4.98914
4.92552
4.87355
4.8123
4.76319
4.70413
4.65767
4.60065
4.55661
4.5015
4.45967
4.40631
4.36648
4.31474
4.27674
4.22643
4.19014
4.14112
4.10633
4.05857
4.02496
3.97854
3.94585
3.90058
3.86917
3.82418
3.79417
3.74931
3.7292
3.65679
16.8074
16.435
16.0502
15.653
15.2526
14.8526
14.4598
14.0745
13.7013
13.339
12.9912
12.6555
12.3349
12.0263
11.7323
11.4494
11.1801
10.9206
10.6737
10.4351
10.208
9.98808
9.77879
9.57548
9.38213
9.19381
9.01485
8.84012
8.67422
8.51173
8.35762
8.20615
8.06264
7.92105
7.78708
7.65432
7.52895
7.40409
7.28645
7.16868
7.05796
6.94651
6.84205
6.73627
6.63747
6.53678
6.44306
6.34693
6.25781
6.16576
6.08085
5.99253
5.9115
5.82661
5.74923
5.66758
5.5937
5.51516
5.44473
5.36925
5.30225
5.22978
5.16619
5.0967
5.03648
4.96988
4.91295
4.84911
4.79536
4.73412
4.68338
4.62452
4.57662
4.51994
4.47469
4.41995
4.37719
4.32417
4.28376
4.23223
4.19403
4.14381
4.1077
4.05864
4.02447
3.97644
3.94408
3.89695
3.86632
3.81987
3.79098
3.745
3.71782
3.67216
3.64619
3.60231
3.57662
3.53555
3.50528
3.45683
14.6489
14.3757
14.0919
13.796
13.4953
13.192
12.8919
12.5948
12.3048
12.0205
11.7456
11.4777
11.2202
10.9699
10.7301
10.4973
10.2747
10.0587
9.85236
9.65183
9.46055
9.27426
9.09665
8.92325
8.75801
8.59619
8.44201
8.29056
8.14634
8.00417
7.86888
7.73503
7.6078
7.48142
7.36151
7.24191
7.12864
7.01521
6.90806
6.80028
6.69873
6.59615
6.49983
6.40202
6.31059
6.21724
6.13035
6.04113
5.95853
5.87318
5.79459
5.71281
5.63797
5.55954
5.48823
5.41291
5.34496
5.27256
5.20779
5.13811
5.07636
5.00924
4.95039
4.88571
4.82964
4.76724
4.71384
4.6536
4.60276
4.54456
4.4962
4.4399
4.39392
4.33941
4.2957
4.24285
4.20132
4.14998
4.11054
4.0606
4.02313
3.97448
3.93889
3.89141
3.85761
3.81117
3.77905
3.73355
3.70306
3.6584
3.62943
3.58553
3.55793
3.51466
3.48849
3.44639
3.42162
3.38122
3.35287
3.30584
13.2931
13.0726
12.8436
12.6038
12.3595
12.1116
11.8653
11.6196
11.3788
11.141
10.9099
10.6832
10.4642
10.2499
10.0438
9.8424
9.64911
9.46029
9.27937
9.10246
8.93316
8.76737
8.60888
8.45335
8.30482
8.15871
8.01931
7.88179
7.75074
7.62105
7.49761
7.37505
7.25853
7.14244
7.03226
6.92204
6.81765
6.71281
6.61374
6.5138
6.41962
6.32416
6.2345
6.14316
6.05768
5.97015
5.88857
5.80458
5.72669
5.64601
5.57161
5.49404
5.42297
5.34836
5.28051
5.20873
5.14399
5.07492
5.01317
4.94669
4.88784
4.82381
4.76774
4.70604
4.65262
4.59311
4.54224
4.48477
4.43634
4.38079
4.33468
4.28092
4.23706
4.18496
4.14322
4.09267
4.05297
4.00384
3.96609
3.91828
3.88238
3.83579
3.80165
3.75618
3.72371
3.67925
3.64837
3.60482
3.57547
3.53272
3.50484
3.4628
3.43625
3.39477
3.36965
3.32926
3.30551
3.26668
3.23959
3.19436
12.3961
12.205
12.0071
11.7999
11.5887
11.3738
11.1599
10.9457
10.7351
10.5263
10.3227
10.1221
9.92768
9.73672
9.55245
9.3717
9.19778
9.02721
8.86342
8.70267
8.54854
8.39705
8.25199
8.10914
7.97251
7.83764
7.70879
7.58128
7.45961
7.33885
7.2238
7.10924
7.00028
6.89141
6.78807
6.68442
6.58627
6.48745
6.39411
6.29974
6.21089
6.12065
6.03596
5.94952
5.86875
5.78586
5.70877
5.62922
5.55561
5.47917
5.40882
5.33526
5.26801
5.19719
5.13287
5.06462
5.00312
4.93728
4.87846
4.81491
4.75866
4.69725
4.64345
4.58409
4.53266
4.47521
4.42607
4.37046
4.32353
4.26964
4.22484
4.17258
4.12984
4.07911
4.03836
3.98908
3.95023
3.90231
3.8653
3.81863
3.78338
3.73788
3.70431
3.65988
3.62793
3.58447
3.55407
3.51149
3.48257
3.44079
3.4133
3.37222
3.34617
3.3056
3.28086
3.24087
3.21803
3.17767
3.16014
3.1006
11.7737
11.5998
11.4205
11.2332
11.0426
10.8487
10.6555
10.4617
10.2709
10.0812
9.89601
9.71295
9.53525
9.36017
9.19092
9.02443
8.86395
8.70614
8.55434
8.40498
8.26156
8.12026
7.98477
7.85105
7.723
7.59634
7.4752
7.35507
7.24033
7.12624
7.01743
6.90889
6.80556
6.70213
6.60386
6.50513
6.41156
6.31718
6.22796
6.13761
6.05247
5.96585
5.88453
5.80138
5.72365
5.64376
5.56944
5.49262
5.42156
5.34763
5.27964
5.20847
5.14341
5.07484
5.01259
4.94647
4.88692
4.82312
4.76616
4.70455
4.65006
4.59051
4.53838
4.48078
4.43091
4.37515
4.32748
4.27346
4.2279
4.17553
4.13201
4.08119
4.03965
3.9903
3.95068
3.9027
3.86492
3.81823
3.78223
3.73673
3.70246
3.65807
3.62545
3.58206
3.55103
3.50858
3.47906
3.43745
3.40938
3.36853
3.34189
3.30168
3.27647
3.23675
3.21281
3.17369
3.15153
3.11211
3.09501
3.03713
11.3256
11.1628
10.9953
10.821
10.644
10.4639
10.2846
10.1046
9.92722
9.75064
9.57805
9.40715
9.24106
9.07712
8.91844
8.76204
8.61111
8.46239
8.31918
8.178
8.04229
7.90833
7.77976
7.65264
7.5308
7.41008
7.29454
7.17979
7.07011
6.96091
6.8567
6.75263
6.65351
6.5542
6.4598
6.3649
6.27491
6.1841
6.09822
6.01121
5.9292
5.84572
5.76735
5.68716
5.6122
5.53509
5.46336
5.38914
5.32046
5.24896
5.18318
5.11424
5.05122
4.98471
4.92433
4.86009
4.80223
4.74016
4.68472
4.62469
4.57157
4.51348
4.46261
4.40635
4.35764
4.30312
4.25649
4.20364
4.15903
4.10775
4.06509
4.01529
3.97454
3.92613
3.88722
3.84011
3.803
3.75709
3.72173
3.67691
3.64327
3.59945
3.56748
3.52455
3.49421
3.45211
3.42331
3.38195
3.3547
3.31392
3.28826
3.24792
3.22386
3.18379
3.16101
3.12231
3.10011
3.06349
3.03816
2.9965
10.9926
10.8365
10.6767
10.511
10.3432
10.1727
10.003
9.83267
9.66482
9.4976
9.33408
9.172
9.01436
8.85858
8.70767
8.55874
8.4149
8.27297
8.13622
8.00121
7.87136
7.743
7.61974
7.49771
7.38069
7.2646
7.15343
7.04288
6.93718
6.8318
6.73121
6.63063
6.53479
6.43865
6.34724
6.25523
6.16796
6.07979
5.99639
5.91181
5.83204
5.7508
5.67446
5.59635
5.52324
5.44807
5.37804
5.30564
5.23853
5.16873
5.10441
5.03705
4.97541
4.91037
4.85129
4.78844
4.7318
4.67103
4.61675
4.55794
4.5059
4.44897
4.39911
4.34394
4.29618
4.2427
4.19696
4.14509
4.10132
4.05096
4.00909
3.96019
3.92014
3.87262
3.83434
3.78815
3.75152
3.70662
3.67156
3.62791
3.59431
3.55188
3.51966
3.47838
3.44749
3.40724
3.37766
3.33837
3.31001
3.27169
3.24437
3.20709
3.18067
3.14428
3.11908
3.0829
3.05914
3.02307
3.00689
2.95091
10.7395
10.588
10.4333
10.2735
10.1122
9.94851
9.78577
9.62237
9.46145
9.30104
9.14419
8.98858
8.83724
8.68751
8.54245
8.39913
8.26068
8.12391
7.9921
7.86181
7.73646
7.61242
7.49327
7.37517
7.26189
7.14938
7.04163
6.93436
6.83178
6.72938
6.63165
6.5338
6.4406
6.34698
6.258
6.16831
6.08331
5.99728
5.916
5.83339
5.75561
5.67621
5.60173
5.52532
5.45396
5.38038
5.31198
5.24107
5.17548
5.10708
5.04417
4.97814
4.91779
4.85399
4.79609
4.7344
4.67886
4.61917
4.56589
4.50809
4.45699
4.40101
4.35201
4.29775
4.25077
4.19814
4.15313
4.10204
4.05893
4.0093
3.96804
3.91981
3.88033
3.83341
3.79567
3.74998
3.71392
3.66941
3.63495
3.59154
3.55865
3.51627
3.48488
3.44344
3.41352
3.37295
3.34444
3.30467
3.27753
3.23847
3.21269
3.17424
3.14984
3.11186
3.08874
3.05127
3.02994
2.99214
2.97571
2.92054
10.5429
10.3942
10.2429
10.0872
9.93048
9.77165
9.61401
9.45575
9.30006
9.14479
8.99309
8.84247
8.69605
8.55106
8.41063
8.27174
8.13759
8.00494
7.87709
7.7506
7.62891
7.50836
7.39256
7.27766
7.16745
7.05788
6.95293
6.84835
6.74834
6.6484
6.55302
6.45743
6.36637
6.27481
6.1878
6.1
6.01679
5.9325
5.85285
5.77184
5.69557
5.61762
5.54453
5.46945
5.39937
5.32701
5.2598
5.19001
5.12553
5.05816
4.99626
4.93119
4.87178
4.80886
4.75183
4.69097
4.63622
4.57732
4.52477
4.46773
4.4173
4.36201
4.31364
4.26004
4.21365
4.16164
4.11717
4.06667
4.02408
3.97502
3.93423
3.88653
3.84751
3.80108
3.76377
3.71856
3.68291
3.63883
3.60479
3.56177
3.5293
3.48726
3.45631
3.41517
3.38569
3.34538
3.31732
3.27778
3.25109
3.21225
3.1869
3.14867
3.12468
3.08692
3.06417
3.02698
3.00593
2.96848
2.9522
2.8977
10.3903
10.2434
10.0944
9.9416
9.78829
9.63316
9.47939
9.32514
9.1735
9.02231
8.87464
8.728
8.58547
8.44427
8.30751
8.17217
8.04145
7.9121
7.78742
7.66395
7.54517
7.42738
7.31425
7.20186
7.09407
6.98678
6.88403
6.78152
6.6835
6.58545
6.49186
6.39798
6.30855
6.21855
6.13301
6.04664
5.96477
5.88178
5.80335
5.72354
5.64836
5.57153
5.49944
5.42541
5.35626
5.28487
5.21851
5.14962
5.08592
5.01939
4.95825
4.89395
4.83525
4.77308
4.71672
4.65658
4.60248
4.54425
4.49232
4.43592
4.38608
4.3314
4.28359
4.23056
4.1847
4.13323
4.08926
4.03928
3.99715
3.94856
3.90821
3.86095
3.82233
3.77631
3.73938
3.69453
3.65925
3.61548
3.58181
3.53902
3.50695
3.46504
3.43452
3.39342
3.36442
3.32407
3.29653
3.25685
3.23077
3.19161
3.16705
3.12829
3.10525
3.06675
3.04496
3.00775
2.98653
2.95125
2.92717
2.88727
10.2777
10.1315
9.9838
9.83283
9.68175
9.52918
9.37812
9.22676
9.07802
8.92982
8.78507
8.64137
8.50167
8.36327
8.22918
8.09645
7.96821
7.84125
7.71884
7.59755
7.48082
7.36499
7.25371
7.14308
7.03695
6.93123
6.82996
6.72884
6.63215
6.53534
6.44295
6.35018
6.26181
6.17282
6.08823
6.00277
5.92175
5.83961
5.76195
5.68292
5.60846
5.53237
5.46093
5.38761
5.31906
5.24836
5.18255
5.11432
5.05115
4.98526
4.92462
4.86094
4.80272
4.74114
4.68525
4.62566
4.57201
4.5143
4.46281
4.4069
4.35749
4.30328
4.25586
4.20327
4.15779
4.10674
4.06313
4.01354
3.97173
3.92353
3.88348
3.83659
3.79823
3.7526
3.71587
3.67144
3.63627
3.59301
3.55929
3.51717
3.48483
3.44382
3.41277
3.37281
3.34303
3.30402
3.2755
3.23737
3.21001
3.17279
3.14644
3.1102
3.08473
3.04933
3.02505
2.98984
2.96697
2.93188
2.91618
2.86241
10.1959
10.0499
9.90274
9.75276
9.60295
9.45196
9.30254
9.15298
9.00603
8.85968
8.71669
8.57477
8.43669
8.29991
8.16729
8.036
7.90905
7.78333
7.66206
7.54184
7.42607
7.31114
7.20064
7.09075
6.98527
6.88015
6.77943
6.67882
6.58259
6.48622
6.39424
6.30186
6.21389
6.12527
6.04109
5.956
5.8754
5.79363
5.71644
5.63782
5.56385
5.48818
5.41725
5.34436
5.27634
5.20611
5.14088
5.07317
5.01061
4.94528
4.88529
4.82223
4.76468
4.70376
4.64856
4.58965
4.53669
4.47969
4.42889
4.37368
4.32493
4.27142
4.22464
4.17273
4.12786
4.07746
4.03442
3.98544
3.94418
3.89655
3.85701
3.81064
3.77278
3.7276
3.69136
3.64729
3.61262
3.56961
3.53647
3.49443
3.46278
3.42165
3.39144
3.35115
3.32234
3.28283
3.25539
3.21659
3.19049
3.15233
3.12754
3.08998
3.06642
3.02937
3.00713
2.97097
2.95001
2.91517
2.89167
2.85205
10.1292
9.98307
9.83598
9.68645
9.53719
9.38686
9.23798
9.08897
8.94231
8.79627
8.65328
8.51143
8.37313
8.23629
8.10332
7.97194
7.84465
7.71892
7.59738
7.47676
7.36047
7.2451
7.13417
7.02404
6.91839
6.81334
6.71279
6.61258
6.51685
6.42121
6.33001
6.23862
6.15167
6.06423
5.98124
5.89747
5.81819
5.73784
5.66202
5.58485
5.51229
5.4381
5.36863
5.29724
5.23067
5.16189
5.09805
5.0317
4.97044
4.90637
4.84755
4.78564
4.72914
4.66925
4.61498
4.55699
4.50486
4.44867
4.39859
4.34411
4.296
4.24314
4.19693
4.1456
4.10123
4.05137
4.00878
3.9603
3.91945
3.87228
3.83312
3.78719
3.74967
3.7049
3.66899
3.62532
3.59097
3.54834
3.5155
3.47383
3.44247
3.4017
3.37176
3.33184
3.30329
3.26413
3.23694
3.19849
3.17263
3.13481
3.11026
3.07303
3.0497
3.01298
2.99095
2.95513
2.93435
2.89983
2.87652
2.83731
10.0784
9.93051
9.78063
9.6273
9.47365
9.3183
9.16441
9.01024
8.85903
8.70862
8.56227
8.41737
8.27723
8.13881
8.00549
7.87391
7.74752
7.62271
7.50306
7.38524
7.2724
7.16091
7.05413
6.94827
6.84692
6.74612
6.64968
6.55344
6.46147
6.36939
6.28154
6.19329
6.10925
6.02453
5.94406
5.86262
5.78549
5.70712
5.63314
5.55766
5.48666
5.41388
5.3457
5.27549
5.21
5.1422
5.07927
5.01377
4.95329
4.88995
4.83182
4.77054
4.71464
4.65531
4.60157
4.54409
4.49242
4.43668
4.387
4.33292
4.28516
4.23264
4.18674
4.13572
4.09161
4.04201
3.99965
3.95139
3.91073
3.86375
3.82475
3.77899
3.7416
3.69699
3.66119
3.61765
3.58339
3.54087
3.50811
3.46654
3.43525
3.39457
3.3647
3.32485
3.29635
3.25727
3.23011
3.19173
3.1659
3.12816
3.10363
3.06646
3.04315
3.00648
2.98448
2.94871
2.92795
2.89351
2.87021
2.83118
9.91522
9.75959
9.60626
9.45337
9.3033
9.15415
9.00834
8.86378
8.72295
8.58357
8.44819
8.31432
8.1846
8.05633
7.93227
7.80952
7.69098
7.57355
7.4603
7.34794
7.23973
7.13219
7.02876
6.92575
6.82684
6.72811
6.63345
6.53873
6.44809
6.35715
6.27029
6.18291
6.09963
6.01559
5.93571
5.8548
5.77815
5.70021
5.62661
5.55147
5.48078
5.40829
5.34038
5.27039
5.20513
5.13752
5.07478
5.00943
4.94912
4.88592
4.82792
4.76675
4.71098
4.65175
4.59811
4.54072
4.48914
4.43348
4.38388
4.32987
4.28218
4.22973
4.18389
4.13293
4.08887
4.03932
3.99701
3.9488
3.90819
3.86125
3.82229
3.77656
3.73922
3.69464
3.65888
3.61536
3.58114
3.53864
3.50592
3.46437
3.43311
3.39244
3.36261
3.32276
3.29431
3.25521
3.22812
3.18971
3.16394
3.12618
3.1017
3.06454
3.04125
3.00461
2.98263
2.9469
2.92625
2.89186
2.86877
2.82955
17.5911
18.7926
19.5828
21.1856
23.231
25.2828
30.0263
35.3753
46.76
90.7167
15.8285
16.1115
17.1486
17.7464
19.4641
21.0371
23.3705
27.4402
31.6999
57.1657
14.5706
14.8486
15.1865
15.8857
16.4375
17.9978
19.0605
22.102
24.2291
37.8378
13.8076
14.0464
14.1649
14.6313
14.9003
15.8297
16.4331
18.344
19.6015
27.0134
13.198
13.3475
13.4194
13.7168
13.877
14.4358
14.7833
15.9089
16.6532
20.7287
12.7545
12.8296
12.8636
13.0433
13.1373
13.4821
13.6859
14.3496
14.7804
17.0311
12.4078
12.4271
12.4358
12.5333
12.5834
12.7914
12.9101
13.3072
13.5553
14.8128
12.1321
12.1091
12.103
12.1408
12.1616
12.275
12.3402
12.5734
12.7153
13.4327
11.9106
11.8751
11.8362
11.8335
11.8317
11.8801
11.9081
12.034
12.1102
12.5278
11.7398
11.6862
11.63
11.6016
11.5717
11.5749
11.577
11.629
11.6621
11.9047
11.6003
11.536
11.4627
11.4182
11.3659
11.3417
11.315
11.3188
11.3226
11.4533
11.4926
11.4119
11.333
11.2679
11.2058
11.1563
11.1109
11.0815
11.0558
11.1159
11.4046
11.3168
11.2259
11.1538
11.0728
11.0166
10.9435
10.9056
10.8358
10.8602
11.3324
11.2448
11.1391
11.0662
10.9671
10.9074
10.8135
10.7664
10.6626
10.6623
11.2751
11.1897
11.0707
10.9983
10.8846
10.8222
10.7125
10.6581
10.5464
10.5094
11.2317
11.1486
11.0197
10.9467
10.8235
10.7565
10.6381
10.5741
10.4612
10.3971
11.2022
11.1123
10.9851
10.9022
10.7824
10.702
10.5877
10.5072
10.3977
10.3162
11.18
11.0787
10.9574
10.8623
10.7478
10.6551
10.5446
10.452
10.3437
10.2505
11.1685
11.0605
10.9404
10.8382
10.7241
10.6244
10.5131
10.4136
10.3032
10.203
11.1025
10.979
10.8524
10.7359
10.6146
10.5025
10.3839
10.2741
10.1566
10.0478
17.6495
19.6105
22.6647
27.6113
37.0293
56.3521
106.135
286.636
1663.52
1471.22
17.769
19.5868
23.1038
28.0232
37.1083
57.1274
113.194
296.996
1784.2
1480.88
17.7713
19.5177
23.0894
28.8718
39.4309
61.0358
118.28
318.131
1885.28
1488.14
17.9142
19.6564
23.2771
28.8352
39.3727
61.9183
128.132
332.936
2021.86
1499.07
17.8896
19.5935
23.4971
30.0956
42.4437
67.7161
136.171
363.84
2132.89
1494.37
18.2485
20.1172
23.6095
30.0482
42.6079
68.448
149.689
389.718
2277.92
1493.07
18.3084
20.1991
24.49
32.0751
47.0064
77.4646
163.09
432.455
2380.55
1481.03
18.9051
21.0552
24.8324
32.3597
47.76
78.6215
182.132
481.215
2514.23
1474.1
19.1353
21.3282
26.3951
35.8678
54.7964
92.9476
205.754
577.552
2515.15
1468.28
20.1326
22.6778
27.4006
36.7689
56.6862
98.4607
236.758
729.074
2475.88
1461.2
18.4943
20.9037
24.4423
23.6862
41.1506
41.3303
138.212
272.623
1418.04
1550.29
18.4067
20.418
23.8575
26.0248
34.8044
38.6119
100.331
250.37
1238.32
1508.1
18.4468
20.196
23.5655
26.6575
34.2302
42.5401
109.023
246.791
1212.36
1458.16
18.4074
20.1008
23.5162
26.1801
33.6047
43.2791
98.6633
237.528
1221.28
1443.81
18.3398
19.9578
23.2976
26.6252
32.6435
45.2957
92.3888
238.593
1257.43
1431.07
18.2115
19.8248
23.0233
26.5512
32.9949
46.7005
91.3347
245.061
1282.19
1431.36
18.085
19.7097
22.8157
26.5243
33.9509
49.1822
92.12
248.415
1344.95
1437.76
17.9154
19.6032
22.644
26.9669
34.663
50.9635
95.5987
258.137
1405.01
1443.41
17.7362
19.5136
22.3882
26.9798
35.5001
52.9613
97.6478
264.424
1482.44
1452.23
17.6514
19.4535
22.5898
27.2177
35.6049
53.7967
102.663
272.995
1575.75
1461.48
4607.92
3458.74
2681.47
2133.91
1735
1436.19
1206.98
1027.6
884.74
769.236
674.585
596.116
530.363
474.757
427.321
386.554
351.262
320.527
293.59
269.869
248.863
230.188
213.502
198.548
185.082
172.929
161.909
151.903
142.776
134.443
126.8
119.789
113.328
107.376
101.866
96.7705
92.0351
87.6408
83.5419
79.7267
76.1555
72.8226
69.6928
66.7648
64.0067
61.421
58.9781
56.6836
54.51
52.4648
50.5225
48.6916
46.9491
45.3038
43.7347
42.2507
40.8328
39.4896
38.2042
36.9846
35.8156
34.705
33.6387
32.6244
31.6492
30.7203
29.8262
28.9734
28.1516
27.3668
26.6097
25.886
25.1871
24.5183
23.8721
23.2529
22.6544
22.0804
21.5254
20.9928
20.4779
19.9836
19.5062
19.048
18.6063
18.1829
17.7768
17.3887
17.0198
16.6702
16.3435
16.0414
15.7766
15.5478
15.3773
15.2698
15.3086
15.5576
16.1593
17.5793
4607.39
3457.79
2680.4
2132.83
1733.99
1435.24
1206.11
1026.81
884.016