/*--------------------------------*- C++ -*----------------------------------*\
  =========                 |
  \\      /  F ield         | OpenFOAM: The Open Source CFD Toolbox
   \\    /   O peration     | Website:  https://openfoam.org
    \\  /    A nd           | Version:  8
     \\/     M anipulation  |
\*---------------------------------------------------------------------------*/
FoamFile
{
    version     2.0;
    format      ascii;
    class       volScalarField;
    location    "0.500023";
    object      nut;
}
// * * * * * * * * * * * * * * * * * * * * * * * * * * * * * * * * * * * * * //

dimensions      [0 2 -1 0 0 0 0];

internalField   nonuniform List<scalar> 
6800
(
0.0328743
0.0583701
0.0599857
0.0623022
0.0659728
0.0602328
0.0505272
0.0377521
0.0305375
0.0308685
0.0242357
0.0517651
0.0587077
0.0620101
0.0631097
0.0515822
0.0378831
0.0323949
0.0294545
0.0258232
0.02608
0.0528548
0.0602453
0.0612243
0.0557738
0.0403809
0.033508
0.029307
0.0237507
0.0213295
0.0271663
0.0543465
0.0593478
0.0586172
0.0445402
0.0361368
0.0298177
0.0251355
0.0217283
0.0204065
0.0281466
0.0542172
0.059383
0.0553272
0.042101
0.0322773
0.0272783
0.0238065
0.0208418
0.0179993
0.0287793
0.0567843
0.0592562
0.0480751
0.0340369
0.0293771
0.0251519
0.0212482
0.0185474
0.0169954
0.029419
0.0599915
0.0585851
0.0437311
0.0361609
0.0280575
0.0234852
0.0204125
0.0178889
0.0165544
0.0297254
0.0620386
0.0554582
0.0381187
0.0292254
0.0262187
0.0221541
0.0187012
0.0167275
0.0156041
0.0301226
0.0649346
0.0502808
0.0392297
0.0331645
0.0250876
0.0206027
0.0182605
0.0163587
0.0153532
0.0302298
0.0667855
0.0475546
0.0353216
0.0263009
0.023707
0.0200716
0.0171405
0.0156339
0.0147225
0.251329
0.542604
0.653308
0.679318
0.684999
0.689177
0.698595
0.7113
0.719984
0.72335
0.243792
0.523064
0.630236
0.659074
0.657242
0.655655
0.658495
0.662281
0.659334
0.655123
0.230265
0.487317
0.590946
0.616913
0.610655
0.604485
0.598935
0.590058
0.586401
0.577741
0.21547
0.44637
0.546491
0.559747
0.550744
0.532717
0.516691
0.50106
0.474871
0.421461
0.203773
0.417316
0.489683
0.49028
0.466469
0.442213
0.413921
0.359204
0.317127
0.229897
0.197231
0.376654
0.422634
0.397525
0.372926
0.329991
0.252908
0.183095
0.137536
0.0995208
0.199178
0.331137
0.332382
0.303597
0.23442
0.152224
0.113329
0.0871367
0.0806771
0.0645567
0.199876
0.259316
0.232381
0.155097
0.105768
0.0841037
0.0741774
0.065222
0.06411
0.0542978
0.179543
0.165055
0.107845
0.0790618
0.0703811
0.0682274
0.0636066
0.0601581
0.0581539
0.044596
0.116017
0.0818544
0.0686586
0.0653425
0.0666276
0.0657334
0.0603954
0.0545456
0.0412653
0.0323713
0.724947
0.716791
0.704348
0.690773
0.677867
0.666422
0.656906
0.648891
0.64202
0.636081
0.630895
0.626367
0.622443
0.619042
0.616107
0.613582
0.611395
0.60948
0.607783
0.606264
0.604879
0.60361
0.602417
0.601294
0.600192
0.59907
0.597905
0.596664
0.595323
0.593875
0.59233
0.590699
0.589003
0.587258
0.585484
0.583692
0.581898
0.580108
0.578336
0.57659
0.574887
0.573239
0.571674
0.570201
0.568846
0.567615
0.566522
0.565568
0.564764
0.564109
0.563611
0.563273
0.5631
0.563096
0.563259
0.563588
0.564077
0.564721
0.565509
0.566431
0.567471
0.568622
0.569863
0.571175
0.572542
0.573957
0.575395
0.576874
0.57839
0.579977
0.58165
0.583435
0.585309
0.587266
0.589258
0.591258
0.593224
0.595136
0.596958
0.598678
0.600269
0.601718
0.602998
0.604107
0.605019
0.605754
0.606275
0.606639
0.60677
0.606798
0.606551
0.606301
0.605682
0.605244
0.60423
0.603744
0.602251
0.601943
0.599783
0.600056
0.655622
0.651826
0.643325
0.633826
0.624846
0.616672
0.609873
0.604025
0.598995
0.594719
0.591089
0.58803
0.585471
0.58336
0.581652
0.580282
0.579163
0.578238
0.577462
0.576806
0.576243
0.57576
0.57533
0.574962
0.574528
0.57402
0.573434
0.572713
0.571843
0.570852
0.56976
0.568585
0.56735
0.566071
0.564766
0.563444
0.562117
0.560788
0.559472
0.558168
0.5569
0.555685
0.554546
0.553487
0.552521
0.551654
0.550896
0.550259
0.549751
0.549377
0.549148
0.549074
0.549164
0.549425
0.549858
0.550462
0.551229
0.55215
0.553216
0.554404
0.555686
0.557058
0.558502
0.559981
0.561483
0.563007
0.564521
0.566064
0.567665
0.569383
0.571241
0.573261
0.575385
0.577596
0.579848
0.582093
0.584296
0.586438
0.588477
0.590389
0.59215
0.593748
0.595158
0.596381
0.597391
0.598215
0.598809
0.599244
0.599431
0.599519
0.599317
0.599125
0.598541
0.598168
0.597179
0.596773
0.595292
0.595075
0.592929
0.593204
0.58044
0.579118
0.571874
0.564339
0.557573
0.551415
0.54539
0.540187
0.53586
0.532355
0.529579
0.527438
0.525853
0.524748
0.524073
0.523719
0.523564
0.523568
0.523717
0.523989
0.524363
0.524821
0.525341
0.525909
0.526548
0.527174
0.527702
0.528178
0.528583
0.52886
0.529015
0.529059
0.529016
0.5289
0.528725
0.528501
0.52823
0.52792
0.527587
0.52722
0.526886
0.526601
0.52638
0.526219
0.526122
0.526082
0.52609
0.526138
0.526243
0.526422
0.526708
0.527123
0.527689
0.528418
0.529323
0.530394
0.531627
0.532986
0.534475
0.536048
0.537698
0.539398
0.541103
0.542759
0.544404
0.546008
0.547531
0.549014
0.550476
0.552095
0.554035
0.556324
0.558781
0.561366
0.563955
0.566479
0.56896
0.571351
0.573628
0.575802
0.577842
0.579707
0.581355
0.582785
0.583965
0.584934
0.585644
0.586187
0.586462
0.586646
0.586515
0.586425
0.585909
0.585663
0.584733
0.584492
0.583048
0.583058
0.580915
0.581561
0.416364
0.415686
0.414071
0.412798
0.412465
0.413104
0.41446
0.416481
0.418833
0.421494
0.424393
0.427542
0.430894
0.434404
0.438139
0.441825
0.445151
0.448296
0.451356
0.454454
0.45742
0.460442
0.463334
0.466228
0.469029
0.471608
0.473956
0.475937
0.477643
0.479084
0.480324
0.481407
0.48238
0.483281
0.484117
0.484911
0.485647
0.486344
0.487007
0.487655
0.488274
0.488827
0.489409
0.489996
0.490576
0.49116
0.4917
0.492222
0.49272
0.493234
0.493839
0.494582
0.495497
0.496581
0.497896
0.499386
0.501107
0.502935
0.504961
0.506995
0.509022
0.511091
0.513228
0.515206
0.517139
0.518992
0.52069
0.522213
0.52333
0.524559
0.526875
0.530284
0.533761
0.537235
0.540663
0.543817
0.54689
0.549954
0.552918
0.555717
0.558312
0.560661
0.56272
0.564501
0.565974
0.567203
0.568132
0.568883
0.569337
0.569716
0.569743
0.569856
0.569483
0.569453
0.568646
0.56865
0.567293
0.567588
0.565481
0.566381
0.220931
0.217502
0.217214
0.218982
0.22304
0.2284
0.234861
0.242304
0.249649
0.257391
0.265425
0.27379
0.282374
0.290786
0.299282
0.306941
0.313146
0.319478
0.325957
0.333267
0.339401
0.346463
0.352617
0.359037
0.365195
0.37079
0.375927
0.38048
0.384635
0.388339
0.391804
0.395066
0.39814
0.401126
0.403953
0.406725
0.409374
0.411959
0.414492
0.416964
0.41949
0.421995
0.424707
0.42746
0.430254
0.432829
0.435035
0.437113
0.438843
0.440447
0.442115
0.44389
0.445883
0.448071
0.450531
0.452958
0.455743
0.458313
0.461218
0.464204
0.467214
0.470058
0.472762
0.475394
0.47796
0.480108
0.48203
0.483777
0.483996
0.482342
0.485696
0.492851
0.498181
0.502723
0.506735
0.510575
0.514228
0.517586
0.521174
0.524947
0.528549
0.531726
0.534425
0.536707
0.538566
0.54012
0.54132
0.542331
0.543024
0.543665
0.543932
0.544352
0.544236
0.54456
0.543999
0.544395
0.543244
0.54398
0.542021
0.543475
0.0997059
0.10044
0.101544
0.102837
0.104998
0.107229
0.110552
0.113559
0.117468
0.121529
0.126391
0.131332
0.137448
0.142778
0.149962
0.157243
0.165141
0.172636
0.180798
0.18894
0.197321
0.205613
0.213674
0.22188
0.22979
0.237442
0.24474
0.2515
0.258077
0.263827
0.269643
0.275201
0.280387
0.285683
0.290716
0.295886
0.300917
0.306054
0.311022
0.316195
0.321382
0.326387
0.332299
0.337735
0.343932
0.349025
0.352834
0.357136
0.35996
0.362406
0.364948
0.367246
0.369724
0.372705
0.376022
0.378538
0.382774
0.385164
0.390172
0.393078
0.397952
0.402768
0.405093
0.408844
0.414147
0.416648
0.420397
0.424812
0.428668
0.431489
0.435476
0.437377
0.441501
0.447515
0.450028
0.454508
0.460673
0.462968
0.467666
0.474444
0.480777
0.485464
0.48933
0.492579
0.495237
0.497511
0.499368
0.500996
0.502325
0.503592
0.504454
0.505577
0.506115
0.507164
0.507204
0.508299
0.507629
0.509133
0.507498
0.509842
0.0645128
0.064408
0.0644281
0.0645786
0.0648752
0.0652058
0.0656523
0.0661634
0.066795
0.0675978
0.0684837
0.0695345
0.0708986
0.0722358
0.0737002
0.0745236
0.0760078
0.0776164
0.0808784
0.0839576
0.0872191
0.0903629
0.0934478
0.0971636
0.100814
0.10498
0.10889
0.113549
0.117501
0.122607
0.126722
0.132704
0.137612
0.144713
0.150595
0.157407
0.164444
0.171651
0.17837
0.187126
0.194629
0.201461
0.212262
0.218444
0.227466
0.236034
0.241075
0.253547
0.257706
0.263161
0.264781
0.262612
0.26395
0.268894
0.274339
0.280023
0.285744
0.292385
0.297795
0.30556
0.312012
0.31983
0.327019
0.333766
0.340444
0.346417
0.351294
0.356236
0.362915
0.367747
0.370922
0.37469
0.379138
0.383805
0.388509
0.393237
0.398697
0.401416
0.405015
0.409278
0.413846
0.418626
0.424269
0.428862
0.43244
0.435503
0.438194
0.440616
0.442832
0.445067
0.446986
0.449287
0.450862
0.452782
0.453671
0.455433
0.455519
0.457529
0.456538
0.459929
0.0541226
0.0538192
0.0534298
0.0530681
0.0526108
0.0521414
0.0516356
0.051063
0.0504868
0.0497275
0.0489491
0.048152
0.0473486
0.0462834
0.0454903
0.0446884
0.0439544
0.0433608
0.0430299
0.0428983
0.0428799
0.0430285
0.043145
0.0435256
0.0437496
0.0441639
0.0449345
0.0459538
0.0466867
0.0479048
0.0486055
0.0501176
0.0511461
0.0530338
0.0545602
0.0567581
0.0589371
0.0619472
0.0645293
0.0689066
0.0729827
0.076779
0.0836796
0.0877912
0.0935574
0.099926
0.106189
0.112749
0.118731
0.126427
0.137749
0.138546
0.14268
0.141932
0.146896
0.153481
0.160998
0.169462
0.178133
0.187091
0.196014
0.205063
0.214007
0.222682
0.231071
0.238894
0.246448
0.253732
0.260633
0.267109
0.273115
0.278977
0.284696
0.290318
0.295982
0.301463
0.307019
0.312499
0.317801
0.323127
0.328155
0.332926
0.337673
0.342243
0.346468
0.350419
0.354194
0.357616
0.361627
0.364878
0.369444
0.373502
0.375913
0.37828
0.380106
0.382008
0.38386
0.385237
0.386775
0.391112
0.0435093
0.0423757
0.0412846
0.0400831
0.038859
0.0376625
0.0364572
0.0353747
0.0343169
0.0333189
0.0325331
0.0316003
0.0307948
0.0301067
0.0295133
0.0289983
0.028556
0.0281715
0.0278361
0.0275336
0.0272811
0.0270412
0.0268691
0.0266774
0.0265743
0.0264247
0.0263557
0.0262974
0.0262223
0.0262825
0.0261804
0.0263325
0.0263227
0.0263744
0.0268045
0.0270269
0.0269958
0.0274807
0.0274303
0.0280103
0.0285742
0.0291538
0.0303509
0.0311336
0.0320794
0.0337828
0.0348621
0.0371328
0.0380899
0.0412427
0.0417595
0.044705
0.0461362
0.0480278
0.0506499
0.0519171
0.0550302
0.0588993
0.0637716
0.0695009
0.0758186
0.0824036
0.0891577
0.0961797
0.103298
0.110767
0.118423
0.126346
0.134244
0.142141
0.149829
0.157463
0.164877
0.172183
0.179321
0.186334
0.193159
0.199928
0.206462
0.212905
0.218983
0.225007
0.230609
0.236222
0.241305
0.246351
0.250926
0.255544
0.259757
0.264132
0.268206
0.272556
0.275888
0.279829
0.28173
0.284377
0.286874
0.288916
0.290421
0.297904
0.0318104
0.0308252
0.0297566
0.0288568
0.028086
0.0273966
0.0267735
0.0262035
0.0256704
0.0251859
0.0247345
0.0243052
0.0239039
0.0235328
0.0231888
0.0228732
0.0225823
0.0223163
0.0220695
0.021843
0.0216341
0.0214438
0.0212708
0.0211127
0.0209663
0.0208318
0.0207072
0.0205993
0.0204907
0.0204075
0.0203089
0.02025
0.020124
0.0201162
0.0199807
0.0200395
0.0199415
0.0199248
0.0198443
0.0197837
0.0197746
0.0197089
0.0196999
0.0196637
0.0195854
0.0196018
0.01979
0.0197896
0.0197651
0.0200441
0.0203027
0.0206924
0.0199702
0.0206126
0.0206786
0.0204285
0.0204336
0.0197274
0.0210894
0.0224076
0.0241998
0.0238982
0.0226504
0.0236616
0.0270762
0.0310302
0.0342327
0.0374039
0.04044
0.0438371
0.0471968
0.0510447
0.0548129
0.0591016
0.0632606
0.0679593
0.0724553
0.0775396
0.0823442
0.0877559
0.092743
0.0983581
0.103421
0.109114
0.114182
0.120004
0.125058
0.130934
0.135871
0.141765
0.146488
0.152456
0.157099
0.162792
0.166869
0.172285
0.17563
0.180987
0.183578
0.191731
0.0254945
0.0249666
0.0244368
0.0239285
0.0234464
0.0229862
0.0225548
0.0221459
0.0217672
0.0214116
0.0210817
0.0207877
0.0205231
0.0202845
0.0200647
0.0198617
0.0196694
0.0194879
0.0193135
0.0191481
0.0189928
0.018847
0.0187115
0.0185864
0.0184763
0.0183751
0.0182846
0.0181964
0.0181164
0.018035
0.0179603
0.017883
0.0178095
0.0177367
0.0176621
0.0175919
0.0175207
0.017455
0.0173881
0.0173249
0.0172683
0.0172041
0.0171579
0.0170966
0.017053
0.0169895
0.0169614
0.0168816
0.0168578
0.0167769
0.0167667
0.0166998
0.0166711
0.016619
0.0165682
0.0165525
0.0164732
0.0164722
0.0164176
0.0164519
0.016468
0.0164316
0.0164974
0.0166837
0.0167255
0.0169718
0.0171808
0.0175481
0.0177648
0.0182056
0.0184759
0.0190509
0.0194319
0.0201615
0.0206219
0.0216477
0.0222633
0.0235779
0.0243559
0.0259661
0.0269182
0.0288644
0.0299943
0.032319
0.0336303
0.0363402
0.0378539
0.0409432
0.0426696
0.0461437
0.0480898
0.0519216
0.0540932
0.0582001
0.0605727
0.0650144
0.0674852
0.0723858
0.0733539
0.0823203
0.0212693
0.0210194
0.0207852
0.0205331
0.020273
0.0200101
0.0197519
0.0195007
0.0192622
0.0190347
0.0188249
0.0186281
0.018449
0.0182825
0.018132
0.0179927
0.017868
0.0177506
0.0176455
0.0175453
0.0174488
0.0173524
0.0172581
0.0171636
0.0170713
0.0169782
0.0168877
0.0167957
0.0167067
0.0166155
0.016528
0.0164374
0.0163531
0.0162644
0.0161856
0.0161027
0.0160335
0.0159604
0.0159049
0.0158446
0.0158043
0.0157581
0.0157314
0.0156961
0.0156798
0.0156504
0.0156341
0.0156018
0.0155803
0.0155441
0.0155173
0.0154751
0.0154414
0.0153955
0.0153645
0.0153173
0.0152892
0.0152473
0.0152252
0.0151968
0.0151541
0.015117
0.0150785
0.0150506
0.0150215
0.0150263
0.0150317
0.0150657
0.0150918
0.0151438
0.0151769
0.0152414
0.0153046
0.015362
0.0154253
0.0156045
0.0156563
0.0156347
0.0156804
0.0158004
0.0158124
0.0159999
0.0160781
0.0162785
0.0163746
0.0166283
0.0167658
0.017069
0.017281
0.0176542
0.0179503
0.0184443
0.018757
0.0194022
0.0198539
0.0209086
0.0209204
0.0226394
0.0223699
0.0252793
0.0184411
0.0183005
0.0181523
0.0179936
0.0178331
0.0176689
0.0175086
0.0173486
0.0171955
0.0170446
0.016902
0.0167622
0.0166311
0.0165026
0.0163826
0.0162647
0.016155
0.0160471
0.0159471
0.0158486
0.015758
0.015669
0.0155879
0.0155084
0.0154367
0.0153667
0.015304
0.0152432
0.0151891
0.0151369
0.0150906
0.015046
0.0150061
0.0149675
0.0149322
0.0148974
0.0148643
0.0148308
0.0147975
0.0147632
0.0147284
0.0146922
0.0146555
0.0146177
0.0145802
0.0145418
0.0145051
0.0144675
0.0144335
0.0143979
0.0143677
0.0143349
0.014309
0.0142794
0.0142572
0.0142306
0.0142112
0.0141874
0.0141695
0.0141483
0.0141314
0.0141126
0.0140967
0.0140805
0.014066
0.0140526
0.01404
0.01403
0.0140197
0.0140141
0.0140059
0.0140056
0.0139993
0.0140048
0.0139999
0.0140112
0.0140081
0.0140235
0.0140212
0.0140403
0.0140397
0.0140605
0.0140653
0.0140893
0.0140979
0.0141224
0.0141357
0.0141602
0.0141788
0.0142044
0.0142293
0.0142568
0.0142897
0.0143151
0.0143632
0.0143922
0.0144573
0.0145192
0.0145828
0.0147269
0.0165364
0.0164526
0.0163622
0.0162617
0.0161583
0.0160501
0.0159436
0.015835
0.0157303
0.0156246
0.0155242
0.0154232
0.0153283
0.0152331
0.0151447
0.015056
0.0149749
0.0148937
0.0148209
0.0147481
0.0146844
0.0146207
0.0145662
0.0145111
0.0144648
0.0144167
0.0143765
0.0143329
0.0142963
0.0142549
0.0142196
0.0141787
0.0141436
0.0141025
0.0140674
0.0140264
0.0139921
0.0139521
0.0139194
0.0138814
0.0138512
0.0138158
0.0137881
0.0137551
0.0137297
0.0136985
0.0136748
0.0136449
0.0136226
0.0135936
0.0135723
0.0135441
0.0135238
0.0134965
0.0134774
0.0134511
0.0134334
0.0134085
0.0133923
0.0133691
0.0133548
0.0133337
0.0133216
0.0133029
0.0132935
0.0132777
0.0132713
0.0132588
0.0132558
0.0132466
0.0132471
0.0132412
0.0132451
0.0132425
0.0132494
0.0132499
0.0132593
0.0132626
0.0132739
0.0132793
0.0132918
0.0132989
0.0133122
0.0133203
0.0133338
0.0133424
0.0133548
0.0133637
0.013374
0.0133836
0.0133908
0.0134018
0.0134048
0.0134145
0.0134156
0.0134226
0.0134201
0.0134272
0.0134255
0.0134225
0.0151484
0.0151016
0.0150484
0.014985
0.014918
0.0148453
0.014773
0.0146976
0.014625
0.0145506
0.0144803
0.0144089
0.0143424
0.0142749
0.0142128
0.0141495
0.0140919
0.0140326
0.0139792
0.0139237
0.0138741
0.0138221
0.0137761
0.0137274
0.013685
0.0136396
0.0136009
0.013559
0.0135243
0.013486
0.0134553
0.0134206
0.0133938
0.0133626
0.0133393
0.0133112
0.0132911
0.0132656
0.0132482
0.0132248
0.0132096
0.0131878
0.0131743
0.0131536
0.0131414
0.0131215
0.0131101
0.0130907
0.0130799
0.0130608
0.0130504
0.0130314
0.0130215
0.0130028
0.0129934
0.0129753
0.0129667
0.0129494
0.0129418
0.0129255
0.0129192
0.0129041
0.0128991
0.0128853
0.0128817
0.0128692
0.0128668
0.0128554
0.0128542
0.0128438
0.0128436
0.0128342
0.0128349
0.0128262
0.0128277
0.0128196
0.0128218
0.0128141
0.012817
0.0128093
0.0128129
0.0128051
0.0128093
0.0128012
0.0128058
0.0127974
0.0128023
0.0127935
0.0127989
0.0127893
0.0127955
0.0127843
0.012792
0.01278
0.0127862
0.012775
0.0127827
0.0127695
0.0127665
0.0127554
0.014187
0.0141631
0.014134
0.0140954
0.0140535
0.0140057
0.0139578
0.013906
0.013856
0.0138033
0.0137537
0.013702
0.0136541
0.0136046
0.0135595
0.0135129
0.0134715
0.0134285
0.0133912
0.0133522
0.0133191
0.013284
0.0132548
0.0132231
0.0131972
0.0131681
0.0131446
0.0131174
0.0130956
0.0130693
0.0130485
0.0130227
0.0130024
0.0129767
0.0129567
0.012931
0.0129112
0.0128853
0.0128657
0.0128398
0.0128203
0.0127944
0.0127754
0.0127497
0.0127314
0.0127063
0.0126888
0.0126646
0.0126484
0.0126253
0.0126108
0.0125891
0.0125764
0.0125564
0.0125459
0.0125278
0.0125195
0.0125036
0.0124976
0.0124837
0.0124799
0.012468
0.0124661
0.0124558
0.0124555
0.0124465
0.0124474
0.0124393
0.0124409
0.0124335
0.0124357
0.0124287
0.012431
0.0124243
0.0124266
0.0124202
0.0124221
0.012416
0.0124175
0.0124118
0.0124126
0.0124073
0.0124073
0.0124026
0.0124018
0.0123975
0.012396
0.0123922
0.0123899
0.0123869
0.0123833
0.0123815
0.0123763
0.0123766
0.0123701
0.0123657
0.012365
0.0123488
0.0123864
0.0123068
0.0135172
0.0135061
0.013491
0.0134671
0.0134407
0.013408
0.0133755
0.0133384
0.013303
0.013264
0.0132277
0.0131886
0.0131529
0.0131146
0.0130803
0.0130435
0.0130109
0.0129758
0.0129452
0.0129119
0.0128832
0.0128517
0.012825
0.0127953
0.0127706
0.0127426
0.0127199
0.0126937
0.0126729
0.0126484
0.0126296
0.0126067
0.0125897
0.0125683
0.012553
0.012533
0.0125192
0.0125005
0.0124881
0.0124703
0.0124591
0.0124421
0.012432
0.0124156
0.0124063
0.0123903
0.0123817
0.0123661
0.012358
0.0123427
0.0123353
0.0123202
0.0123133
0.0122985
0.0122921
0.0122777
0.0122718
0.0122578
0.0122524
0.0122387
0.0122339
0.0122206
0.0122163
0.0122035
0.0121997
0.0121873
0.0121841
0.0121722
0.0121695
0.0121582
0.0121561
0.0121453
0.0121437
0.0121335
0.0121323
0.0121228
0.012122
0.012113
0.0121126
0.0121042
0.0121041
0.0120962
0.0120964
0.0120887
0.0120893
0.0120818
0.0120826
0.0120754
0.012076
0.0120694
0.0120693
0.0120636
0.0120627
0.0120578
0.012056
0.0120484
0.0120509
0.0120408
0.0120364
0.0120268
0.0130354
0.0130316
0.0130249
0.0130097
0.0129925
0.0129691
0.0129459
0.012918
0.0128917
0.0128615
0.012834
0.0128032
0.0127757
0.0127451
0.0127185
0.0126889
0.0126636
0.0126354
0.0126118
0.012585
0.0125632
0.0125381
0.012518
0.0124944
0.0124759
0.0124536
0.0124366
0.0124154
0.0123995
0.0123792
0.0123643
0.0123447
0.0123305
0.0123114
0.0122978
0.0122791
0.0122661
0.0122477
0.0122353
0.0122174
0.0122056
0.0121881
0.012177
0.01216
0.0121497
0.0121335
0.0121241
0.0121087
0.0121004
0.0120857
0.0120785
0.0120647
0.0120585
0.0120454
0.0120401
0.0120277
0.0120232
0.0120113
0.0120074
0.0119958
0.0119923
0.0119809
0.0119777
0.0119665
0.0119635
0.0119524
0.0119496
0.0119387
0.0119361
0.0119254
0.0119231
0.0119128
0.0119108
0.0119009
0.0118991
0.0118898
0.0118883
0.0118796
0.0118783
0.0118703
0.011869
0.011862
0.0118603
0.0118544
0.0118522
0.0118476
0.0118445
0.011841
0.0118374
0.0118343
0.011831
0.0118273
0.0118252
0.0118202
0.0118185
0.0118131
0.0118045
0.0117982
0.0118322
0.0117602
0.0126811
0.0126819
0.0126798
0.0126697
0.012658
0.0126404
0.0126233
0.0126015
0.0125813
0.0125572
0.0125356
0.0125105
0.0124886
0.0124635
0.0124421
0.0124175
0.0123971
0.0123733
0.0123541
0.0123315
0.0123135
0.0122919
0.0122753
0.0122547
0.0122393
0.0122197
0.0122054
0.0121868
0.0121736
0.0121557
0.0121435
0.0121264
0.0121151
0.0120986
0.0120881
0.0120722
0.0120624
0.0120471
0.0120379
0.0120229
0.0120143
0.0119997
0.0119916
0.0119773
0.0119696
0.0119556
0.0119484
0.0119345
0.0119278
0.0119142
0.0119078
0.0118944
0.0118884
0.0118753
0.0118698
0.0118569
0.0118517
0.0118391
0.0118345
0.0118221
0.0118179
0.0118059
0.0118021
0.0117904
0.011787
0.0117758
0.0117728
0.0117619
0.0117593
0.0117488
0.0117467
0.0117366
0.0117348
0.0117251
0.0117237
0.0117144
0.0117133
0.0117044
0.0117036
0.0116951
0.0116944
0.0116864
0.0116857
0.0116781
0.0116775
0.0116703
0.0116696
0.0116626
0.0116619
0.0116552
0.0116544
0.0116477
0.0116467
0.011641
0.0116386
0.0116324
0.0116296
0.0116238
0.0116217
0.011611
0.0124144
0.0124183
0.012419
0.0124124
0.0124048
0.0123917
0.0123793
0.0123624
0.012347
0.0123278
0.012311
0.0122906
0.0122732
0.0122524
0.0122351
0.0122145
0.0121977
0.0121775
0.0121615
0.0121419
0.0121268
0.0121079
0.0120937
0.0120755
0.0120623
0.0120447
0.0120324
0.0120155
0.0120039
0.0119876
0.0119768
0.011961
0.0119509
0.0119355
0.0119261
0.0119112
0.0119023
0.0118878
0.0118796
0.0118655
0.0118577
0.0118441
0.0118368
0.0118235
0.0118168
0.0118038
0.0117975
0.0117848
0.011779
0.0117665
0.0117611
0.0117488
0.0117436
0.0117315
0.0117266
0.0117146
0.01171
0.0116981
0.0116937
0.0116819
0.0116779
0.0116663
0.0116625
0.0116511
0.0116477
0.0116366
0.0116335
0.0116227
0.01162
0.0116096
0.0116073
0.0115972
0.0115953
0.0115857
0.011584
0.0115749
0.0115735
0.0115648
0.0115636
0.0115554
0.0115544
0.0115466
0.0115456
0.0115383
0.0115372
0.0115303
0.0115292
0.0115225
0.0115214
0.011515
0.0115138
0.0115076
0.0115059
0.0115009
0.0114978
0.0114921
0.0114892
0.0114834
0.0114813
0.0114704
0.0122127
0.0122171
0.0122192
0.0122148
0.0122095
0.0121993
0.0121895
0.0121756
0.0121631
0.0121468
0.0121328
0.0121152
0.0121006
0.0120826
0.0120679
0.0120499
0.0120356
0.0120179
0.0120042
0.011987
0.011974
0.0119574
0.0119452
0.0119292
0.0119179
0.0119023
0.0118918
0.0118768
0.0118671
0.0118526
0.0118436
0.0118295
0.0118211
0.0118074
0.0117996
0.0117862
0.011779
0.0117658
0.011759
0.0117461
0.0117397
0.011727
0.0117209
0.0117084
0.0117026
0.0116903
0.0116848
0.0116727
0.0116675
0.0116555
0.0116506
0.0116388
0.0116341
0.0116225
0.0116182
0.0116067
0.0116026
0.0115913
0.0115876
0.0115764
0.0115729
0.0115619
0.0115587
0.0115479
0.0115449
0.0115343
0.0115316
0.0115213
0.0115188
0.0115087
0.0115065
0.0114967
0.0114947
0.0114853
0.0114834
0.0114744
0.0114726
0.011464
0.0114623
0.0114542
0.0114523
0.0114449
0.0114427
0.011436
0.0114335
0.0114274
0.0114246
0.0114191
0.0114158
0.0114111
0.011407
0.0114033
0.0113981
0.0113962
0.0113899
0.0113845
0.0113825
0.0113685
0.0113979
0.01133
0.0120602
0.0120645
0.0120675
0.0120646
0.012061
0.0120526
0.0120449
0.0120331
0.0120227
0.0120088
0.0119969
0.0119818
0.0119692
0.0119535
0.0119409
0.0119251
0.0119127
0.0118971
0.0118852
0.0118699
0.0118586
0.0118437
0.011833
0.0118186
0.0118086
0.0117947
0.0117853
0.0117718
0.0117631
0.0117499
0.0117417
0.0117289
0.0117213
0.0117087
0.0117016
0.0116891
0.0116826
0.0116703
0.0116641
0.0116519
0.0116461
0.011634
0.0116286
0.0116166
0.0116114
0.0115995
0.0115946
0.0115828
0.0115781
0.0115664
0.011562
0.0115504
0.0115462
0.0115347
0.0115307
0.0115194
0.0115156
0.0115044
0.0115008
0.0114898
0.0114865
0.0114757
0.0114726
0.0114619
0.0114591
0.0114486
0.0114461
0.0114358
0.0114335
0.0114234
0.0114214
0.0114116
0.0114099
0.0114002
0.0113988
0.0113893
0.0113884
0.0113788
0.0113785
0.0113687
0.011369
0.011359
0.01136
0.0113497
0.0113512
0.0113408
0.0113427
0.011332
0.0113346
0.0113231
0.011327
0.011314
0.0113195
0.011306
0.0113105
0.0112976
0.0113032
0.0112894
0.0112852
0.0112754
0.0119434
0.0119477
0.0119511
0.011949
0.0119466
0.0119395
0.0119333
0.0119229
0.0119143
0.0119019
0.0118918
0.0118782
0.0118674
0.0118532
0.0118422
0.0118279
0.0118171
0.0118029
0.0117924
0.0117784
0.0117684
0.0117548
0.0117453
0.0117321
0.0117232
0.0117103
0.0117019
0.0116894
0.0116815
0.0116693
0.0116618
0.01165
0.0116429
0.0116312
0.0116246
0.0116131
0.0116068
0.0115954
0.0115895
0.0115782
0.0115726
0.0115614
0.0115561
0.011545
0.0115399
0.0115289
0.011524
0.011513
0.0115084
0.0114975
0.0114932
0.0114823
0.0114782
0.0114674
0.0114635
0.0114527
0.011449
0.0114383
0.0114349
0.0114242
0.0114211
0.0114105
0.0114076
0.0113972
0.0113944
0.0113842
0.0113816
0.0113716
0.0113693
0.0113594
0.0113573
0.0113476
0.0113458
0.0113363
0.0113347
0.0113254
0.011324
0.011315
0.0113137
0.0113051
0.0113037
0.0112956
0.011294
0.0112866
0.0112844
0.011278
0.0112752
0.0112694
0.0112663
0.0112608
0.011258
0.011252
0.01125
0.0112431
0.0112419
0.0112361
0.0112275
0.0112274
0.0112274
0.0112178
0.0118545
0.0118584
0.0118621
0.0118601
0.0118586
0.0118522
0.011847
0.0118376
0.0118301
0.0118187
0.0118098
0.0117972
0.0117877
0.0117744
0.0117647
0.0117512
0.0117416
0.0117282
0.0117188
0.0117057
0.0116967
0.0116838
0.0116753
0.0116627
0.0116548
0.0116424
0.0116349
0.0116229
0.0116158
0.0116041
0.0115974
0.0115859
0.0115796
0.0115682
0.0115623
0.0115511
0.0115455
0.0115343
0.011529
0.011518
0.0115129
0.0115019
0.0114971
0.0114861
0.0114815
0.0114706
0.0114662
0.0114554
0.0114512
0.0114404
0.0114364
0.0114257
0.0114219
0.0114112
0.0114076
0.011397
0.0113935
0.011383
0.0113797
0.0113694
0.0113662
0.0113559
0.011353
0.0113429
0.0113401
0.0113301
0.0113275
0.0113177
0.0113154
0.0113057
0.0113035
0.0112941
0.0112921
0.0112829
0.0112811
0.0112721
0.0112705
0.0112618
0.0112603
0.0112518
0.0112505
0.0112421
0.0112411
0.0112327
0.0112321
0.0112236
0.0112232
0.0112148
0.0112144
0.0112065
0.0112055
0.0111985
0.0111963
0.0111905
0.011188
0.0111813
0.011181
0.0111782
0.0111437
0.0111901
0.011782
0.0117858
0.0117894
0.0117878
0.0117865
0.0117807
0.0117761
0.0117674
0.0117606
0.01175
0.0117419
0.0117302
0.0117214
0.0117091
0.0117002
0.0116876
0.0116788
0.0116662
0.0116577
0.0116452
0.0116371
0.0116249
0.0116172
0.0116053
0.0115981
0.0115864
0.0115796
0.0115681
0.0115618
0.0115505
0.0115446
0.0115334
0.0115279
0.0115168
0.0115116
0.0115006
0.0114957
0.0114848
0.01148
0.0114692
0.0114647
0.0114539
0.0114495
0.0114388
0.0114346
0.011424
0.0114199
0.0114093
0.0114053
0.0113948
0.011391
0.0113805
0.0113768
0.0113664
0.0113629
0.0113526
0.0113492
0.0113389
0.0113357
0.0113255
0.0113225
0.0113124
0.0113095
0.0112995
0.0112969
0.011287
0.0112845
0.0112748
0.0112725
0.0112629
0.0112608
0.0112515
0.0112495
0.0112404
0.0112385
0.0112297
0.0112279
0.0112194
0.0112176
0.0112095
0.0112076
0.0111999
0.0111979
0.0111907
0.0111884
0.0111817
0.0111791
0.0111731
0.0111698
0.0111648
0.0111606
0.0111567
0.0111512
0.0111481
0.0111439
0.0111396
0.0111362
0.0111286
0.0111251
0.0111164
0.0117236
0.0117274
0.0117308
0.0117295
0.0117285
0.0117233
0.0117191
0.0117112
0.0117049
0.0116952
0.0116878
0.011677
0.0116688
0.0116574
0.0116491
0.0116375
0.0116293
0.0116176
0.0116096
0.011598
0.0115904
0.0115789
0.0115717
0.0115604
0.0115535
0.0115424
0.0115359
0.011525
0.0115188
0.011508
0.0115022
0.0114914
0.011486
0.0114752
0.01147
0.0114593
0.0114544
0.0114437
0.011439
0.0114282
0.0114238
0.011413
0.0114088
0.011398
0.0113941
0.0113833
0.0113794
0.0113687
0.011365
0.0113543
0.0113508
0.0113402
0.0113368
0.0113263
0.0113229
0.0113126
0.0113094
0.0112991
0.011296
0.0112858
0.0112829
0.0112728
0.01127
0.0112601
0.0112575
0.0112476
0.0112452
0.0112355
0.0112332
0.0112237
0.0112216
0.0112122
0.0112103
0.0112011
0.0111995
0.0111902
0.011189
0.0111797
0.011179
0.0111694
0.0111694
0.0111593
0.0111601
0.0111496
0.0111509
0.0111402
0.0111419
0.011131
0.0111332
0.0111218
0.0111248
0.0111126
0.0111167
0.0111029
0.0111084
0.0110977
0.0111009
0.0110938
0.0110587
0.0111047
0.0116817
0.0116853
0.0116884
0.0116872
0.0116862
0.0116814
0.0116774
0.01167
0.0116641
0.0116549
0.0116477
0.0116375
0.0116296
0.0116187
0.0116106
0.0115993
0.0115911
0.0115798
0.0115718
0.0115604
0.0115526
0.0115413
0.0115338
0.0115226
0.0115154
0.0115043
0.0114973
0.0114863
0.0114797
0.0114688
0.0114625
0.0114517
0.0114457
0.0114349
0.0114292
0.0114185
0.011413
0.0114024
0.0113972
0.0113866
0.0113816
0.0113711
0.0113663
0.0113558
0.0113513
0.0113408
0.0113365
0.0113261
0.011322
0.0113116
0.0113078
0.0112975
0.0112939
0.0112836
0.0112802
0.0112701
0.0112669
0.0112568
0.0112539
0.0112439
0.0112412
0.0112313
0.0112288
0.011219
0.0112166
0.0112069
0.0112048
0.0111952
0.0111932
0.0111839
0.011182
0.0111728
0.0111711
0.0111621
0.0111605
0.0111517
0.0111501
0.0111415
0.0111401
0.0111317
0.0111303
0.0111221
0.0111208
0.0111127
0.0111114
0.0111036
0.0111022
0.0110947
0.011093
0.011086
0.011084
0.0110774
0.0110752
0.0110684
0.011067
0.0110604
0.0110573
0.0110495
0.0110455
0.0110376
0.0116492
0.0116525
0.0116553
0.0116541
0.0116529
0.0116481
0.0116439
0.0116364
0.01163
0.0116205
0.0116126
0.0116019
0.0115932
0.0115816
0.0115725
0.0115606
0.0115514
0.0115394
0.0115303
0.011518
0.011509
0.0114967
0.011488
0.0114759
0.0114676
0.0114559
0.0114481
0.0114366
0.0114294
0.0114183
0.0114115
0.0114007
0.0113945
0.0113839
0.0113781
0.0113678
0.0113624
0.0113522
0.0113473
0.0113372
0.0113326
0.0113226
0.0113184
0.0113086
0.0113047
0.0112949
0.0112913
0.0112816
0.0112782
0.0112686
0.0112654
0.0112559
0.0112529
0.0112433
0.0112405
0.011231
0.0112284
0.0112188
0.0112164
0.0112069
0.0112046
0.0111951
0.0111929
0.0111835
0.0111815
0.0111721
0.0111702
0.0111609
0.0111591
0.0111499
0.0111483
0.0111392
0.0111376
0.0111288
0.0111272
0.0111186
0.0111171
0.0111087
0.0111072
0.011099
0.0110975
0.0110897
0.0110881
0.0110806
0.0110787
0.0110717
0.0110696
0.0110631
0.0110606
0.0110544
0.011052
0.0110459
0.0110436
0.0110368
0.0110357
0.0110292
0.0110263
0.011019
0.0110153
0.0110076
0.0116244
0.0116266
0.0116278
0.0116243
0.0116205
0.0116125
0.0116052
0.0115943
0.0115848
0.0115721
0.0115616
0.0115483
0.0115376
0.0115242
0.0115139
0.0115008
0.0114912
0.0114787
0.0114699
0.0114584
0.0114506
0.0114399
0.011433
0.011423
0.0114167
0.0114071
0.0114015
0.0113922
0.0113869
0.0113779
0.011373
0.0113641
0.0113595
0.0113507
0.0113464
0.0113375
0.0113335
0.0113246
0.0113208
0.0113118
0.0113083
0.0112992
0.0112959
0.0112868
0.0112837
0.0112745
0.0112715