/*--------------------------------*- C++ -*----------------------------------*\
  =========                 |
  \\      /  F ield         | OpenFOAM: The Open Source CFD Toolbox
   \\    /   O peration     | Website:  https://openfoam.org
    \\  /    A nd           | Version:  8
     \\/     M anipulation  |
\*---------------------------------------------------------------------------*/
FoamFile
{
    version     2.0;
    format      ascii;
    class       volScalarField;
    location    "0.500023";
    object      p;
}
// * * * * * * * * * * * * * * * * * * * * * * * * * * * * * * * * * * * * * //

dimensions      [1 -1 -2 0 0 0 0];

internalField   nonuniform List<scalar> 
6800
(
100465
100584
100605
100621
100643
100667
100694
100722
100749
100771
100281
100507
100506
100528
100564
100598
100632
100668
100703
100735
99971.4
100351
100349
100400
100458
100509
100557
100605
100651
100694
99573.1
100128
100142
100242
100330
100404
100471
100534
100593
100647
99123
99857.1
99899.8
100065
100187
100289
100379
100459
100532
100598
98659.2
99563.6
99645.1
99881.3
100040
100174
100287
100386
100473
100550
98216.8
99271.9
99399.2
99706.4
99900.3
100065
100202
100318
100419
100507
97826.4
99004.3
99181
99552.8
99777.9
99972.9
100130
100263
100376
100474
97511.1
98779.7
99006.1
99431.7
99682.8
99903.6
100078
100225
100348
100454
97287.3
98612.9
98886
99351.2
99622.8
99863.6
100051
100208
100338
100451
100841
100773
100753
100756
100771
100797
100834
100880
100932
100986
100817
100758
100738
100740
100753
100778
100816
100864
100921
100980
100772
100727
100713
100714
100726
100753
100792
100845
100908
100976
100718
100692
100686
100690
100703
100732
100779
100835
100901
100975
100669
100664
100669
100678
100696
100730
100778
100834
100895
100967
100631
100649
100668
100683
100708
100742
100785
100833
100887
100949
100601
100646
100679
100702
100726
100755
100791
100832
100876
100925
100570
100646
100690
100715
100735
100760
100790
100824
100859
100897
100543
100628
100686
100711
100728
100748
100774
100803
100834
100867
100533
100601
100656
100679
100697
100717
100741
100769
100798
100832
101048
101112
101163
101206
101243
101272
101297
101318
101336
101351
101364
101375
101384
101392
101398
101404
101408
101411
101414
101416
101418
101418
101419
101419
101418
101418
101417
101416
101414
101412
101411
101409
101407
101405
101403
101400
101398
101396
101394
101391
101389
101387
101385
101383
101381
101379
101377
101375
101373
101371
101369
101367
101365
101364
101362
101361
101359
101358
101356
101355
101353
101352
101351
101350
101349
101348
101347
101346
101345
101344
101343
101342
101341
101340
101340
101339
101338
101338
101337
101336
101336
101335
101335
101334
101334
101333
101333
101332
101332
101331
101331
101330
101330
101330
101329
101329
101328
101328
101328
101328
101041
101107
101160
101203
101239
101269
101294
101315
101333
101349
101362
101373
101382
101390
101397
101403
101407
101411
101413
101416
101417
101418
101418
101418
101418
101417
101416
101415
101414
101412
101410
101409
101407
101404
101402
101400
101398
101396
101393
101391
101389
101387
101385
101383
101380
101378
101376
101374
101373
101371
101369
101367
101365
101364
101362
101360
101359
101357
101356
101355
101353
101352
101351
101350
101349
101348
101347
101346
101345
101344
101343
101342
101341
101340
101340
101339
101338
101338
101337
101336
101336
101335
101335
101334
101334
101333
101333
101332
101332
101331
101331
101330
101330
101330
101329
101329
101328
101328
101328
101327
101032
101098
101151
101195
101231
101262
101288
101310
101329
101345
101358
101370
101380
101388
101395
101401
101405
101409
101412
101414
101416
101417
101417
101418
101417
101417
101416
101415
101413
101412
101410
101408
101406
101404
101402
101400
101398
101395
101393
101391
101389
101387
101384
101382
101380
101378
101376
101374
101372
101371
101369
101367
101365
101364
101362
101360
101359
101357
101356
101355
101353
101352
101351
101350
101349
101348
101347
101346
101345
101344
101343
101342
101341
101340
101340
101339
101338
101338
101337
101336
101336
101335
101335
101334
101334
101333
101333
101332
101332
101331
101331
101330
101330
101329
101329
101329
101328
101328
101327
101327
101017
101081
101137
101182
101220
101252
101280
101303
101323
101339
101353
101366
101376
101385
101392
101398
101403
101407
101410
101412
101414
101415
101416
101416
101416
101416
101415
101414
101412
101411
101409
101407
101405
101403
101401
101399
101397
101395
101393
101391
101388
101386
101384
101382
101380
101378
101376
101374
101372
101370
101369
101367
101365
101363
101362
101360
101359
101357
101356
101355
101353
101352
101351
101350
101349
101347
101346
101345
101345
101344
101343
101342
101341
101340
101340
101339
101338
101338
101337
101336
101336
101335
101335
101334
101334
101333
101333
101332
101332
101331
101331
101330
101330
101329
101329
101328
101328
101328
101327
101327
100989
101053
101116
101165
101205
101239
101268
101293
101314
101332
101347
101360
101371
101380
101388
101394
101400
101404
101407
101410
101412
101413
101414
101415
101414
101414
101413
101412
101411
101410
101408
101406
101405
101403
101401
101399
101396
101394
101392
101390
101388
101386
101384
101382
101380
101378
101376
101374
101372
101370
101368
101367
101365
101363
101362
101360
101359
101357
101356
101354
101353
101352
101351
101350
101348
101347
101346
101345
101344
101344
101343
101342
101341
101340
101340
101339
101338
101338
101337
101336
101336
101335
101335
101334
101334
101333
101333
101332
101332
101331
101331
101330
101330
101329
101329
101328
101328
101327
101327
101326
100954
101017
101087
101142
101184
101221
101252
101279
101302
101321
101338
101352
101364
101374
101382
101390
101395
101400
101404
101407
101409
101411
101412
101412
101413
101412
101412
101411
101410
101408
101407
101405
101403
101402
101400
101398
101396
101393
101391
101389
101387
101385
101383
101381
101379
101377
101375
101373
101372
101370
101368
101366
101365
101363
101361
101360
101358
101357
101356
101354
101353
101352
101351
101349
101348
101347
101346
101345
101344
101344
101343
101342
101341
101340
101340
101339
101338
101338
101337
101336
101336
101335
101335
101334
101334
101333
101333
101332
101332
101331
101331
101330
101330
101329
101329
101328
101328
101327
101327
101326
100920
100980
101055
101114
101159
101198
101231
101260
101285
101306
101325
101340
101353
101364
101374
101382
101388
101394
101398
101402
101405
101407
101408
101409
101409
101409
101409
101409
101408
101406
101405
101404
101402
101400
101398
101397
101395
101393
101391
101389
101387
101385
101382
101380
101379
101377
101375
101373
101371
101369
101367
101366
101364
101363
101361
101359
101358
101357
101355
101354
101353
101352
101350
101349
101348
101347
101346
101345
101344
101343
101343
101342
101341
101340
101340
101339
101338
101338
101337
101336
101336
101335
101335
101334
101334
101333
101333
101332
101332
101331
101331
101330
101330
101329
101329
101328
101328
101327
101326
101326
100891
100948
101022
101084
101133
101174
101209
101240
101267
101290
101309
101326
101340
101353
101363
101372
101379
101385
101390
101395
101398
101400
101402
101404
101404
101405
101405
101405
101404
101403
101402
101401
101399
101398
101396
101395
101393
101391
101389
101387
101385
101383
101382
101380
101378
101376
101374
101372
101370
101369
101367
101365
101364
101362
101361
101359
101358
101356
101355
101354
101353
101351
101350
101349
101348
101347
101346
101345
101344
101343
101342
101342
101341
101340
101339
101339
101338
101338
101337
101336
101336
101335
101335
101334
101334
101333
101332
101332
101331
101331
101331
101330
101330
101329
101329
101328
101327
101327
101326
101325
100866
100919
100989
101052
101105
101149
101187
101220
101249
101273
101295
101313
101328
101342
101353
101363
101371
101377
101383
101388
101392
101395
101397
101399
101400
101400
101401
101401
101400
101400
101399
101398
101396
101395
101394
101392
101390
101389
101387
101385
101383
101382
101380
101378
101376
101374
101373
101371
101369
101368
101366
101364
101363
101361
101360
101359
101357
101356
101355
101353
101352
101351
101350
101349
101348
101347
101346
101345
101344
101343
101342
101342
101341
101340
101339
101339
101338
101337
101337
101336
101336
101335
101334
101334
101333
101333
101332
101332
101331
101331
101330
101330
101329
101329
101328
101328
101327
101327
101326
101325
100845
100893
100955
101016
101069
101116
101156
101192
101223
101250
101273
101294
101311
101326
101339
101350
101359
101367
101373
101379
101383
101387
101390
101392
101394
101395
101396
101396
101396
101396
101395
101394
101393
101392
101391
101389
101388
101386
101385
101383
101381
101380
101378
101376
101375
101373
101371
101370
101368
101366
101365
101363
101362
101360
101359
101358
101356
101355
101354
101353
101352
101350
101349
101348
101347
101346
101345
101345
101344
101343
101342
101341
101341
101340
101339
101338
101338
101337
101337
101336
101335
101335
101334
101334
101333
101333
101332
101332
101331
101331
101330
101330
101329
101329
101328
101328
101327
101327
101326
101325
100836
100891
100949
101006
101058
101104
101145
101181
101212
101240
101263
101284
101302
101317
101331
101342
101352
101360
101367
101373
101378
101381
101385
101387
101389
101390
101391
101392
101392
101392
101391
101391
101390
101389
101388
101387
101385
101384
101382
101381
101379
101378
101376
101374
101373
101371
101369
101368
101366
101365
101363
101362
101360
101359
101358
101356
101355
101354
101353
101352
101351
101349
101348
101347
101346
101346
101345
101344
101343
101342
101341
101341
101340
101339
101339
101338
101337
101337
101336
101336
101335
101334
101334
101333
101333
101332
101332
101332
101331
101331
101330
101330
101329
101329
101328
101328
101327
101327
101326
101325
100854
100910
100966
101020
101069
101112
101150
101184
101213
101239
101262
101282
101299
101314
101327
101338
101347
101355
101362
101368
101373
101377
101380
101382
101384
101386
101387
101387
101388
101388
101387
101387
101386
101385
101384
101383
101382
101380
101379
101378
101376
101375
101373
101372
101370
101369
101367
101366
101364
101363
101361
101360
101359
101357
101356
101355
101354
101352
101351
101350
101349
101348
101347
101346
101345
101345
101344
101343
101342
101341
101341
101340
101339
101339
101338
101337
101337
101336
101336
101335
101335
101334
101334
101333
101333
101332
101332
101331
101331
101330
101330
101329
101329
101328
101328
101327
101327
101326
101326
101325
100872
100924
100978
101027
101072
101113
101149
101181
101209
101235
101257
101276
101293
101308
101321
101332
101341
101350
101357
101362
101367
101371
101375
101378
101380
101381
101382
101383
101383
101384
101383
101383
101382
101382
101381
101380
101379
101377
101376
101375
101374
101372
101371
101369
101368
101366
101365
101364
101362
101361
101360
101358
101357
101356
101355
101353
101352
101351
101350
101349
101348
101347
101346
101345
101344
101344
101343
101342
101341
101341
101340
101339
101339
101338
101337
101337
101336
101336
101335
101335
101334
101334
101333
101333
101332
101332
101331
101331
101330
101330
101330
101329
101329
101328
101328
101327
101327
101326
101326
101325
100892
100941
100992
101039
101081
101118
101152
101183
101210
101234
101256
101274
101291
101305
101317
101328
101338
101346
101352
101358
101363
101367
101371
101373
101375
101377
101378
101379
101379
101380
101380
101379
101379
101378
101377
101376
101375
101374
101373
101372
101371
101369
101368
101367
101365
101364
101363
101362
101360
101359
101358
101356
101355
101354
101353
101352
101351
101350
101349
101348
101347
101346
101345
101344
101343
101343
101342
101341
101340
101340
101339
101338
101338
101337
101337
101336
101336
101335
101335
101334
101334
101333
101333
101332
101332
101331
101331
101331
101330
101330
101329
101329
101328
101328
101328
101327
101327
101326
101326
101325
100915
100960
101007
101051
101090
101125
101157
101185
101211
101234
101254
101272
101288
101302
101314
101324
101333
101341
101348
101354
101359
101363
101366
101369
101371
101373
101374
101375
101375
101376
101376
101376
101375
101375
101374
101373
101372
101371
101370
101369
101368
101367
101366
101364
101363
101362
101361
101359
101358
101357
101356
101355
101354
101352
101351
101350
101349
101348
101347
101347
101346
101345
101344
101343
101342
101342
101341
101340
101340
101339
101338
101338
101337
101337
101336
101336
101335
101335
101334
101334
101333
101333
101332
101332
101331
101331
101331
101330
101330
101329
101329
101329
101328
101328
101327
101327
101327
101326
101326
101325
100940
100981
101024
101065
101100
101133
101162
101189
101214
101235
101254
101271
101286
101300
101311
101321
101330
101338
101344
101350
101355
101359
101362
101365
101367
101369
101370
101371
101372
101372
101372
101372
101372
101371
101371
101370
101369
101368
101367
101366
101365
101364
101363
101362
101361
101360
101358
101357
101356
101355
101354
101353
101352
101351
101350
101349
101348
101347
101346
101345
101344
101344
101343
101342
101341
101341
101340
101339
101339
101338
101337
101337
101336
101336
101335
101335
101334
101334
101333
101333
101333
101332
101332
101331
101331
101331
101330
101330
101330
101329
101329
101328
101328
101328
101327
101327
101327
101326
101326
101325
100967
101002
101043
101079
101112
101142
101170
101194
101217
101237
101255
101271
101286
101298
101309
101319
101327
101335
101341
101346
101351
101355
101358
101361
101363
101365
101366
101367
101368
101368
101368
101368
101368
101368
101367
101367
101366
101365
101364
101363
101362
101361
101360
101359
101358
101357
101356
101355
101354
101353
101352
101351
101350
101349
101348
101347
101346
101346
101345
101344
101343
101342
101342
101341
101340
101340
101339
101338
101338
101337
101337
101336
101336
101335
101335
101334
101334
101333
101333
101333
101332
101332
101331
101331
101331
101330
101330
101330
101329
101329
101329
101328
101328
101327
101327
101327
101326
101326
101326
101325
100994
101025
101062
101095
101125
101152
101178
101201
101222
101240
101257
101272
101286
101298
101308
101317
101325
101332
101338
101343
101348
101352
101355
101357
101359
101361
101362
101363
101364
101365
101365
101365
101365
101364
101364
101363
101363
101362
101361
101360
101360
101359
101358
101357
101356
101355
101354
101353
101352
101351
101350
101349
101348
101347
101347
101346
101345
101344
101343
101343
101342
101341
101341
101340
101339
101339
101338
101337
101337
101336
101336
101335
101335
101334
101334
101334
101333
101333
101332
101332
101332
101331
101331
101331
101330
101330
101330
101329
101329
101329
101328
101328
101328
101327
101327
101327
101326
101326
101326
101325
101021
101049
101082
101112
101139
101164
101187
101208
101227
101244
101260
101274
101286
101297
101307
101316
101323
101330
101336
101341
101345
101348
101351
101354
101356
101358
101359
101360
101361
101361
101361
101361
101361
101361
101361
101360
101360
101359
101358
101358
101357
101356
101355
101354
101353
101352
101352
101351
101350
101349
101348
101347
101346
101346
101345
101344
101343
101343
101342
101341
101341
101340
101339
101339
101338
101338
101337
101337
101336
101336
101335
101335
101334
101334
101333
101333
101333
101332
101332
101331
101331
101331
101330
101330
101330
101330
101329
101329
101329
101328
101328
101328
101327
101327
101327
101326
101326
101326
101326
101325
101049
101073
101102
101129
101154
101176
101197
101216
101233
101249
101263
101276
101288
101298
101307
101315
101322
101328
101334
101338
101342
101345
101348
101351
101353
101354
101355
101356
101357
101358
101358
101358
101358
101358
101357
101357
101357
101356
101355
101355
101354
101353
101352
101352
101351
101350
101349
101348
101348
101347
101346
101345
101345
101344
101343
101342
101342
101341
101341
101340
101339
101339
101338
101338
101337
101337
101336
101336
101335
101335
101334
101334
101333
101333
101333
101332
101332
101332
101331
101331
101331
101330
101330
101330
101329
101329
101329
101329
101328
101328
101328
101327
101327
101327
101327
101326
101326
101326
101326
101325
101077
101098
101123
101147
101169
101189
101207
101224
101240
101254
101267
101279
101290
101299
101307
101315
101321
101327
101332
101336
101340
101343
101345
101348
101349
101351
101352
101353
101354
101354
101355
101355
101355
101354
101354
101354
101353
101353
101352
101352
101351
101351
101350
101349
101348
101348
101347
101346
101346
101345
101344
101343
101343
101342
101341
101341
101340
101340
101339
101338
101338
101337
101337
101336
101336
101335
101335
101335
101334
101334
101333
101333
101333
101332
101332
101332
101331
101331
101331
101330
101330
101330
101330
101329
101329
101329
101328
101328
101328
101328
101327
101327
101327
101327
101326
101326
101326
101326
101325
101325
101105
101123
101145
101166
101184
101202
101218
101234
101248
101260
101272
101283
101292
101300
101308
101315
101321
101326
101330
101334
101337
101340
101343
101345
101346
101348
101349
101350
101350
101351
101351
101351
101351
101351
101351
101351
101350
101350
101349
101349
101348
101348
101347
101347
101346
101345
101345
101344
101343
101343
101342
101342
101341
101340
101340
101339
101339
101338
101338
101337
101337
101336
101336
101335
101335
101334
101334
101334
101333
101333
101332
101332
101332
101332
101331
101331
101331
101330
101330
101330
101330
101329
101329
101329
101329
101328
101328
101328
101328
101327
101327
101327
101327
101327
101326
101326
101326
101326
101325
101325
101133
101147
101166
101184
101200
101216
101230
101243
101256
101267
101277
101286
101295
101302
101309
101315
101320
101325
101329
101332
101335
101338
101340
101342
101344
101345
101346
101347
101347
101348
101348
101348
101348
101348
101348
101348
101347
101347
101347
101346
101346
101345
101345
101344
101344
101343
101342
101342
101341
101341
101340
101340
101339
101339
101338
101338
101337
101337
101336
101336
101335
101335
101334
101334
101334
101333
101333
101333
101332
101332
101332
101331
101331
101331
101330
101330
101330
101330
101329
101329
101329
101329
101329
101328
101328
101328
101328
101328
101327
101327
101327
101327
101327
101326
101326
101326
101326
101326
101325
101325
101160
101172
101188
101203
101217
101230
101242
101253
101264
101274
101283
101291
101298
101305
101310
101316
101320
101324
101328
101331
101334
101336
101338
101340
101341
101342
101343
101344
101344
101345
101345
101345
101345
101345
101345
101345
101344
101344
101344
101343
101343
101342
101342
101342
101341
101341
101340
101340
101339
101339
101338
101338
101337
101337
101336
101336
101335
101335
101335
101334
101334
101334
101333
101333
101333
101332
101332
101332
101331
101331
101331
101330
101330
101330
101330
101330
101329
101329
101329
101329
101328
101328
101328
101328
101328
101328
101327
101327
101327
101327
101327
101327
101326
101326
101326
101326
101326
101325
101325
101325
101186
101196
101209
101222
101233
101244
101254
101264
101273
101281
101289
101295
101302
101307
101312
101317
101321
101324
101327
101330
101332
101334
101336
101337
101338
101339
101340
101341
101341
101341
101342
101342
101342
101342
101342
101342
101341
101341
101341
101340
101340
101340
101339
101339
101339
101338
101338
101337
101337
101337
101336
101336
101335
101335
101335
101334
101334
101334
101333
101333
101333
101332
101332
101332
101331
101331
101331
101331
101330
101330
101330
101330
101329
101329
101329
101329
101329
101328
101328
101328
101328
101328
101328
101327
101327
101327
101327
101327
101327
101327
101326
101326
101326
101326
101326
101326
101326
101325
101325
101325
101212
101220
101231
101241
101250
101259
101267
101275
101282
101289
101295
101300
101306
101310
101314
101318
101321
101324
101326
101329
101331
101332
101334
101335
101336
101337
101337
101338
101338
101338
101339
101339
101339
101339
101339
101339
101338
101338
101338
101338
101337
101337
101337
101336
101336
101336
101335
101335
101335
101334
101334
101334
101333
101333
101333
101333
101332
101332
101332
101331
101331
101331
101331
101330
101330
101330
101330
101330
101329
101329
101329
101329
101329
101328
101328
101328
101328
101328
101328
101328
101327
101327
101327
101327
101327
101327
101327
101327
101326
101326
101326
101326
101326
101326
101326
101326
101325
101325
101325
101325
101238
101244
101252
101260
101267
101273
101280
101286
101291
101297
101301
101306
101310
101313
101316
101319
101322
101324
101326
101328
101329
101330
101332
101332
101333
101334
101334
101335
101335
101335
101336
101336
101336
101336
101336
101335
101335
101335
101335
101335
101335
101334
101334
101334
101334
101333
101333
101333
101333
101332
101332
101332
101332
101331
101331
101331
101331
101330
101330
101330
101330
101330
101329
101329
101329
101329
101329
101329
101328
101328
101328
101328
101328
101328
101328
101327
101327
101327
101327
101327
101327
101327
101327
101327
101326
101326
101326
101326
101326
101326
101326
101326
101326
101326
101326
101325
101325
101325
101325
101325
101263
101268
101273
101278
101283
101288
101293
101297
101301
101305
101308
101311
101314
101316
101319
101321
101323
101324
101326
101327
101328
101329
101330
101330
101331
101331
101332
101332
101332
101332
101333
101333
101333
101333
101333
101332
101332
101332
101332
101332
101332
101332
101332
101331
101331
101331
101331
101331
101330
101330
101330
101330
101330
101330
101329
101329
101329
101329
101329
101329
101328
101328
101328
101328
101328
101328
101328
101328
101327
101327
101327
101327
101327
101327
101327
101327
101327
101327
101327
101326
101326
101326
101326
101326
101326
101326
101326
101326
101326
101326
101326
101326
101326
101325
101325
101325
101325
101325
101325
101325
101288
101291
101294
101297
101300
101303
101306
101308
101311
101313
101315
101317
101318
101320
101321
101322
101324
101324
101325
101326
101327
101327
101328
101328
101328
101329
101329
101329
101329
101329
101329
101330
101330
101330
101330
101329
101329
101329
101329
101329
101329
101329
101329
101329
101329
101329
101328
101328
101328
101328
101328
101328
101328
101328
101328
101328
101327
101327
101327
101327
101327
101327
101327
101327
101327
101327
101327
101327
101326
101326
101326
101326
101326
101326
101326
101326
101326
101326
101326
101326
101326
101326
101326
101326
101326
101326
101326
101326
101325
101325
101325
101325
101325
101325
101325
101325
101325
101325
101325
101325
101313
101314
101315
101316
101317
101318
101319
101319
101320
101321
101322
101322
101323
101323
101324
101324
101325
101325
101325
101325
101326
101326
101326
101326
101326
101326
101326
101326
101326
101326
101327
101327
101327
101327
101327
101326
101326
101326
101326
101326
101326
101326
101326
101326
101326
101326
101326
101326
101326
101326
101326
101326
101326
101326
101326
101326
101326
101326
101326
101326
101326
101326
101326
101326
101326
101326
101326
101326
101325
101325
101325
101325
101325
101325
101325
101325
101325
101325
101325
101325
101325
101325
101325
101325
101325
101325
101325
101325
101325
101325
101325
101325
101325
101325
101325
101325
101325
101325
101325
101325
100547
100547
100561
100587
100621
100660
100701
100740
100773
100788
100628
100625
100632
100649
100674
100703
100734
100766
100794
100809
100701
100695
100698
100708
100725
100745
100769
100793
100817
100833
100765
100757
100757
100763
100775
100790
100807
100826
100846
100860
100823
100814
100812
100815
100822
100833
100846
100861
100876
100889
100875
100866
100862
100863
100867
100875
100884
100895
100907
100918
100922
100913
100908
100907
100910
100915
100921
100930
100939
100948
100965
100956
100951
100949
100950
100953
100958
100964
100972
100979
101004
100996
100991
100988
100988
100990
100993
100998
101003
101009
101040
101033
101028
101025
101024
101025
101027
101030
101035
101040
101074
101067
101062
101059
101058
101058
101060
101062
101066
101070
101106
101100
101095
101092
101091
101091
101091
101093
101096
101099
101136
101130
101126
101124
101122
101121
101122
101123
101125
101128
101164
101159
101156
101153
101152
101151
101151
101152
101154
101156
101191
101187
101184
101182
101181
101180
101180
101180
101182
101183
101217
101214
101211
101210
101208
101208
101208
101208
101209
101210
101242
101240
101238
101236
101235
101235
101235
101235
101236
101237
101266
101265
101263
101262
101261
101261
101261
101261
101262
101262
101290
101289
101288
101288
101287
101287
101287
101287
101287
101288
101313
101313
101313
101313
101312
101312
101312
101312
101312
101313
101503
101482
101446
101398
101333
101242
101113
100914
100688
100074
101342
101298
101241
101171
101079
100954
100786
100532
100262
99515.9
101176
101115
101040
100950
100833
100677
100473
100164
99856.7
98982.8
101019
100943
100852
100744
100603
100418
100182
99821.7
99484.4
98491.4
100878
100788
100683
100557
100395
100185
99922.2
99515.6
99156.7
98057.9
100754
100652
100536
100394
100216
99984.7
99702.3
99255.8
98884.6
97697.5
100650
100540
100414
100261
100070
99823.1
99528.6
99051.5
98677.7
97421.2
100567
100451
100320
100159
99961.1
99704
99405.6
98911
98544.6
97235.5
100506
100388
100254
100089
99889.8
99630.3
99335.2
98835.9
98490.5
97148.1
100468
100351
100217
100054
99857.8
99603.9
99317.7
98827.9
98514.2
97165
102569
102674
102775
102883
103003
103136
103280
103431
103583
103725
102554
102658
102759
102866
102984
103116
103258
103406
103553
103700
102509
102609
102706
102807
102918
103042
103174
103310
103440
103577
102441
102533
102622
102714
102814
102923
103038
103152
103252
103355
102351
102432
102510
102589
102674
102764
102856
102941
103004
103049
102239
102308
102373
102436
102502
102568
102631
102682
102702
102670
102111
102164
102214
102259
102302
102341
102371
102380
102353
102228
101968
102004
102037
102061
102079
102088
102081
102044
101966
101733
101815
101832
101847
101848
101839
101816
101769
101681
101552
101199
101653
101653
101648
101625
101588
101531
101443
101301
101122
100641
101326
101326
101326
101326
101326
101327
101327
101327
101327
101327
101327
101327
101327
101327
101327
101327
101328
101328
101328
101328
101328
101328
101329
101329
101329
101330
101330
101330
101331
101331
101331
101332
101332
101333
101333
101334
101335
101335
101336
101337
101338
101339
101340
101341
101342
101343
101345
101346
101348
101350
101351
101353
101355
101358
101360
101363
101366
101369
101372
101375
101379
101383
101387
101392
101397
101402
101408
101414
101420
101427
101435
101443
101452
101461
101471
101482
101493
101506
101519
101534
101550
101567
101585
101605
101626
101650
101675
101703
101734
101767
101804
101846
101891
101943
102001
102067
102142
102228
102328
102444
101326
101326
101326
101326
101326
101327
101327
101327
101327
101327
101327
101327
101327
101327
101327
101327
101328
101328
101328
101328
101328
101328
101329
101329
101329
101329
101330
101330
101331
101331
101331
101332
101332
101333
101333
101334
101335
101335
101336
101337
101338
101339
101340
101341
101342
101343
101345
101346
101348
101350
101351
101353
101355
101358
101360
101363
101365
101368
101372
101375
101379
101383
101387
101392
101397
101402
101408
101414
101420
101427
101435
101443
101452
101461
101471
101482
101493
101506
101519
101534
101550
101567
101585
101605
101626
101650
101675
101703
101733
101767
101804
101844
101890
101941
101998
102063
102136
102221
102318
102430
101326
101326
101326
101326
101326
101327
101327
101327
101327
101327
101327
101327
101327
101327
101327
101327
101327
101328
101328
101328
101328
101328
101329
101329
101329
101329
101330
101330
101331
101331
101331
101332
101332
101333
101333
101334
101335
101335
101336
101337
101338
101339
101340
101341
101342
101343
101345
101346
101348
101350
101351
101353
101355
101358
101360
101363
101365
101368
101372
101375
101379
101383
101387
101392
101397
101402
101408
101414
101420
101427
101435
101443
101451
101461
101471
101482
101493
101506
101519
101534
101549
101566
101585
101604
101626
101649
101674
101702
101732
101765
101801
101842
101886
101936
101991
102053
102124
102204
102295
102397
101326
101326
101326
101326
101326
101326
101327
101327
101327
101327
101327
101327
101327
101327
101327
101327
101327
101328
101328
101328
101328
101328
101329
101329
101329
101329
101330
101330
101330
101331
101331
101332
101332
101333
101333
101334
101335
101335
101336
101337
101338
101339
101340
101341
101342
101343
101345
101346
101348
101349
101351
101353
101355
101358
101360
101363
101365
101368
101372
101375
101379
101383
101387
101392
101396
101402
101407
101414
101420
101427
101435
101443
101451
101461
101471
101482
101493
101506
101519
101534
101549
101566
101584
101604
101625
101648
101673
101700
101730
101763
101798
101837
101880
101928
101981
102040
102105
102178
102259
102346
101326
101326
101326
101326
101326
101326
101327
101327
101327
101327
101327
101327
101327
101327
101327
101327
101327
101328
101328
101328
101328
101328
101329
101329
101329
101329
101330
101330
101330
101331
101331
101332
101332
101333
101333
101334
101335
101335
101336
101337
101338
101339
101340
101341
101342
101343
101345
101346
101348
101349
101351
101353
101355
101357
101360
101362
101365
101368
101371
101375
101379
101383
101387
101391
101396
101402
101407
101413
101420
101427
101435
101443
101451
101461
101471
101481
101493
101506
101519
101533
101549
101566
101584
101603
101624
101647
101672
101698
101727
101759
101794
101831
101872
101917
101967
102021
102079
102143
102210
102278
101326
101326
101326
101326
101326
101326
101326
101327
101327
101327
101327
101327
101327
101327
101327
101327
101327
101328
101328
101328
101328
101328
101329
101329
101329
101329
101330
101330
101330
101331
101331
101332
101332
101333
101333
101334
101335
101335
101336
101337
101338
101339
101340
101341
101342
101343
101345
101346
101348
101349
101351
101353
101355
101357
101360
101362
101365
101368
101371
101375
101378
101382
101387
101391
101396
101402
101407
101413
101420
101427
101434
101443
101451
101461
101471
101481
101493
101506