/*--------------------------------*- C++ -*----------------------------------*\
  =========                 |
  \\      /  F ield         | OpenFOAM: The Open Source CFD Toolbox
   \\    /   O peration     | Website:  https://openfoam.org
    \\  /    A nd           | Version:  8
     \\/     M anipulation  |
\*---------------------------------------------------------------------------*/
FoamFile
{
    version     2.0;
    format      ascii;
    class       volScalarField;
    location    "0.500023";
    object      rho;
}
// * * * * * * * * * * * * * * * * * * * * * * * * * * * * * * * * * * * * * //

dimensions      [1 -3 0 0 0 0 0];

internalField   nonuniform List<scalar> 
6800
(
0.585464
0.586101
0.586345
0.586917
0.587707
0.588197
0.588535
0.588791
0.589035
0.589254
0.584354
0.585684
0.586183
0.587122
0.587691
0.588078
0.588435
0.588746
0.589036
0.589237
0.582538
0.585174
0.586099
0.586824
0.587443
0.587923
0.588306
0.588599
0.588856
0.58908
0.580621
0.584622
0.585331
0.586377
0.587091
0.587563
0.587952
0.588297
0.588627
0.588928
0.578499
0.583693
0.584612
0.585797
0.586529
0.587114
0.587614
0.588043
0.588413
0.588729
0.576477
0.582821
0.583574
0.585058
0.585958
0.586662
0.587223
0.587705
0.588137
0.588513
0.57459
0.581746
0.582667
0.584414
0.585386
0.586187
0.586863
0.587447
0.587937
0.58836
0.573042
0.580888
0.581773
0.583756
0.584844
0.585815
0.586571
0.587202
0.587747
0.588218
0.571852
0.580034
0.5811
0.583306
0.584475
0.585523
0.586356
0.587059
0.587648
0.588155
0.57114
0.579519
0.580641
0.58298
0.584227
0.585375
0.58626
0.587008
0.587627
0.588161
0.587228
0.586816
0.586699
0.586722
0.586816
0.586969
0.587172
0.587422
0.587698
0.587982
0.587099
0.586741
0.586624
0.586639
0.586725
0.586874
0.587083
0.587347
0.587647
0.587954
0.586863
0.586582
0.586496
0.58651
0.586596
0.586754
0.586977
0.587262
0.587596
0.587946
0.586569
0.586397
0.586363
0.5864
0.5865
0.586683
0.586954
0.587266
0.587619
0.587977
0.586294
0.58625
0.586283
0.586373
0.586526
0.586759
0.587033
0.587339
0.587685
0.588031
0.586069
0.586163
0.586307
0.586478
0.586699
0.586919
0.587164
0.587442
0.587775
0.588129
0.585881
0.586155
0.58642
0.586697
0.586872
0.587054
0.587286
0.58759
0.587938
0.588419
0.585685
0.586171
0.586618
0.586815
0.586959
0.587167
0.587477
0.587929
0.588368
0.588944
0.585549
0.586132
0.586654
0.586817
0.587028
0.5874
0.587958
0.588474
0.588966
0.589326
0.585633
0.586163
0.586488
0.586767
0.587268
0.587918
0.588448
0.588827
0.589104
0.589365
0.588304
0.588629
0.588894
0.589118
0.589314
0.589476
0.589615
0.589737
0.589842
0.589935
0.590018
0.590091
0.590157
0.590217
0.59027
0.590319
0.590362
0.590401
0.590436
0.590467
0.590495
0.59052
0.590542
0.590562
0.590579
0.590593
0.590606
0.590616
0.590625
0.590632
0.590638
0.590642
0.590646
0.590648
0.59065
0.590652
0.590653
0.590654
0.590656
0.590656
0.590658
0.590659
0.59066
0.590662
0.590665
0.590668
0.590672
0.590676
0.590681
0.590687
0.590694
0.590702
0.59071
0.590719
0.590729
0.59074
0.590752
0.590764
0.590777
0.59079
0.590804
0.590817
0.590832
0.590846
0.59086
0.590875
0.590889
0.590903
0.590918
0.590932
0.590946
0.590959
0.590973
0.590986
0.590999
0.591011
0.591022
0.591033
0.591043
0.591053
0.591061
0.591069
0.591076
0.591081
0.591086
0.59109
0.591093
0.591096
0.591097
0.591099
0.591099
0.5911
0.5911
0.591099
0.591099
0.591099
0.591099
0.591099
0.591101
0.591104
0.588263
0.588598
0.588866
0.589088
0.589279
0.589441
0.589581
0.589703
0.58981
0.589904
0.589988
0.590063
0.590131
0.590191
0.590246
0.590295
0.59034
0.59038
0.590415
0.590447
0.590476
0.590501
0.590524
0.590544
0.590561
0.590577
0.59059
0.590601
0.59061
0.590618
0.590624
0.590629
0.590633
0.590637
0.590639
0.590642
0.590644
0.590646
0.590648
0.590649
0.590651
0.590653
0.590655
0.590658
0.590661
0.590664
0.590668
0.590673
0.590678
0.590684
0.590691
0.590699
0.590707
0.590717
0.590727
0.590738
0.590749
0.590761
0.590774
0.590787
0.590801
0.590814
0.590828
0.590842
0.590856
0.59087
0.590884
0.590897
0.590911
0.590925
0.590938
0.590951
0.590964
0.590977
0.590989
0.591001
0.591012
0.591022
0.591032
0.591041
0.591049
0.591056
0.591062
0.591068
0.591072
0.591076
0.591079
0.591081
0.591083
0.591084
0.591084
0.591085
0.591085
0.591085
0.591085
0.591084
0.591085
0.591085
0.591087
0.591089
0.588223
0.588545
0.588809
0.589028
0.589217
0.589381
0.589523
0.589647
0.589757
0.589854
0.589942
0.59002
0.590091
0.590154
0.590211
0.590263
0.590309
0.59035
0.590388
0.590421
0.590451
0.590477
0.590501
0.590522
0.590541
0.590557
0.590571
0.590583
0.590593
0.590602
0.590609
0.590615
0.590621
0.590625
0.590629
0.590633
0.590637
0.59064
0.590643
0.590646
0.590649
0.590652
0.590655
0.590658
0.590662
0.590666
0.59067
0.590675
0.59068
0.590686
0.590693
0.5907
0.590708
0.590718
0.590728
0.590738
0.59075
0.590762
0.590774
0.590787
0.5908
0.590813
0.590826
0.590839
0.590852
0.590865
0.590877
0.59089
0.590903
0.590915
0.590927
0.590939
0.590951
0.590962
0.590973
0.590984
0.590994
0.591003
0.591011
0.591019
0.591027
0.591033
0.591039
0.591044
0.591048
0.591051
0.591054
0.591056
0.591057
0.591058
0.591059
0.591059
0.59106
0.591059
0.59106
0.59106
0.59106
0.59106
0.591062
0.591065
0.588165
0.588463
0.588735
0.588959
0.589151
0.58932
0.589469
0.589599
0.589714
0.589816
0.589909
0.589992
0.590066
0.590134
0.590194
0.590249
0.590298
0.590342
0.590381
0.590417
0.590448
0.590477
0.590502
0.590524
0.590544
0.590561
0.590577
0.59059
0.590601
0.590611
0.590619
0.590627
0.590633
0.590639
0.590645
0.590649
0.590654
0.590658
0.590662
0.590666
0.590669
0.590673
0.590677
0.590681
0.590684
0.590688
0.590692
0.590696
0.590701
0.590706
0.590712
0.590718
0.590726
0.590734
0.590743
0.590753
0.590763
0.590774
0.590785
0.590797
0.590808
0.590819
0.590831
0.590842
0.590854
0.590865
0.590876
0.590887
0.590897
0.590908
0.590918
0.590929
0.590938
0.590948
0.590957
0.590966
0.590974
0.590982
0.590989
0.590996
0.591002
0.591008
0.591013
0.591017
0.591021
0.591024
0.591026
0.591028
0.591029
0.59103
0.591031
0.591031
0.591031
0.591031
0.591032
0.591032
0.591032
0.591033
0.591034
0.591037
0.588112
0.588401
0.588705
0.588951
0.589156
0.589335
0.589496
0.589637
0.589762
0.589872
0.589971
0.59006
0.59014
0.59021
0.590274
0.590331
0.590381
0.590426
0.590466
0.590502
0.590533
0.590561
0.590586
0.590607
0.590626
0.590642
0.590656
0.590669
0.590679
0.590688
0.590696
0.590702
0.590708
0.590714
0.590719
0.590723
0.590727
0.59073
0.590734
0.590737
0.59074
0.590743
0.590746
0.590749
0.590751
0.590754
0.590756
0.590758
0.590761
0.590764
0.590768
0.590773
0.590779
0.590786
0.590793
0.590801
0.59081
0.590818
0.590827
0.590836
0.590845
0.590853
0.590862
0.590871
0.59088
0.590888
0.590897
0.590905
0.590913
0.59092
0.590928
0.590935
0.590941
0.590948
0.590954
0.590961
0.590967
0.590973
0.590978
0.590983
0.590987
0.590991
0.590995
0.590999
0.591002
0.591004
0.591006
0.591007
0.591008
0.591009
0.59101
0.59101
0.59101
0.59101
0.59101
0.59101
0.591011
0.591011
0.591011
0.591014
0.588141
0.588464
0.58882
0.589117
0.589355
0.589559
0.589744
0.589905
0.590045
0.590169
0.590277
0.590371
0.590454
0.590525
0.590587
0.590641
0.590687
0.590727
0.590762
0.590791
0.590816
0.590836
0.590853
0.590867
0.590878
0.590887
0.590894
0.5909
0.590904
0.590906
0.590908
0.590908
0.590908
0.590907
0.590907
0.590906
0.590906
0.590904
0.590903
0.590902
0.5909
0.590898
0.590897
0.590895
0.590893
0.590892
0.59089
0.590889
0.590887
0.590887
0.590887
0.590888
0.590891
0.590894
0.590897
0.590901
0.590905
0.590909
0.590913
0.590918
0.590922
0.590927
0.590932
0.590936
0.590941
0.590945
0.59095
0.590954
0.590958
0.590962
0.590965
0.590968
0.590971
0.590974
0.590977
0.59098
0.590984
0.590987
0.59099
0.590992
0.590995
0.590997
0.590999
0.591001
0.591004
0.591006
0.591007
0.591008
0.591008
0.591008
0.591008
0.591009
0.591009
0.591009
0.591009
0.591008
0.591008
0.591008
0.591007
0.59101
0.58842
0.588751
0.589161
0.589506
0.589778
0.590012
0.590222
0.590405
0.590566
0.590705
0.590825
0.59093
0.591019
0.591095
0.59116
0.591214
0.591258
0.591295
0.591324
0.591346
0.591364
0.591376
0.591383
0.591386
0.591385
0.591382
0.591377
0.59137
0.591361
0.591349
0.591339
0.591325
0.591311
0.591293
0.591281
0.591272
0.591261
0.591249
0.591236
0.591222
0.591209
0.591196
0.591182
0.591168
0.591156
0.591146
0.591136
0.591128
0.591121
0.591114
0.591105
0.591098
0.591093
0.591091
0.59109
0.591088
0.591086
0.591084
0.591081
0.591079
0.591076
0.591073
0.591071
0.591068
0.591066
0.591063
0.591061
0.591059
0.591058
0.591055
0.591054
0.591051
0.59105
0.591048
0.591047
0.591046
0.591045
0.591045
0.591044
0.591042
0.591042
0.591041
0.591041
0.591042
0.591044
0.591047
0.591046
0.591043
0.591042
0.591041
0.59104
0.59104
0.591039
0.591039
0.591038
0.591037
0.591037
0.591035
0.591035
0.591035
0.588942
0.589243
0.589643
0.589986
0.590262
0.590495
0.590699
0.590878
0.591032
0.591166
0.591281
0.591382
0.591468
0.591543
0.591607
0.591662
0.591708
0.591748
0.59178
0.591807
0.591829
0.591846
0.591859
0.591868
0.591874
0.591877
0.591878
0.591875
0.59187
0.591865
0.591857
0.591847
0.591835
0.591819
0.591805
0.591792
0.591774
0.591757
0.591739
0.591717
0.591695
0.591672
0.591646
0.591622
0.591597
0.591574
0.591551
0.591528
0.591509
0.591491
0.591466
0.591445
0.591417
0.591404
0.591401
0.591396
0.591385
0.59137
0.591355
0.59134
0.591325
0.591311
0.591297
0.591284
0.591272
0.591261
0.59125
0.59124
0.59123
0.591221
0.591212
0.591204
0.591196
0.591189
0.591182
0.591176
0.59117
0.591165
0.59116
0.591155
0.591151
0.591148
0.591145
0.591141
0.591139
0.591137
0.591136
0.591133
0.591131
0.591128
0.591126
0.591123
0.591121
0.591119
0.591117
0.591114
0.591112
0.591109
0.591106
0.591104
0.589321
0.589566
0.589918
0.590237
0.590504
0.59073
0.590925
0.591096
0.591244
0.591373
0.591484
0.591581
0.591663
0.591736
0.591798
0.591852
0.591898
0.591938
0.591972
0.592002
0.592027
0.592048
0.592065
0.592079
0.592091
0.5921
0.592107
0.592112
0.592115
0.592116
0.592116
0.592114
0.592112
0.592108
0.592102
0.592096
0.592089
0.59208
0.59207
0.59206
0.592048
0.592036
0.592022
0.592009
0.591994
0.591979
0.591965
0.591949
0.591932
0.591914
0.591899
0.591884
0.591857
0.591843
0.591839
0.591829
0.591812
0.591791
0.591769
0.591745
0.59172
0.591695
0.59167
0.591646
0.591622
0.591599
0.591576
0.591554
0.591533
0.591512
0.591493
0.591475
0.591457
0.591441
0.591425
0.591411
0.591398
0.591385
0.591374
0.591363
0.591353
0.591344
0.591335
0.591327
0.59132
0.591313
0.591306
0.5913
0.591293
0.591287
0.591281
0.591276
0.59127
0.591265
0.591259
0.591254
0.591249
0.591243
0.591237
0.591232
0.589424
0.589659
0.58996
0.590258
0.590522
0.590753
0.590954
0.591132
0.591287
0.591423
0.591541
0.591645
0.591734
0.591813
0.59188
0.59194
0.59199
0.592034
0.592071
0.592104
0.592131
0.592154
0.592174
0.59219
0.592203
0.592213
0.592222
0.592228
0.592232
0.592235
0.592235
0.592235
0.592234
0.592231
0.592228
0.592223
0.592219
0.592213
0.592206
0.592199
0.592192
0.592184
0.592177
0.592169
0.592161
0.592154
0.592146
0.592137
0.592129
0.592121
0.592112
0.592104
0.592095
0.592088
0.592079
0.592073
0.592065
0.592058
0.592047
0.59204
0.592031
0.592021
0.59201
0.591998
0.591985
0.59197
0.591955
0.591938
0.591921
0.591903
0.591885
0.591866
0.591847
0.591828
0.591809
0.59179
0.591772
0.591753
0.591735
0.591718
0.5917
0.591684
0.591668
0.591652
0.591637
0.591622
0.591608
0.591594
0.591581
0.591569
0.591556
0.591545
0.591533
0.591522
0.59151
0.5915
0.591488
0.591478
0.591466
0.591453
0.589651
0.589896
0.590162
0.590426
0.59067
0.590886
0.591077
0.591247
0.591396
0.591527
0.591641
0.591741
0.591827
0.591902
0.591967
0.592024
0.592072
0.592114
0.592149
0.592179
0.592205
0.592227
0.592244
0.592259
0.59227
0.59228
0.592288
0.592293
0.592297
0.592298
0.592299
0.592299
0.592297
0.592294
0.592291
0.592286
0.592282
0.592276
0.59227
0.592263
0.592256
0.592249
0.592243
0.592236
0.592229
0.592222
0.592215
0.592208
0.592202
0.592195
0.592188
0.592182
0.592175
0.592168
0.592161
0.592155
0.592149
0.592142
0.592137
0.592131
0.592126
0.592122
0.592117
0.592112
0.592107
0.592102
0.592097
0.592091
0.592084
0.592076
0.592069
0.592061
0.592053
0.592046
0.592038
0.592031
0.592024
0.592016
0.592009
0.592001
0.591993
0.591985
0.591977
0.591967
0.591958
0.591948
0.591938
0.591928
0.591919
0.591908
0.591898
0.591886
0.591875
0.591862
0.591851
0.591836
0.591824
0.591807
0.591796
0.591775
0.589799
0.590057
0.590317
0.590567
0.590794
0.590996
0.591175
0.591332
0.591471
0.591594
0.5917
0.591793
0.591874
0.591945
0.592006
0.592059
0.592104
0.592144
0.592177
0.592206
0.59223
0.59225
0.592267
0.592281
0.592292
0.5923
0.592307
0.592312
0.592316
0.592317
0.592318
0.592317
0.592316
0.592313
0.59231
0.592306
0.592302
0.592296
0.592291
0.592285
0.59228
0.592274
0.592269
0.592262
0.592258
0.592251
0.592247
0.59224
0.592236
0.592229
0.592224
0.592218
0.592215
0.592208
0.592201
0.592189
0.592185
0.592176
0.592168
0.592162
0.592157
0.592153
0.592149
0.592145
0.592142
0.59214
0.592136
0.592133
0.592129
0.592125
0.592122
0.592118
0.592116
0.592113
0.592111
0.592108
0.592107
0.592105
0.592102
0.5921
0.592096
0.592094
0.592091
0.59209
0.592086
0.592084
0.59208
0.592078
0.592073
0.592069
0.592067
0.592063
0.59206
0.592054
0.592049
0.592047
0.592041
0.592038
0.59203
0.592024
0.589927
0.590166
0.590412
0.590642
0.59085
0.591037
0.591205
0.591354
0.591487
0.591605
0.591708
0.591799
0.591879
0.591948
0.592009
0.592062
0.592107
0.592147
0.592181
0.592209
0.592235
0.592255
0.592273
0.592288
0.592299
0.592309
0.592316
0.592322
0.592326
0.592329
0.59233
0.59233
0.592329
0.592327
0.592324
0.592321
0.592317
0.592312
0.592307
0.592302
0.592297
0.592291
0.592285
0.59228
0.592274
0.592269
0.592263
0.592258
0.592252
0.592247
0.592241
0.592236
0.59223
0.592225
0.592219
0.592215
0.592209
0.592205
0.592201
0.592195
0.592192
0.592186
0.592177
0.592174
0.592167
0.592163
0.592159
0.592156
0.592154
0.592151
0.592149
0.592147
0.592145
0.592143
0.592141
0.592139
0.592138
0.592135
0.592132
0.59213
0.592128
0.592126
0.592124
0.592123
0.592122
0.592122
0.592122
0.592121
0.592121
0.592121
0.592121
0.592121
0.592121
0.59212
0.592119
0.592119
0.592117
0.592117
0.592114
0.592111
0.590057
0.590278
0.590511
0.590728
0.590922
0.591097
0.591256
0.591397
0.591524
0.591636
0.591736
0.591823
0.5919
0.591967
0.592026
0.592077
0.592121
0.59216
0.592193
0.592221
0.592245
0.592266
0.592283
0.592298
0.59231
0.592319
0.592326
0.592332
0.592336
0.592339
0.59234
0.592341
0.59234
0.592339
0.592336
0.592333
0.592329
0.592324
0.592321
0.592315
0.592311
0.592306
0.592302
0.592296
0.592292
0.592286
0.592282
0.592277
0.592273
0.592267
0.592264
0.592258
0.592251
0.592241
0.592236
0.592227
0.59222
0.592215
0.59221
0.592206
0.592201
0.592197
0.592192
0.592188
0.592185
0.592181
0.592178
0.592175
0.592173
0.59217
0.592168
0.592165
0.592163
0.592161
0.592158
0.592157
0.592155
0.592152
0.592151
0.592149
0.592148
0.592146
0.592143
0.592141
0.59214
0.59214
0.592139
0.59214
0.59214
0.59214
0.592141
0.592141
0.592141
0.592141
0.592142
0.592141
0.592141
0.59214
0.59214
0.592138
0.590194
0.590394
0.590613
0.590814
0.590994
0.591156
0.591303
0.591436
0.591555
0.591661
0.591756
0.591839
0.591913
0.591977
0.592034
0.592084
0.592127
0.592164
0.592197
0.592225
0.592249
0.592269
0.592287
0.592301
0.592313
0.592322
0.59233
0.592336
0.59234
0.592343
0.592345
0.592346
0.592345
0.592344
0.592342
0.592339
0.592336
0.592332
0.592329
0.592324
0.592321
0.592316
0.592312
0.592307
0.592303
0.592298
0.592294
0.592289
0.592283
0.59228
0.592273
0.592263
0.59226
0.592252
0.592246
0.592241
0.592236
0.592232
0.592228
0.592224
0.59222
0.592216
0.592212
0.592209
0.592206
0.592203
0.5922
0.592197
0.592195
0.592192
0.592189
0.592187
0.592184
0.592181
0.59218
0.592176
0.592174
0.592171
0.592167
0.592164
0.592162
0.592161
0.592158
0.592156
0.592155
0.592154
0.592153
0.592152
0.592151
0.592151
0.592151
0.592152
0.592152
0.592152
0.592153
0.592153
0.592153
0.592153
0.592153
0.592152
0.590335
0.590515
0.590717
0.590903
0.591069
0.591218
0.591355
0.59148
0.591592
0.591692
0.591781
0.591861
0.591931
0.591993
0.592047
0.592095
0.592137
0.592173
0.592205
0.592232
0.592255
0.592275
0.592292
0.592306
0.592318
0.592328
0.592335
0.592341
0.592345
0.592349
0.592351
0.592352
0.592352
0.592351
0.592349
0.592347
0.592344
0.59234
0.592336
0.592333
0.592329
0.592325
0.59232
0.592316
0.592311
0.592307
0.592301
0.592297
0.592292
0.592288
0.592283
0.592279
0.592274
0.59227
0.592265
0.592263
0.592258
0.592253
0.592246
0.592243
0.592237
0.592231
0.592227
0.592223
0.59222
0.592217
0.592214
0.592212
0.592209
0.592207
0.592204
0.592201
0.592196
0.592194
0.59219
0.592187
0.592185
0.592182
0.592181
0.592179
0.592177
0.592175
0.592173
0.592172
0.592171
0.592168
0.592167
0.592165
0.592163
0.592163
0.592163
0.592163
0.592164
0.592165
0.592165
0.592166
0.592166
0.592166
0.592167
0.592166
0.590479
0.590639
0.590824
0.590994
0.591146
0.591283
0.591409
0.591524
0.591629
0.591722
0.591806
0.59188
0.591947
0.592005
0.592057
0.592102
0.592142
0.592176
0.592206
0.592232
0.592255
0.592274
0.59229
0.592304
0.592315
0.592325
0.592332
0.592338
0.592342
0.592345
0.592348
0.592349
0.592349
0.592349
0.592347
0.592346
0.592343
0.59234
0.592337
0.592334
0.59233
0.592326
0.592323
0.592318
0.592314
0.592312
0.592307
0.5923
0.592294
0.592289
0.592284
0.59228
0.592276
0.592273
0.592269
0.592266
0.592262
0.592259
0.592255
0.592254
0.592249
0.592245
0.592237
0.592235
0.592229
0.592225
0.592222
0.592219
0.592216
0.592214
0.592211
0.592209
0.592207
0.592204
0.592202
0.5922
0.592199
0.592197
0.592195
0.592194
0.592192
0.592189
0.592188
0.592186
0.592185
0.592183
0.592181
0.592178
0.592176
0.592174
0.592173
0.592172
0.592172
0.592173
0.592174
0.592174
0.592175
0.592175
0.592176
0.592176
0.590623
0.590764
0.590931
0.591086
0.591224
0.591349
0.591465
0.591571
0.591668
0.591755
0.591833
0.591903
0.591965
0.59202
0.592069
0.592111
0.592149
0.592182
0.592211
0.592235
0.592257
0.592275
0.592291
0.592304
0.592315
0.592325
0.592332
0.592337
0.592342
0.592345
0.592347
0.592348
0.592349
0.592348
0.592347
0.592345
0.592343
0.59234
0.592337
0.592333
0.59233
0.592326
0.592322
0.592318
0.592315
0.59231
0.592305
0.5923
0.592296
0.592291
0.592287
0.592283
0.592279
0.592275
0.592271
0.592267
0.592264
0.592261
0.592258
0.592254
0.592251
0.592248
0.592245
0.592242
0.592239
0.592236
0.592234
0.592231
0.59223
0.592227
0.592224
0.592219
0.592218
0.592214
0.59221
0.592208
0.592206
0.592204
0.592202
0.5922
0.592199
0.592197
0.592195
0.592193
0.592192
0.59219
0.592188
0.592187
0.592185
0.592183
0.59218
0.59218
0.59218
0.59218
0.592181
0.592182
0.592183
0.592183
0.592184
0.592184
0.590768
0.590891
0.59104
0.591179
0.591304
0.591417
0.591522
0.591619
0.591708
0.591788
0.59186
0.591924
0.591982
0.592033
0.592078
0.592118
0.592153
0.592184
0.592211
0.592234
0.592255
0.592272
0.592287
0.592299
0.59231
0.592319
0.592325
0.59233
0.592335
0.592338
0.59234
0.592342
0.592342
0.592342
0.592341
0.59234
0.592338
0.592336
0.592333
0.59233
0.592327
0.592325
0.592321
0.592318
0.592314
0.592311
0.592306
0.592301
0.592297
0.592293
0.59229
0.592287
0.592283
0.59228
0.592277
0.592274
0.59227
0.592266
0.592261
0.592257
0.592254
0.592251
0.592248
0.592245
0.592243
0.59224
0.592239
0.592236
0.592233
0.59223
0.592228
0.592225
0.592224
0.592222
0.59222
0.592217
0.592215
0.592212
0.59221
0.592208
0.592203
0.592201
0.592198
0.592196
0.592194
0.592192
0.592191
0.59219
0.592188
0.592187
0.592186
0.592186
0.592186
0.592187
0.592188
0.592188
0.59219
0.59219
0.592192
0.592191
0.590909
0.591015
0.591147
0.591272
0.591383
0.591485
0.59158
0.591668
0.591749
0.591822
0.591887
0.591947
0.592
0.592047
0.592089
0.592126
0.592159
0.592188
0.592212
0.592234
0.592253
0.59227
0.592283
0.592295
0.592305
0.592314
0.59232
0.592326
0.592329
0.592332
0.592335
0.592336
0.592337
0.592337
0.592336
0.592335
0.592333
0.592331
0.592328
0.592325
0.592323
0.592319
0.592316
0.592313
0.59231
0.592306
0.592303
0.592299
0.592296
0.592292
0.592289
0.592285
0.592283
0.59228
0.592278
0.592274
0.592271
0.592265
0.592262
0.592257
0.592254
0.592251
0.592248
0.592246
0.592243
0.592241
0.592239
0.592236
0.592234
0.592232
0.59223
0.592227
0.592226
0.592223
0.592221
0.592219
0.592217
0.592215
0.592212
0.592207
0.592206
0.592204
0.592202
0.5922
0.592198
0.592197
0.592196
0.592195
0.592194
0.592193
0.592191
0.592191
0.592191
0.592191
0.592192
0.592193
0.592195
0.592195
0.592197
0.592197
0.591048
0.591139
0.591255
0.591365
0.591464
0.591554
0.591639
0.591718
0.59179
0.591856
0.591916
0.591969
0.592018
0.592061
0.592099
0.592133
0.592163
0.592189
0.592212
0.592232
0.592249
0.592265
0.592277
0.592288
0.592297
0.592305
0.592311
0.592317
0.59232
0.592323
0.592325
0.592326
0.592327
0.592327
0.592327
0.592326
0.592324
0.592322
0.59232
0.592318
0.592315
0.592312
0.592309
0.592306
0.592303
0.5923
0.592297
0.592294
0.592291
0.592289
0.592286
0.592283
0.59228
0.592276
0.592275
0.592271
0.592268
0.592263
0.59226
0.592257
0.592254
0.592252
0.59225
0.592248
0.592246
0.592244
0.592241
0.592239
0.592237
0.592234
0.59223
0.592225
0.592224
0.592221
0.592219
0.592217
0.592216
0.592214
0.592213
0.592212
0.59221
0.592209
0.592208
0.592205
0.592205
0.592203
0.592201
0.5922
0.592198
0.592197
0.592196
0.592195
0.592195
0.592195
0.592196
0.592197
0.592198
0.592199
0.592201
0.592201
0.591183
0.59126
0.59136
0.591456
0.591543
0.591623
0.591698
0.591767
0.591832
0.591891
0.591944
0.591992
0.592036
0.592074
0.592109
0.59214
0.592167
0.592191
0.592212
0.59223
0.592246
0.59226
0.592272
0.592282
0.59229
0.592297
0.592303
0.592308
0.592311
0.592314
0.592316
0.592317
0.592318
0.592318
0.592318
0.592317
0.592316
0.592314
0.592312
0.59231
0.592308
0.592306
0.592303
0.5923
0.592298
0.592295
0.592292
0.592289
0.592286
0.592284
0.592281
0.592278
0.592275
0.592272
0.592269
0.592265
0.592262
0.592259
0.592257
0.592255
0.592252
0.59225
0.592248
0.592247
0.592245
0.592243
0.592242
0.592239
0.592238
0.592236
0.592234
0.592233
0.592231
0.592229
0.592227
0.592225
0.592223
0.592221
0.592218
0.592216
0.592215
0.592211
0.59221
0.592208
0.592207
0.592205
0.592204
0.592203
0.592201
0.592201
0.5922
0.592198
0.592197
0.592196
0.592197
0.592198
0.592199
0.5922
0.592202
0.592202
0.591315
0.59138
0.591465
0.591548
0.591622
0.591692
0.591757
0.591818
0.591874
0.591926
0.591973
0.592016
0.592054
0.592088
0.592119
0.592146
0.592171
0.592192
0.592211
0.592227
0.592241
0.592254
0.592264
0.592273
0.592281
0.592287
0.592293
0.592297
0.5923
0.592302
0.592304
0.592305
0.592306
0.592306
0.592306
0.592305
0.592304
0.592303
0.592301
0.592299
0.592297
0.592296
0.592293
0.592291
0.592288
0.592286
0.592283
0.592281
0.592278
0.592275
0.592273
0.592271
0.592268
0.592267
0.592264
0.592263
0.59226
0.592259
0.592257
0.592255
0.59225
0.592249
0.592246
0.592243
0.592241
0.592239
0.592237
0.592236
0.592234
0.592233
0.592231
0.59223
0.592228
0.592227
0.592226
0.592224
0.592223
0.592221
0.592219
0.592218
0.592216
0.592214
0.592213
0.59221
0.592209
0.592208
0.592206
0.592205
0.592204
0.592202
0.592202
0.5922
0.5922
0.592199
0.5922
0.5922
0.592202
0.592202
0.592204
0.592204
0.591443
0.591496
0.591568
0.591638
0.591701
0.59176
0.591816
0.591869
0.591917
0.591962
0.592003
0.59204
0.592073
0.592103
0.59213
0.592154
0.592175
0.592194
0.59221
0.592225
0.592237
0.592248
0.592257
0.592265
0.592272
0.592278
0.592283
0.592287
0.59229
0.592291
0.592293
0.592294
0.592295
0.592296
0.592296
0.592295
0.592294
0.592293
0.592292
0.59229
0.592289
0.592287
0.592286
0.592285
0.592282
0.592279
0.592276
0.592274
0.592271
0.592269
0.592267
0.592265
0.592263
0.592261
0.59226
0.592258
0.592257
0.592255
0.592253
0.592251
0.592249
0.592247
0.592245
0.592244
0.592241
0.59224
0.592238
0.592236
0.592234
0.592233
0.592232
0.59223
0.59223
0.592228
0.592227
0.592225
0.592224
0.592222
0.592221
0.592219
0.592218
0.592217
0.592216
0.592215
0.592213
0.592211
0.59221
0.592208
0.592207
0.592206
0.592205
0.592203
0.592202
0.592201
0.5922
0.592199
0.592201
0.592201
0.592203
0.592203
0.591568
0.591611
0.59167
0.591727
0.59178
0.59183
0.591876
0.59192
0.591961
0.591999
0.592033
0.592064
0.592092
0.592118
0.592141
0.592161
0.592179
0.592195
0.59221
0.592222
0.592233
0.592242
0.59225
0.592257
0.592263
0.592268
0.592272
0.592275
0.592278
0.59228
0.592281
0.592282
0.592283
0.592283
0.592283
0.592283
0.592282
0.592281
0.59228
0.592279
0.592278
0.592276
0.592274
0.592273
0.592271
0.592269
0.592267
0.592266
0.592264
0.592263
0.592261
0.59226
0.592258
0.592258
0.592256
0.592254
0.592251
0.592248
0.592247
0.592244
0.592242
0.59224
0.592239
0.592237
0.592236
0.592235
0.592234
0.592233
0.592232
0.592231
0.59223
0.592229
0.592228
0.592227
0.592226
0.592225
0.592223
0.592222
0.592221
0.59222
0.592218
0.592217
0.592215
0.592213
0.592212
0.59221
0.59221
0.592208
0.592208
0.592207
0.592206
0.592205
0.592204
0.592203
0.592203
0.592203
0.592203
0.592204
0.592205
0.592205
0.59169
0.591723
0.59177
0.591816
0.591859
0.591898
0.591936
0.591972
0.592005
0.592036
0.592064
0.59209
0.592113
0.592134
0.592153
0.592169
0.592185
0.592198
0.592209
0.59222
0.592229
0.592237
0.592243
0.592249
0.592254
0.592259
0.592262
0.592265
0.592267
0.592268
0.59227
0.592271
0.592272
0.592272
0.592272
0.592272
0.592272
0.592272
0.592271
0.59227
0.592269
0.592268
0.592266
0.592265
0.592263
0.592262
0.592261
0.592259
0.592258
0.592256
0.592255
0.592254
0.592252
0.592252
0.59225
0.592249
0.592247
0.592245
0.592243
0.592241
0.59224
0.592239
0.592238
0.592237
0.592235
0.592234
0.592233
0.592233
0.592232
0.59223
0.59223
0.592228
0.592227
0.592226
0.592224
0.592223
0.592222
0.592221
0.592219
0.592218
0.592216
0.592215
0.592213
0.592213
0.592212
0.592211
0.59221
0.592209
0.592208
0.592207
0.592206
0.592206
0.592205
0.592204
0.592203
0.592202
0.592202
0.592202
0.592203
0.592203
0.591809
0.591834
0.591869
0.591904
0.591937
0.591967
0.591997
0.592024
0.59205
0.592074
0.592095
0.592115
0.592133
0.59215
0.592164
0.592178
0.592189
0.5922
0.592209
0.592217
0.592225
0.592231
0.592237
0.592241
0.592245
0.592249
0.592251
0.592254
0.592255
0.592257
0.592258
0.592259
0.59226
0.59226
0.59226
0.59226
0.59226
0.59226
0.592259
0.592259
0.592258
0.592257
0.592256
0.592255
0.592254
0.592253
0.592252
0.592251
0.59225
0.592249
0.592248
0.592248
0.592247
0.592246
0.592245
0.592244
0.592242
0.592241
0.59224
0.592239
0.592238
0.592237
0.592236
0.592235
0.592234
0.592232
0.59223
0.59223
0.592229
0.592227
0.592225
0.592223
0.592223
0.592221
0.59222
0.592218
0.592217
0.592215
0.592214
0.592212
0.592211
0.592211
0.59221
0.592209
0.592208
0.592207
0.592207
0.592206
0.592205
0.592205
0.592204
0.592203
0.592202
0.592202
0.592202
0.592202
0.592203
0.592203
0.592204
0.592204
0.591925
0.591942
0.591967
0.591991
0.592014
0.592036
0.592057
0.592076
0.592095
0.592112
0.592127
0.592142
0.592155
0.592167
0.592178
0.592188
0.592196
0.592204
0.592211
0.592217
0.592223
0.592227
0.592231
0.592235
0.592238
0.59224
0.592243
0.592244
0.592246
0.592247
0.592248
0.592249
0.59225
0.592251
0.592251
0.592251
0.592251
0.592251
0.592251
0.59225
0.59225
0.592249
0.592249
0.592248
0.592247
0.592247
0.592246
0.592245
0.592244
0.592244
0.592243
0.592242
0.592241
0.59224
0.592239
0.592238
0.592236
0.592235
0.592234
0.592232
0.592231
0.592229
0.592228
0.592227
0.592225
0.592224
0.592222
0.592221
0.592219
0.592219
0.592218
0.592216
0.592215
0.592214
0.592212
0.592211
0.592209
0.592208
0.592207
0.592206
0.592205
0.592204
0.592203
0.592202
0.592202
0.592202
0.592201
0.5922
0.5922
0.5922
0.592199
0.592199
0.592198
0.592198
0.592199
0.592199
0.5922
0.5922
0.592201
0.592201
0.592039
0.592049
0.592064
0.592079
0.592093
0.592106
0.592118
0.592131
0.592142
0.592153
0.592163
0.592172
0.59218
0.592188
0.592195
0.592201
0.592207
0.592212
0.592216
0.59222
0.592224
0.592227
0.592229
0.592232
0.592233
0.592235
0.592236
0.592237
0.592238
0.592239
0.592239
0.59224
0.59224
0.59224
0.59224
0.59224
0.59224
0.59224
0.59224
0.59224
0.592239
0.592239
0.592238
0.592238
0.592238
0.592237
0.592236
0.592236
0.592235
0.592234
0.592233
0.592233
0.592232
0.592231
0.59223
0.592229
0.592228
0.592227
0.592226
0.592225
0.592224
0.592223
0.592222
0.592221
0.59222
0.592219
0.592218
0.592216
0.592215
0.592214
0.592213
0.592211
0.59221
0.592208
0.592207
0.592206
0.592204
0.592203
0.592202
0.592201
0.5922
0.592199
0.592199
0.592198
0.592198
0.592198
0.592197
0.592197
0.592197
0.592196
0.592196
0.592196
0.592196
0.592196
0.592197
0.592197
0.592198
0.592198
0.592199
0.592199
0.592156
0.59216
0.592165
0.59217
0.592176
0.592181
0.592186
0.59219
0.592195
0.592199
0.592202
0.592206
0.592209
0.592212
0.592214
0.592216
0.592218
0.59222
0.592221
0.592222
0.592223
0.592224
0.592225
0.592225
0.592226
0.592226
0.592226
0.592226
0.592226
0.592226
0.592226
0.592226
0.592226
0.592226
0.592226
0.592226
0.592226
0.592225
0.592225
0.592225
0.592225
0.592225
0.592225
0.592225
0.592225
0.592225
0.592225
0.592225
0.592224
0.592224
0.592223
0.592223
0.592222
0.592222
0.592221
0.59222
0.59222
0.592219
0.592218
0.592218
0.592217
0.592216
0.592215
0.592214
0.592213
0.592213
0.592212
0.592211
0.592209
0.592208
0.592207
0.592206
0.592205
0.592203
0.592202
0.592201
0.5922
0.592199
0.592198
0.592197
0.592196
0.592195
0.592195
0.592195
0.592194
0.592194
0.592194
0.592194
0.592194
0.592193
0.592193
0.592193
0.592193
0.592193
0.592194
0.592194
0.592195
0.592195
0.592196
0.592196
0.588608
0.588595
0.588645
0.588743
0.588887
0.58903
0.589216
0.589345
0.589475
0.589444
0.588982
0.588956
0.58898
0.589042
0.589147
0.589249
0.58939
0.589496
0.589602
0.589607
0.589327
0.589288
0.58929
0.589324
0.589393
0.589464
0.589565
0.589652
0.589738
0.589766
0.58963
0.589586
0.589576
0.589593
0.589635
0.589689
0.589753
0.589827
0.589892
0.589924
0.589902
0.589855
0.589837
0.589843
0.589865
0.589907
0.58995
0.590006
0.590058
0.590086
0.590143
0.590097
0.590074
0.590071
0.590083
0.59011
0.590142
0.590181
0.590224
0.590248
0.590362
0.590318
0.590292
0.590283
0.590288
0.590304
0.590328
0.590355
0.590389
0.59041
0.590561
0.590518
0.590492
0.59048
0.590479
0.590488
0.590505
0.590525
0.590551
0.590569
0.590743
0.590703
0.590677
0.590663
0.590659
0.590663
0.590674
0.590689
0.59071
0.590726
0.59091
0.590873
0.590849
0.590833
0.590827
0.590828
0.590835
0.590846