# y+ ()       
# Time        	patch         	min           	max           	average       
3.000189707206846	cylinder	7.336281e+00	6.772986e+01	4.055386e+01
