# y+ ()       
# Time        	patch         	min           	max           	average       
2.0001652     	cylinder	4.298576e+00	6.467965e+01	3.859300e+01
