# y+ ()       
# Time        	patch         	min           	max           	average       
3.400221510896456	cylinder	4.267768e+00	7.577168e+01	4.201469e+01
