/*--------------------------------*- C++ -*----------------------------------*\
  =========                 |
  \\      /  F ield         | OpenFOAM: The Open Source CFD Toolbox
   \\    /   O peration     | Website:  https://openfoam.org
    \\  /    A nd           | Version:  8
     \\/     M anipulation  |
\*---------------------------------------------------------------------------*/
FoamFile
{
    version     2.0;
    format      ascii;
    class       surfaceScalarField;
    location    "1";
    object      phi;
}
// * * * * * * * * * * * * * * * * * * * * * * * * * * * * * * * * * * * * * //

dimensions      [1 0 -1 0 0 0 0];

internalField   nonuniform List<scalar> 
4780
(
-2.6246961e-09
-3.7273925e-05
-1.4835172e-16
-5.0629216e-10
-3.727863e-05
6.502661e-17
4.8494961e-11
-3.7277072e-05
2.8263484e-16
-9.3233969e-11
-3.7276375e-05
3.7286971e-16
-1.0365634e-15
-3.7276608e-05
2.5699684e-16
9.3230808e-11
-3.7276608e-05
3.285282e-16
-4.849959e-11
-3.7276375e-05
1.8914978e-17
5.0628548e-10
-3.7277072e-05
-7.2821865e-17
2.6246919e-09
-3.727863e-05
-2.8563133e-16
-3.7273925e-05
-4.31644e-16
-4.6845614e-09
-5.146358e-05
-2.0549565e-16
-1.0814127e-09
-5.147654e-05
5.3065826e-17
8.9982919e-11
-5.1472555e-05
3.2200709e-16
-1.9674149e-10
-5.1470397e-05
4.2076264e-16
-1.475107e-15
-5.1471114e-05
-1.3377888e-19
1.9673562e-10
-5.1471114e-05
2.5259865e-16
-8.9990099e-11
-5.1470397e-05
-5.8068167e-17
1.0814038e-09
-5.1472555e-05
-1.4195268e-16
4.684555e-09
-5.147654e-05
-5.6859597e-16
-5.146358e-05
-5.0818811e-16
-3.5364479e-09
-5.4788599e-05
-1.9454125e-16
-1.3930269e-09
-5.480722e-05
-3.2914948e-17
1.021637e-10
-5.4802585e-05
-4.7589471e-17
-2.5536145e-10
-5.4798572e-05
-3.0996491e-16
-9.4496525e-16
-5.4799901e-05
-6.1299912e-16
2.5535505e-10
-5.4799901e-05
-2.9599465e-16
-1.0217103e-10
-5.4798572e-05
-2.8284015e-16
1.3930186e-09
-5.4802585e-05
-8.0065003e-17
3.5364413e-09
-5.480722e-05
-4.7805657e-16
-5.4788599e-05
-6.243066e-16
-2.4113884e-09
-5.5339935e-05
-2.760707e-16
-1.5443864e-09
-5.5361826e-05
-9.4930307e-17
1.0403781e-10
-5.5357969e-05
3.1321894e-16
-2.8648628e-10
-5.5351911e-05
1.2345024e-17
-1.525412e-15
-5.5353917e-05
-6.2296104e-16
2.8648046e-10
-5.5353917e-05
-3.3371789e-16
-1.0404506e-10
-5.5351911e-05
-2.5901729e-16
1.5443773e-09
-5.5357969e-05
4.1658716e-17
2.4113817e-09
-5.5361826e-05
-5.0704258e-16
-5.5339935e-05
-4.1950396e-16
-1.7395131e-09
-5.5408382e-05
-2.4298098e-16
-1.610169e-09
-5.5432136e-05
-9.1686903e-17
1.0423499e-10
-5.5429859e-05
1.5767946e-16
-3.0273262e-10
-5.5421674e-05
2.4012704e-16
-1.9597879e-15
-5.542439e-05
-2.1200678e-16
3.0272713e-10
-5.542439e-05
-7.747913e-17
-1.0424243e-10
-5.5421674e-05
-1.6246058e-16
1.6101593e-09
-5.5429859e-05
-9.749616e-17
1.7395063e-09
-5.5432136e-05
-4.6984178e-16
-5.5408382e-05
-5.5819858e-16
-1.4233327e-09
-5.5413884e-05
-2.4494262e-16
-1.6335553e-09
-5.5438845e-05
3.1481185e-17
1.0633921e-10
-5.5438513e-05
-1.1945265e-16
-3.1161594e-10
-5.5428164e-05
-3.2847579e-16
-2.3045679e-15
-5.543161e-05
-2.2536299e-16
3.1161051e-10
-5.543161e-05
-2.3068641e-16
-1.0634681e-10
-5.5428164e-05
-3.5403345e-16
1.6335449e-09
-5.5438513e-05
-1.7611851e-16
1.4233255e-09
-5.5438845e-05
-6.8334761e-16
-5.5413884e-05
-4.4251132e-16
-1.2667443e-09
-5.5412985e-05
-4.1893013e-16
-1.6393329e-09
-5.5438835e-05
-1.2489958e-16
1.0889606e-10
-5.5440619e-05
-3.4091256e-16
-3.1741468e-10
-5.5428089e-05
-4.4074356e-17
-2.4454314e-15
-5.5432279e-05
2.7721067e-16
3.1740927e-10
-5.5432279e-05
-1.7277983e-16
-1.0890373e-10
-5.5428089e-05
-4.092684e-16
1.6393217e-09
-5.5440619e-05
-3.0287427e-16
1.2667366e-09
-5.5438835e-05
-5.3697848e-16
-5.5412985e-05
-5.4494808e-16
-1.1863838e-09
-5.5411602e-05
-2.1741397e-16
-1.6369923e-09
-5.5438182e-05
5.8818704e-17
1.1402157e-10
-5.5442162e-05
-4.7588591e-16
-3.2175286e-10
-5.5427439e-05
-1.2061214e-16
-2.6506139e-15
-5.5432387e-05
6.1569031e-16
3.2174735e-10
-5.5432387e-05
2.5608152e-17
-1.1402966e-10
-5.5427439e-05
-2.2025144e-16
1.6369812e-09
-5.5442162e-05
-2.1461343e-16
1.1863763e-09
-5.5438182e-05
-4.5453382e-16
-5.5411602e-05
-4.3936972e-16
-1.1391626e-09
-5.5410225e-05
-3.179883e-16
-1.6328261e-09
-5.5437445e-05
-5.6175753e-17
1.1758253e-10
-5.5443664e-05
-3.9182421e-16
-3.2582797e-10
-5.5426741e-05
6.9008324e-16
-2.6485844e-15
-5.5432459e-05
1.5705627e-15
3.2582253e-10
-5.5432459e-05
3.1353219e-16
-1.1759093e-10
-5.5426741e-05
5.4234036e-17
1.6328148e-09
-5.5443664e-05
-6.6944175e-16
1.1391551e-09
-5.5437445e-05
-4.6583048e-16
-5.5410225e-05
-5.9705695e-16
-1.084125e-09
-5.5408891e-05
-1.83827e-16
-1.6262035e-09
-5.5436648e-05
-1.0557436e-16
1.2488807e-10
-5.5445155e-05
-3.930554e-16
-3.2934615e-10
-5.542602e-05
-1.8502868e-16
-2.8242558e-15
-5.5432522e-05
7.1419773e-16
3.2934046e-10
-5.5432522e-05
2.8308046e-17
-1.2489659e-10
-5.542602e-05
-3.8797219e-16
1.6261921e-09
-5.5445155e-05
1.6490441e-16
1.0841175e-09
-5.5436648e-05
1.7683781e-16
-5.5408891e-05
-4.093483e-16
-1.0593074e-09
-5.5407585e-05
-3.7421852e-16
-1.620664e-09
-5.5435835e-05
-2.9335707e-16
1.2811644e-10
-5.5446647e-05
-2.7933175e-16
-3.3321553e-10
-5.5425295e-05
2.4921272e-17
-2.7466648e-15
-5.5432592e-05
9.0852455e-16
3.3320971e-10
-5.5432591e-05
-3.4221601e-17
-1.2812521e-10
-5.5425295e-05
-2.7873206e-16
1.6206526e-09
-5.5446647e-05
8.3315981e-17
1.0592999e-09
-5.5435835e-05
5.1184143e-16
-5.5407585e-05
-1.2707664e-16
-9.8949706e-10
-5.5406338e-05
-2.5824542e-16
-1.6123766e-09
-5.5434949e-05
-2.4232532e-16
1.3811428e-10
-5.5448129e-05
-3.2749851e-16
-3.3631806e-10
-5.5424545e-05
-3.6976434e-16
-2.8442773e-15
-5.5432653e-05
1.2716372e-16
3.3631199e-10
-5.5432653e-05
-2.385392e-16
-1.3812311e-10
-5.5424545e-05
-5.2965246e-16
1.6123654e-09
-5.5448129e-05
-3.0905251e-16
9.8948943e-10
-5.5434949e-05
7.0204088e-16
-5.5406338e-05
3.7320898e-16
-9.8217309e-10
-5.5405106e-05
-3.5680784e-16
-1.606713e-09
-5.5434068e-05
-5.8015489e-16
1.3984975e-10
-5.5449614e-05
-1.0253541e-16
-3.402429e-10
-5.5423797e-05
4.6021503e-17
-2.7725887e-15
-5.5432726e-05
7.6554872e-16
3.4023645e-10
-5.5432726e-05
8.6457715e-17
-1.3985862e-10
-5.5423797e-05
-2.1825318e-16
1.6067014e-09
-5.5449614e-05
-1.5389612e-16
9.821652e-10
-5.5434068e-05
6.7209656e-17
-5.5405106e-05
-1.8977405e-16
-8.8401941e-10
-5.5403955e-05
-4.7752282e-17
-1.5965508e-09
-5.5433083e-05
-6.5872735e-17
1.5402445e-10
-5.5451087e-05
-2.430486e-16
-3.4279187e-10
-5.5423016e-05
-4.3276946e-16
-2.8041793e-15
-5.5432784e-05
2.7785437e-16
3.427857e-10
-5.5432784e-05
-4.8675568e-17
-1.5403401e-10
-5.5423016e-05
-2.8342284e-16
1.596539e-09
-5.5451087e-05
-2.400843e-16
8.8401191e-10
-5.5433083e-05
-4.5606727e-16
-5.5403955e-05
-3.4850417e-16
-9.0567887e-10
-5.5402795e-05
-3.7644121e-16
-1.5914004e-09
-5.5432137e-05
-3.6727306e-16
1.5238399e-10
-5.5452566e-05
1.7432206e-16
-3.4697984e-10
-5.5422244e-05
-2.0871995e-16
-2.7703383e-15
-5.5432859e-05
1.0272347e-16
3.469741e-10
-5.5432859e-05
-3.2947972e-18
-1.5239464e-10
-5.5422244e-05
-3.959278e-16
1.5913884e-09
-5.5452566e-05
-1.1900478e-16
9.0567201e-10
-5.5432137e-05
-5.0239523e-16
-5.5402795e-05
-5.8468915e-16
-7.6207565e-10
-5.5401753e-05
-6.5940742e-17
-1.5786148e-09
-5.5431035e-05
-2.5027591e-17
1.733681e-10
-5.5454027e-05
4.7709767e-16
-3.4866549e-10
-5.5421424e-05
6.8965423e-16
-2.7234897e-15
-5.543291e-05
9.5551241e-16
3.4865946e-10
-5.543291e-05
6.3339122e-16
-1.7337802e-10
-5.5421424e-05
4.5698497e-16
1.5786025e-09
-5.5454027e-05
-1.3058667e-16
7.6206778e-10
-5.5431035e-05
-9.5283449e-16
-5.5401753e-05
-8.5410525e-16
-8.3372407e-10
-5.5400661e-05
-1.6679797e-16
-1.5749274e-09
-5.5430031e-05
-5.1548145e-16
1.6506072e-10
-5.5455498e-05
-2.9415982e-16
-3.5348049e-10
-5.542063e-05
-1.3364594e-15
-2.9145539e-15
-5.5432989e-05
-3.9264974e-16
3.5347407e-10
-5.5432989e-05
-6.0687777e-16
-1.650702e-10
-5.542063e-05
-5.6209387e-16
1.574915e-09
-5.5455498e-05
-1.624165e-17
8.3371552e-10
-5.5430031e-05
-7.0529442e-16
-5.5400661e-05
-5.237902e-16
-6.1721553e-10
-5.5399749e-05
8.4573723e-16
-1.5582893e-09
-5.5428789e-05
5.4904103e-16
1.9731179e-10
-5.5456948e-05
3.8065925e-16
-3.5377192e-10
-5.5419766e-05
-2.1214205e-16
-2.8254868e-15
-5.5433029e-05
-7.9784595e-17
3.5376559e-10
-5.5433029e-05
6.9429373e-18
-1.9732202e-10
-5.5419766e-05
-4.4512472e-16
1.5582761e-09
-5.5456948e-05
-2.7228965e-16
6.1720742e-10
-5.5428789e-05
-3.8697083e-16
-5.5399749e-05
-7.2805319e-16
-7.727945e-10
-5.5398719e-05
5.6145136e-16
-1.5575872e-09
-5.5427741e-05
3.5268008e-16
1.7673855e-10
-5.5458414e-05
-4.3612825e-16
-3.5985077e-10
-5.5418955e-05
-2.1175542e-15
-3.0718575e-15
-5.5433114e-05
-1.3005624e-15
3.5984402e-10
-5.5433115e-05
-1.0661866e-15
-1.7675009e-10
-5.5418955e-05
-1.2217946e-15
1.557575e-09
-5.5458414e-05
-1.275824e-16
7.7278764e-10
-5.5427741e-05
-4.047756e-16
-5.5398719e-05
-5.3657896e-16
-4.4033425e-10
-5.5397965e-05
7.2857098e-16
-1.5351536e-09
-5.5426327e-05
5.2081951e-16
2.2760439e-10
-5.5459853e-05
6.3443672e-16
-3.5786699e-10
-5.5418038e-05
1.2480145e-15
-2.9150804e-15
-5.5433141e-05
1.02173e-15
3.5786046e-10
-5.5433141e-05
7.6130295e-16
-2.2761562e-10
-5.5418038e-05
8.3255326e-16
1.5351406e-09
-5.5459853e-05
-4.4542503e-16
4.4032658e-10
-5.5426327e-05
8.6949667e-17
-5.5397965e-05
1.2651763e-17
-7.3240784e-10
-5.5396981e-05
5.4221459e-16
-1.5398219e-09
-5.5425263e-05
4.5319109e-16
1.8558626e-10
-5.5461316e-05
-2.4744658e-16
-3.6628018e-10
-5.5417217e-05
-7.6929545e-17
-3.1914528e-15
-5.5433238e-05
-8.751094e-17
3.6627345e-10
-5.5433238e-05
8.6339611e-17
-1.8559776e-10
-5.5417217e-05
-4.351354e-17
1.5398093e-09
-5.5461316e-05
-7.0602364e-16
7.3240061e-10
-5.5425263e-05
-3.5052548e-16
-5.5396981e-05
5.5036056e-17
-2.1923224e-10
-5.5396426e-05
-1.5955565e-16
-1.5086065e-09
-5.5423632e-05
-4.2679694e-16
2.6680383e-10
-5.5462745e-05
1.7071514e-16
-3.6059338e-10
-5.5416235e-05
9.3071128e-16
-3.1508999e-15
-5.5433245e-05
9.7724748e-16
3.6058678e-10
-5.5433245e-05
1.0720125e-15
-2.6681557e-10
-5.5416235e-05
1.6443989e-15
1.5085936e-09
-5.5462745e-05
2.798041e-16
2.1922461e-10
-5.5423631e-05
-7.2608267e-16
-5.5396426e-05
-6.3083019e-16
-7.2575062e-10
-5.5395458e-05
-2.3758348e-17
-1.522258e-09
-5.5422589e-05
-4.7988949e-16
1.8883865e-10
-5.5464204e-05
-3.7423422e-16
-3.730651e-10
-5.5415415e-05
-2.3698766e-16
-3.4996422e-15
-5.5433359e-05
3.6274387e-16
3.7305819e-10
-5.5433359e-05
6.5276911e-16
-1.8884936e-10
-5.5415415e-05
1.3241391e-15
1.5222445e-09
-5.5464204e-05
2.9020142e-16
7.2574241e-10
-5.5422589e-05
-3.6194796e-16
-5.5395458e-05
-2.3503109e-17
6.1493563e-11
-5.5395155e-05
-8.050217e-17
-1.4777907e-09
-5.5420679e-05
-5.5674849e-16
3.1848754e-10
-5.5465625e-05
5.9343858e-16
-3.6145148e-10
-5.5414352e-05
9.3348157e-16
-3.2132523e-15
-5.5433338e-05
2.3966451e-16
3.6144472e-10
-5.5433338e-05
7.8590997e-16
-3.1849824e-10
-5.5414352e-05
7.6167792e-16
1.4777766e-09
-5.5465625e-05
2.1958599e-16
-6.1503253e-11
-5.5420679e-05
-3.7123064e-16
-5.5395155e-05
-5.2586684e-16
-7.7015072e-10
-5.5394161e-05
-5.1993628e-17
-1.5057391e-09
-5.5419714e-05
-4.0269985e-16
1.8254293e-10
-5.5467078e-05
2.2800374e-16
-3.8062582e-10
-5.5413549e-05
7.8830609e-16
-3.4002962e-15
-5.5433477e-05
4.4087495e-16
3.8061863e-10
-5.5433477e-05
9.6448714e-16
-1.8255341e-10
-5.5413549e-05
4.0151663e-16
1.505725e-09
-5.5467078e-05
-3.442479e-16
7.7014186e-10
-5.5419714e-05
7.2408642e-17
-5.5394161e-05
4.1466411e-16
4.3121571e-10
-5.539419e-05
2.3802487e-16
-1.4415295e-09
-5.5417433e-05
-4.3345491e-16
3.8745368e-10
-5.5468495e-05
-1.5270249e-16
-3.5975781e-10
-5.5412382e-05
-1.0140169e-15
-3.4021986e-15
-5.5433418e-05
-8.3565405e-16
3.5975065e-10
-5.5433418e-05
-1.5403049e-16
-3.8746482e-10
-5.5412382e-05
-4.5958798e-16
1.4415144e-09
-5.5468495e-05
-4.3972911e-16
-4.3122474e-10
-5.5417433e-05
4.1638208e-16
-5.539419e-05
1.5132823e-16
-8.8718638e-10
-5.5393104e-05
-1.2494839e-16
-1.4914038e-09
-5.5416626e-05
-2.7611329e-16
1.6119968e-10
-5.5469938e-05
-2.8533216e-16
-3.8949709e-10
-5.5411617e-05
-3.8528721e-16
-3.6077695e-15
-5.5433592e-05
-4.3259398e-16
3.8948958e-10
-5.5433592e-05
5.0743217e-16
-1.612108e-10
-5.5411617e-05
-3.7098317e-16
1.491389e-09
-5.5469938e-05
-5.683146e-16
8.8717779e-10
-5.5416626e-05
-6.9365597e-16
-5.5393104e-05
-4.673799e-16
9.082018e-10
-5.5393564e-05
5.177369e-16
-1.3982284e-09
-5.5413865e-05
7.0126559e-16
4.798504e-10
-5.5471358e-05
-3.0781786e-16
-3.5461854e-10
-5.5410317e-05
-4.2313969e-16
-3.3900678e-15
-5.5433481e-05
-6.6879755e-16
3.5461115e-10
-5.5433481e-05
1.447097e-16
-4.798615e-10
-5.5410317e-05
-4.795617e-16
1.3982137e-09
-5.5471358e-05
-4.2243232e-16
-9.0821173e-10
-5.5413865e-05
-2.4945992e-16
-5.5393564e-05
1.2902329e-16
-1.1032368e-09
-5.5392297e-05
5.6451771e-16
-1.4811081e-09
-5.5413319e-05
3.0324011e-16
1.1917952e-10
-5.5472785e-05
-7.9926472e-16
-4.0054835e-10
-5.5409619e-05
-5.9402435e-17
-3.8893348e-15
-5.5433702e-05
8.276652e-17
4.0054056e-10
-5.5433702e-05
1.111745e-15
-1.191899e-10
-5.5409619e-05
-3.4468136e-16
1.4810943e-09
-5.5472785e-05
-1.4296603e-15
1.1032269e-09
-5.5413319e-05
-5.4444998e-16
-5.5392297e-05
-5.6964988e-16
1.5258123e-09
-5.5393318e-05
-4.0104421e-16
-1.3457756e-09
-5.5409935e-05
-2.3781526e-16
6.0327608e-10
-5.5474218e-05
3.3735862e-16
-3.449059e-10
-5.5408148e-05
1.6695472e-15
-3.627506e-15
-5.5433525e-05
1.3133593e-15
3.4489824e-10
-5.5433524e-05
1.3957315e-15
-6.0328682e-10
-5.5408148e-05
9.5812942e-16
1.3457614e-09
-5.5474219e-05
-1.0207384e-16
-1.5258228e-09
-5.5409935e-05
1.3877961e-15
-5.5393318e-05
1.0492971e-15
-1.4500188e-09
-5.5391751e-05
5.9950769e-17
-1.4771899e-09
-5.5409789e-05
-4.4088559e-16
5.09283e-11
-5.547562e-05
-4.4052843e-16
-4.1504295e-10
-5.5407552e-05
4.2266653e-16
-4.0889851e-15
-5.5433808e-05
4.2929108e-16
4.1503472e-10
-5.5433808e-05
3.8565293e-16
-5.0938923e-11
-5.5407552e-05
-5.6388819e-16
1.4771756e-09
-5.547562e-05
3.8587662e-16
1.4500091e-09
-5.5409789e-05
2.1578831e-15
-5.5391751e-05
6.0529584e-16
2.3217812e-09
-5.5393499e-05
-5.4266299e-16
-1.2814158e-09
-5.5405604e-05
-5.5836015e-16
7.6684005e-10
-5.5477084e-05
1.7458878e-15
-3.2923797e-10
-5.5405865e-05
2.3537339e-15
-3.3383359e-15
-5.5433547e-05
1.1868129e-15
3.2922983e-10
-5.5433547e-05
1.0506737e-15
-7.6685169e-10
-5.5405865e-05
9.7536395e-16
1.2814005e-09
-5.5477084e-05
4.3969141e-16
-2.3217915e-09
-5.5405604e-05
1.3243213e-15
-5.5393499e-05
1.0344195e-15
-1.9653176e-09
-5.5391478e-05
-5.654969e-17
-1.4825992e-09
-5.5406029e-05
-5.1696063e-16
-5.5465135e-11
-5.5478446e-05
1.4776118e-15
-4.3429825e-10
-5.5405419e-05
9.8359441e-17
-3.834086e-15
-5.5433912e-05
-1.8412605e-15
4.342901e-10
-5.5433912e-05
-9.8939184e-16
5.5452899e-11
-5.5405419e-05
-1.9516602e-15
1.4825841e-09
-5.5478446e-05
-1.8035653e-15
1.9653072e-09
-5.5406029e-05
-1.9854405e-15
-5.5391478e-05
-8.9614734e-16
3.3406687e-09
-5.5394162e-05
-5.7290032e-16
-1.2016075e-09
-5.5400821e-05
-7.3131788e-16
9.8121768e-10
-5.5479962e-05
7.331532e-16
-3.0595157e-10
-5.5403458e-05
7.4759161e-16
-3.5103037e-15
-5.5433544e-05
5.9679226e-16
3.0594291e-10
-5.5433544e-05
4.8681236e-16
-9.8123004e-10
-5.5403458e-05
1.2987684e-15
1.2015915e-09
-5.5479962e-05
8.2716091e-16
-3.3406791e-09
-5.5400821e-05
3.0465108e-16
-5.5394162e-05
2.0474286e-16
-2.6940054e-09
-5.5391487e-05
-4.4518374e-16
-1.5009981e-09
-5.5402032e-05
-2.9763556e-16
-2.1677222e-10
-5.5481256e-05
1.2856169e-15
-4.5981839e-10
-5.5403225e-05
-2.7733054e-16
-3.9781241e-15
-5.5434012e-05
-2.1550149e-15
4.5981003e-10
-5.5434012e-05
-1.4372359e-15
2.1676012e-10
-5.5403225e-05
-1.9177592e-15
1.5009825e-09
-5.5481256e-05
-2.6922665e-15
2.6939947e-09
-5.5402032e-05
-2.5023863e-15
-5.5391487e-05
-1.1664167e-15
4.6352112e-09
-5.5395368e-05
-3.6402557e-16
-1.1018607e-09
-5.5395531e-05
-8.3552241e-16
1.2587023e-09
-5.5482852e-05
4.1961272e-15
-2.7305782e-10
-5.5400921e-05
4.5780471e-15
-3.2127741e-15
-5.5433514e-05
1.7014552e-15
2.7304908e-10
-5.5433514e-05
1.0874e-15
-1.2587151e-09
-5.5400921e-05
3.2242722e-15
1.101844e-09
-5.5482852e-05
1.9537068e-15
-4.6352221e-09
-5.539553e-05
2.1681817e-16
-5.5395368e-05
4.5371965e-16
-3.6892991e-09
-5.5391789e-05
-5.1357873e-16
-1.5368236e-09
-5.5397794e-05
-4.6050837e-16
-4.4012851e-10
-5.5484049e-05
-2.5111897e-16
-4.9328572e-10
-5.5400971e-05
-6.8581557e-16
-4.5185498e-15
-5.5434107e-05
-1.0649357e-15
4.932768e-10
-5.5434107e-05
-4.9496998e-16
4.4011634e-10
-5.5400971e-05
5.5366286e-16
1.536808e-09
-5.548405e-05
-7.308678e-16
3.6892885e-09
-5.5397794e-05
-2.571164e-15
-5.5391789e-05
-1.0027306e-15
6.2678059e-09
-5.5397188e-05
-1.2463218e-16
-9.7651109e-10
-5.5389669e-05
-5.384558e-16
1.6132605e-09
-5.548576e-05
3.3146809e-15
-2.2814386e-10
-5.5398243e-05
3.365921e-15
-3.2588459e-15
-5.5433451e-05
1.324174e-15
2.2813501e-10
-5.5433451e-05
7.3508695e-16
-1.6132734e-09
-5.5398243e-05
2.0433875e-15
9.7649367e-10
-5.548576e-05
3.0001626e-15
-6.2678173e-09
-5.5389669e-05
6.7091408e-16
-5.5397188e-05
4.0511768e-16
-5.0142382e-09
-5.5392392e-05
-2.8118118e-16
-1.5953539e-09
-5.5393308e-05
-3.4155859e-16
-7.4108455e-10
-5.5486824e-05
9.3722234e-16
-5.3656015e-10
-5.5398662e-05
1.6807564e-15
-4.7146277e-15
-5.5434197e-05
-3.7856578e-16
5.3655113e-10
-5.5434197e-05
-4.7153092e-16
7.4107222e-10
-5.5398662e-05
1.5068105e-15
1.5953379e-09
-5.5486824e-05
1.0850052e-15
5.0142273e-09
-5.5393308e-05
-1.1442787e-15
-5.5392392e-05
-1.1686711e-15
8.312178e-09
-5.5399704e-05
-4.3238328e-16
-8.1837196e-10
-5.5383164e-05
-6.6977833e-16
2.0605819e-09
-5.5488693e-05
1.7308847e-15
-1.6811096e-10
-5.5395415e-05
1.2667454e-15
-3.384722e-15
-5.543335e-05
1.0621471e-15
1.6810136e-10
-5.543335e-05
1.3189133e-15
-2.060595e-09
-5.5395415e-05
1.4785886e-15
8.1835412e-10
-5.5488693e-05
9.5411131e-16
-8.3121896e-09
-5.5383164e-05
5.1136091e-17
-5.5399704e-05
2.5132278e-16
-6.7433409e-09
-5.5393306e-05
-5.4123723e-16
-1.6827876e-09
-5.5388574e-05
-4.750299e-16
-1.1363715e-09
-5.5489575e-05
1.8912866e-15
-5.9169175e-10
-5.5396303e-05
3.3718053e-15
-4.6950109e-15
-5.5434281e-05
5.3625028e-16
5.9168291e-10
-5.5434281e-05
5.7530245e-16
1.1363586e-09
-5.5396303e-05
1.9404199e-15
1.6827709e-09
-5.5489575e-05
5.0459924e-16
6.7433299e-09
-5.5388574e-05
-1.7685319e-15
-5.5393306e-05
-1.6987868e-15
1.0855265e-08
-5.5403012e-05
-6.8838634e-16
-6.1800585e-10
-5.5375936e-05
-7.1593221e-16
2.6181125e-09
-5.5491652e-05
-1.4396498e-15
-8.8089839e-11
-5.5392429e-05
-2.6018714e-15
-3.483624e-15
-5.5433205e-05
-3.3717306e-16
8.8079078e-11
-5.5433205e-05
-7.0229e-17
-2.6181263e-09
-5.5392429e-05
-1.1359084e-15
6.1798729e-10
-5.5491652e-05
7.5873863e-16
-1.0855277e-08
-5.5375936e-05
1.3965148e-15
-5.5403012e-05
5.6561418e-16
-8.964475e-09
-5.539454e-05
-2.2102777e-16
-1.8063395e-09
-5.5383592e-05
1.7677964e-16
-1.6445091e-09
-5.5492297e-05
1.5365209e-15
-6.6093193e-10
-5.5393907e-05
1.6072158e-15
-4.8634218e-15
-5.5434355e-05
-2.1586578e-16
6.6092268e-10
-5.5434355e-05
1.1816831e-16
1.6444956e-09
-5.5393907e-05
-1.028613e-16
1.8063224e-09
-5.5492297e-05
1.1335526e-15
8.9644636e-09
-5.5383592e-05
-4.1171753e-16
-5.539454e-05
-1.4922771e-15
1.3999347e-08
-5.5407222e-05
1.746309e-15
-3.6135749e-10
-5.5367897e-05
1.4103327e-15
3.3050604e-09
-5.5494636e-05
1.7056772e-15
1.7913577e-11
-5.5389283e-05
8.9212884e-16
-3.0432055e-15
-5.5433004e-05
-7.5954529e-16
-1.7920656e-11
-5.5433004e-05
-1.3356532e-16
-3.3050745e-09
-5.5389283e-05
-1.2833559e-15
3.6133774e-10
-5.5494636e-05
-1.1228501e-15
-1.3999359e-08
-5.5367896e-05
5.2940748e-16
-5.5407222e-05
1.6352719e-15
-1.1780981e-08
-5.5396101e-05
-1.6975092e-15
-1.9743513e-09
-5.5378371e-05
-2.1820592e-15
-2.2858976e-09
-5.5494976e-05
-2.1656743e-15
-7.4675044e-10
-5.5391487e-05
-1.7004224e-15
-5.7595679e-15
-5.5434411e-05
-5.1924274e-16
7.4674072e-10
-5.5434411e-05
-2.6762375e-16
2.2858832e-09
-5.5391487e-05
-2.5755193e-16
1.9743344e-09
-5.5494976e-05
4.4109657e-16
1.178097e-08
-5.5378371e-05
4.026185e-16
-5.5396101e-05
-1.4777252e-16
1.7864481e-08
-5.541246e-05
8.5567884e-16
-4.9470495e-12
-5.5358976e-05
8.5960961e-16
4.1423562e-09
-5.5497608e-05
3.1024359e-15
1.1682572e-10
-5.5385935e-05
1.8417388e-15
-2.7018719e-15
-5.5432773e-05
-4.4607925e-16
-1.1683445e-10
-5.5432773e-05
-3.0629979e-16
-4.1423712e-09
-5.5385935e-05
-1.5106593e-15
4.9285881e-12
-5.5497608e-05
-8.5559164e-16
-1.7864493e-08
-5.5358976e-05
4.3890359e-16
-5.541246e-05
8.0767646e-16
-1.53141e-08
-5.5397996e-05
-2.3050327e-15
-2.1964032e-09
-5.5372954e-05
-2.3640832e-15
-3.0828105e-09
-5.5497563e-05
6.6621034e-16
-8.5184838e-10
-5.5389026e-05
7.4611515e-16
-5.8693875e-15
-5.5434478e-05
-9.7791307e-16
8.5183906e-10
-5.5434478e-05
-8.1036094e-16
3.0827955e-09
-5.5389026e-05
-6.6168007e-16
2.1963839e-09
-5.5497563e-05
-6.7983304e-16
1.5314089e-08
-5.5372954e-05
2.0651555e-15
-5.5397996e-05
1.9992763e-15
2.2591306e-08
-5.5418872e-05
9.6595649e-16
3.1122835e-10
-5.5348936e-05
6.8290566e-16
5.152555e-09
-5.5500679e-05
-3.6890217e-16
2.4362897e-10
-5.5382379e-05
-1.5198331e-15
-3.0539174e-15
-5.5432504e-05
-3.4995803e-16
-2.4363841e-10
-5.5432504e-05
2.0713571e-16
-5.1525705e-09
-5.5382379e-05
-1.3153883e-15
-3.11245e-10
-5.5500679e-05
-4.5538948e-16
-2.2591318e-08
-5.5348936e-05
1.1779538e-15
-5.5418872e-05
2.1359475e-15
-1.9705773e-08
-5.540023e-05
-2.4890892e-15
-2.4833841e-09
-5.5367235e-05
-2.1925056e-15
-4.0593185e-09
-5.5500158e-05
-8.6223264e-16
-9.7921131e-10
-5.5386535e-05
-1.036099e-15
-6.6736873e-15
-5.5434552e-05
-1.2632347e-15
9.7920229e-10
-5.5434552e-05
-9.8155902e-16
4.0593035e-09
-5.5386535e-05
-1.2142915e-15
2.4833652e-09
-5.5500158e-05
-6.0145447e-16
1.9705761e-08
-5.5367235e-05
4.463184e-16
-5.540023e-05
1.9017301e-15
2.8344294e-08
-5.5426628e-05
6.0142996e-16
7.2023336e-10
-5.5337638e-05
8.3992618e-16
6.3596515e-09
-5.550384e-05
6.4262115e-17
3.9792373e-10
-5.5378602e-05
-1.1589823e-15
-2.5336446e-15
-5.5432192e-05
-1.5441223e-16
-3.9793375e-10
-5.5432192e-05
5.3323295e-16
-6.3596672e-09
-5.5378602e-05
-2.5306933e-16
-7.2025077e-10
-5.550384e-05
4.9138045e-16
-2.8344306e-08
-5.5337638e-05
-1.0131187e-15
-5.5426628e-05
-1.1591975e-15
-2.5121888e-08
-5.5402806e-05
-2.7098763e-15
-2.8476364e-09
-5.536123e-05
-2.3308317e-15
-5.2411239e-09
-5.550274e-05
-1.1893708e-15
-1.1321048e-09
-5.5384028e-05
-1.6927008e-15
-7.3311201e-15
-5.5434633e-05
-1.6493347e-15
1.1320956e-09
-5.5434633e-05
-1.2509584e-15
5.2411088e-09
-5.5384028e-05
-1.3180293e-15
2.8476171e-09
-5.550274e-05
-6.8830023e-16
2.5121876e-08
-5.5361229e-05
6.6902928e-16
-5.5402806e-05
1.4846881e-15
3.531554e-08
-5.5435922e-05
4.4000801e-16
1.2231887e-09
-5.5324907e-05
1.3158924e-15
7.788785e-09
-5.5507094e-05
3.786855e-16
5.8247098e-10
-5.5374594e-05
-3.2360903e-16
-2.0173421e-15
-5.5431833e-05
3.8070627e-16
-5.8248152e-10
-5.5431833e-05
8.2300666e-16
-7.7888011e-09
-5.5374594e-05
-2.3519957e-16
-1.2232065e-09
-5.5507094e-05
1.0867359e-15
-3.5315553e-08
-5.5324907e-05
1.2117048e-15
-5.5435922e-05
1.2319797e-15
-3.1756075e-08
-5.5405727e-05
-2.9953188e-15
-3.3030273e-09
-5.5354942e-05
-2.4358056e-15
-6.655281e-09
-5.5505297e-05
-1.4376965e-15
-1.3140983e-09
-5.5381518e-05
-1.0075732e-15
-8.2376096e-15
-5.5434721e-05
-2.0271452e-15
1.3140886e-09
-5.5434721e-05
-1.4826858e-15
6.6552656e-09
-5.5381518e-05
-1.3021916e-15
3.3030089e-09
-5.5505297e-05
1.7716267e-15
3.1756063e-08
-5.5354942e-05
7.9818858e-16
-5.5405727e-05
-1.1279669e-15
4.3729225e-08
-5.5446981e-05
2.1056925e-15
1.8319173e-09
-5.5310535e-05
1.8408284e-15
9.4657943e-09
-5.5510444e-05
6.7297608e-16
8.0080227e-10
-5.5370345e-05
2.5823772e-16
-1.2369207e-15
-5.5431426e-05
1.9071135e-15
-8.0081313e-10
-5.5431426e-05
2.5087249e-15
-9.4658106e-09
-5.5370345e-05
1.0375948e-15
-1.8319376e-09
-5.5510444e-05
-8.7826768e-16
-4.3729238e-08
-5.5310535e-05
-1.3921274e-15
-5.5446981e-05
1.2825874e-15
-3.9834186e-08
-5.5408994e-05
-7.5770857e-16
-3.8649978e-09
-5.5348377e-05
2.6789736e-17
-8.3297731e-09
-5.5507821e-05
-1.7234938e-15
-1.5290848e-09
-5.537902e-05
1.5738667e-15
-9.2207412e-15
-5.5434818e-05
5.1706838e-17
1.5290747e-09
-5.5434818e-05
5.0727035e-16
8.3297569e-09
-5.537902e-05
5.0037016e-16
3.8649767e-09
-5.5507821e-05
1.5270471e-16
3.9834175e-08
-5.5348377e-05
3.3055651e-15
-5.5408994e-05
1.9076478e-15
5.3846911e-08
-5.5460068e-05
-2.3792981e-17
2.5619309e-09
-5.529428e-05
-6.6474652e-16
1.1416583e-08
-5.551389e-05
2.9492826e-15
1.0569229e-09
-5.536585e-05
1.0062549e-15
-4.6993901e-17
-5.5430966e-05
-3.9943008e-16
-1.0569349e-09
-5.5430966e-05
2.9866521e-16
-1.1416601e-08
-5.536585e-05
-4.9371008e-16
-2.5619512e-09
-5.551389e-05
-8.4568855e-16
-5.3846924e-08
-5.529428e-05
-2.3176471e-15
-5.5460068e-05
1.2526279e-15
-4.9619616e-08
-5.5412607e-05
-2.0219121e-15
-4.5505838e-09
-5.5341537e-05
-1.5711679e-15
-1.0292901e-08
-5.55103e-05
4.2767868e-15
-1.7812948e-09
-5.537655e-05
7.3555315e-15
-9.8919443e-15
-5.5434923e-05
-9.5969303e-16
1.7812842e-09
-5.5434923e-05
1.1517035e-15
1.0292884e-08
-5.537655e-05
9.540011e-16
4.5505629e-09
-5.55103e-05
-4.2857049e-16
4.9619603e-08
-5.5341537e-05
5.6945854e-16
-5.5412606e-05
2.8483997e-16
6.5973818e-08
-5.547549e-05
2.7477778e-16
3.4309639e-09
-5.5275859e-05
1.5148992e-16
1.3666242e-08
-5.5517432e-05
-2.4922295e-16
1.3552395e-09
-5.5361107e-05
1.4302366e-15
5.2538884e-16
-5.5430453e-05
2.5726164e-15
-1.3552518e-09
-5.5430453e-05
2.8206847e-15
-1.3666259e-08
-5.5361107e-05
2.7171469e-15
-3.4309822e-09
-5.5517432e-05
-3.0185175e-16
-6.5973831e-08
-5.5275859e-05
-3.8839034e-16
-5.547549e-05
3.3994813e-15
-6.1419584e-08
-5.541656e-05
-1.9794404e-15
-5.3783993e-09
-5.5334426e-05
-1.2384004e-15
-1.2572422e-08
-5.5512724e-05
-4.4960501e-17
-2.0753119e-09
-5.5374128e-05
3.3439128e-16
-1.1802514e-14
-5.5435039e-05
-3.3791579e-15
2.0753013e-09
-5.5435039e-05
-1.6690798e-15
1.2572405e-08
-5.5374128e-05
-2.1946411e-15
5.3783776e-09
-5.5512724e-05
-8.1263087e-16
6.1419572e-08
-5.5334426e-05
-2.5398877e-15
-5.541656e-05
-2.5005287e-15
8.0466282e-08
-5.54936e-05
1.2610327e-15
4.4585953e-09
-5.5254942e-05
6.8683369e-16
1.6237847e-08
-5.5521062e-05
-1.1463195e-15
1.7005416e-09
-5.5356117e-05
-1.0368372e-15
2.2299363e-15
-5.5429884e-05
1.8058579e-15
-1.7005531e-09
-5.5429884e-05
1.7586466e-15
-1.6237865e-08
-5.5356117e-05
1.5789798e-15
-4.4586141e-09
-5.5521062e-05
-2.868646e-16
-8.0466296e-08
-5.5254942e-05
-1.5175895e-15
-5.54936e-05
2.4650524e-15
-7.5592617e-08
-5.542085e-05
-1.9608489e-15
-6.36858e-09
-5.5327049e-05
-1.6651123e-15
-1.5194388e-08
-5.5515076e-05
-2.9781212e-16
-2.4160827e-09
-5.5371776e-05
-1.1109161e-15
-1.3977372e-14
-5.5435164e-05
-3.084001e-15
2.4160707e-09
-5.5435164e-05
-2.3305394e-15
1.5194369e-08
-5.5371776e-05
-2.273612e-15
6.3685572e-09
-5.5515076e-05
4.8130718e-16
7.5592605e-08
-5.5327049e-05
-2.4317689e-15
-5.542085e-05
-2.8887811e-15
9.7740682e-08
-5.5514813e-05
1.0546238e-15
5.6660631e-09
-5.5231143e-05
8.0954648e-16
1.915087e-08
-5.5524768e-05
-1.2996922e-15
2.0979894e-09
-5.5350892e-05
-3.2775949e-16
4.2145398e-15
-5.5429257e-05
2.9404802e-15
-2.098e-09
-5.5429257e-05
1.3246568e-15
-1.9150886e-08
-5.5350892e-05
8.6397151e-16
-5.6660812e-09
-5.5524768e-05
-5.481458e-16
-9.7740696e-08
-5.5231143e-05
-1.9554785e-15
-5.5514813e-05
1.8689554e-15
-9.2557529e-08
-5.5425467e-05
-1.0896986e-15
-7.5426886e-09
-5.5319414e-05
-1.8324253e-15
-1.8181572e-08
-5.5517337e-05
5.8300681e-16
-2.8089135e-09
-5.5369517e-05
-7.7707863e-16
-1.6683008e-14
-5.54353e-05
-3.2523784e-15
2.8088999e-09
-5.54353e-05
-1.1188438e-15
1.8181553e-08
-5.5369517e-05
-1.7329065e-15
7.5426643e-09
-5.5517337e-05
1.6815874e-15
9.2557516e-08
-5.5319414e-05
-3.5289931e-16
-5.5425467e-05
-1.5556594e-15
1.1828421e-07
-5.5539613e-05
6.7775371e-16
7.0761093e-09
-5.520401e-05
2.8057705e-16
2.2419046e-08
-5.5528526e-05
-2.0527648e-15
2.5531114e-09
-5.5345454e-05
-2.5509117e-16
6.9232071e-15
-5.5428572e-05
3.6623231e-15
-2.5531214e-09
-5.5428572e-05
1.3475288e-15
-2.2419062e-08
-5.5345454e-05
9.6908825e-16
-7.0761265e-09
-5.5528526e-05
2.5160062e-15
-1.1828423e-07
-5.520401e-05
5.1893444e-15
-5.5539613e-05
4.7583384e-15
-1.128043e-07
-5.5430399e-05
-5.7314504e-16
-8.9235718e-09
-5.5311531e-05
-1.3195156e-15
-2.1551403e-08
-5.5519485e-05
1.2990136e-15
-3.2594719e-09
-5.5367379e-05
-2.9909064e-16
-1.9871536e-14
-5.5435445e-05
-3.458404e-15
3.2594566e-09
-5.5435445e-05
-6.6104361e-16
2.1551383e-08
-5.5367379e-05
-1.4582805e-15
8.9235455e-09
-5.5519485e-05
-1.9467548e-15
1.1280429e-07
-5.5311531e-05
-7.1241286e-15
-5.5430399e-05
-4.6033569e-15
1.42668e-07
-5.5568567e-05
-8.1974728e-16
8.7128178e-09
-5.5173012e-05
-4.3586902e-17
2.604762e-08
-5.5532302e-05
-1.1163316e-15
3.0717916e-09
-5.5339837e-05
-5.4124451e-16
1.0334589e-14
-5.542783e-05
3.4928435e-15
-3.0717998e-09
-5.542783e-05
7.9555188e-16
-2.6047635e-08
-5.5339837e-05
1.6449739e-15
-8.7128333e-09
-5.5532302e-05
2.2997128e-15
-1.4266802e-07
-5.5173011e-05
6.6475281e-15
-5.5568567e-05
4.870106e-15
-1.3690735e-07
-5.5435632e-05
7.5075901e-18
-1.0535174e-08
-5.5303412e-05
-8.8431948e-16
-2.531324e-08
-5.5521494e-05
3.8869e-15
-3.7737729e-09
-5.5365395e-05
1.3963547e-15
-2.3675088e-14
-5.5435599e-05
-4.8255959e-15
3.7737535e-09
-5.5435599e-05
-8.7906641e-17
2.5313217e-08
-5.5365394e-05
-2.3650167e-15
1.0535145e-08
-5.5521494e-05
1.6360255e-15
1.3690733e-07
-5.5303411e-05
-1.4593326e-15
-5.5435632e-05
-1.6378991e-15
1.7156315e-07
-5.5602338e-05
-1.9306112e-15
1.0601416e-08
-5.5137524e-05
-1.3584295e-15
3.0029728e-08
-5.5536045e-05
6.6540399e-15
3.660248e-09
-5.5334096e-05
7.6486566e-15
1.5294109e-14
-5.5427034e-05
4.3118316e-15
-3.6602521e-09
-5.5427034e-05
1.3823675e-15
-3.002974e-08
-5.5334095e-05
2.2052953e-15
-1.0601429e-08
-5.5536045e-05
-1.4083502e-15
-1.7156316e-07
-5.5137524e-05
-1.7511945e-15
-5.5602338e-05
1.3014175e-16
-1.6554181e-07
-5.5441143e-05
1.186984e-15
-1.2402297e-08
-5.5295071e-05
1.3713197e-15
-2.9464836e-08
-5.5523328e-05
-3.9732804e-15
-4.358156e-09
-5.5363596e-05
-6.8206229e-15
-2.9555025e-14
-5.5435761e-05
-5.124276e-15
4.3581319e-09
-5.5435761e-05
-1.1153485e-15
2.9464809e-08
-5.5363596e-05
-2.1440475e-15
1.2402265e-08
-5.5523328e-05
1.7894504e-15
1.655418e-07
-5.5295071e-05
-3.9634591e-15
-5.5441143e-05
-1.2963846e-15
2.0576054e-07
-5.5641708e-05
-3.3295886e-15
1.2768041e-08
-5.509681e-05