/*--------------------------------*- C++ -*----------------------------------*\
  =========                 |
  \\      /  F ield         | OpenFOAM: The Open Source CFD Toolbox
   \\    /   O peration     | Website:  https://openfoam.org
    \\  /    A nd           | Version:  8
     \\/     M anipulation  |
\*---------------------------------------------------------------------------*/
FoamFile
{
    version     2.0;
    format      ascii;
    class       volVectorField;
    location    "1";
    object      U;
}
// * * * * * * * * * * * * * * * * * * * * * * * * * * * * * * * * * * * * * //

dimensions      [0 1 -1 0 0 0 0];

internalField   nonuniform List<vector> 
2000
(
(-3.1230814e-06 -0.00038840805 -6.3243584e-06)
(-5.7911171e-07 -0.00038840495 -6.3316996e-06)
(-1.24246e-07 -0.0003884125 -6.3316541e-06)
(1.8657029e-07 -0.0003884043 -6.3317363e-06)
(-3.1301919e-07 -0.00038840791 -6.3317032e-06)
(3.1301799e-07 -0.00038840791 -6.3317032e-06)
(-1.8657298e-07 -0.0003884043 -6.3317365e-06)
(1.2424215e-07 -0.0003884125 -6.3316541e-06)
(5.7910507e-07 -0.00038840495 -6.3316998e-06)
(3.1230806e-06 -0.00038840805 -6.3243586e-06)
(-5.3389949e-06 -0.00081036639 -1.0803914e-05)
(-1.2415329e-06 -0.0008105216 -1.0819256e-05)
(-2.682482e-07 -0.00081046427 -1.0819268e-05)
(3.8816222e-07 -0.0008104504 -1.0819269e-05)
(-6.5969567e-07 -0.00081045417 -1.0819273e-05)
(6.5969388e-07 -0.00081045417 -1.0819273e-05)
(-3.8816809e-07 -0.0008104504 -1.0819269e-05)
(2.6824379e-07 -0.00081046427 -1.0819268e-05)
(1.2415237e-06 -0.0008105216 -1.0819256e-05)
(5.3389939e-06 -0.00081036639 -1.0803914e-05)
(-3.3324386e-06 -0.00088399839 -6.8023276e-06)
(-1.5787265e-06 -0.00088426495 -6.8157429e-06)
(-3.4579169e-07 -0.00088419327 -6.8157478e-06)
(4.8097785e-07 -0.00088413507 -6.815744e-06)
(-8.3053253e-07 -0.00088415539 -6.8157504e-06)
(8.3053146e-07 -0.00088415539 -6.8157502e-06)
(-4.8098503e-07 -0.00088413506 -6.815744e-06)
(3.4578847e-07 -0.00088419327 -6.8157478e-06)
(1.5787172e-06 -0.00088426495 -6.8157429e-06)
(3.3324376e-06 -0.00088399839 -6.8023277e-06)
(-1.5828074e-06 -0.00091889837 -3.3279943e-06)
(-1.7220242e-06 -0.00091924988 -3.3363789e-06)
(-3.8340186e-07 -0.00091916631 -3.3364362e-06)
(5.1920216e-07 -0.00091909433 -3.3363945e-06)
(-9.0650082e-07 -0.00091911684 -3.3364186e-06)
(9.06499e-07 -0.00091911684 -3.3364184e-06)
(-5.1920768e-07 -0.00091909433 -3.3363945e-06)
(3.833972e-07 -0.00091916631 -3.3364364e-06)
(1.7220154e-06 -0.00091924988 -3.3363789e-06)
(1.5828059e-06 -0.00091889837 -3.3279943e-06)
(-5.8588538e-07 -0.00090464504 -1.3706888e-06)
(-1.7662146e-06 -0.00090500931 -1.3751059e-06)
(-3.9875437e-07 -0.00090496956 -1.3751049e-06)
(5.3289947e-07 -0.00090483869 -1.375108e-06)
(-9.3670238e-07 -0.00090488375 -1.3751114e-06)
(9.3670004e-07 -0.00090488375 -1.3751113e-06)
(-5.3290389e-07 -0.00090483869 -1.3751082e-06)
(3.9874851e-07 -0.00090496956 -1.375105e-06)
(1.7662062e-06 -0.00090500931 -1.3751059e-06)
(5.8588341e-07 -0.00090464504 -1.370689e-06)
(-1.3692467e-07 -0.00091967469 -5.3148903e-07)
(-1.7618223e-06 -0.0009200997 -5.3343667e-07)
(-4.0391327e-07 -0.0009200599 -5.3351182e-07)
(5.3884444e-07 -0.00091992528 -5.3344683e-07)
(-9.4874292e-07 -0.00091996778 -5.3348111e-07)
(9.4874017e-07 -0.00091996778 -5.3348117e-07)
(-5.3884826e-07 -0.00091992528 -5.3344693e-07)
(4.0390675e-07 -0.0009200599 -5.3351184e-07)
(1.761814e-06 -0.0009200997 -5.3343683e-07)
(1.3692233e-07 -0.00091967469 -5.3148908e-07)
(7.227219e-08 -0.00090551201 -1.7115282e-07)
(-1.7390684e-06 -0.00090590062 -1.7208308e-07)
(-4.0412573e-07 -0.000905936 -1.7205587e-07)
(5.4049444e-07 -0.00090572363 -1.7208222e-07)
(-9.5228565e-07 -0.00090579742 -1.7207453e-07)
(9.5228277e-07 -0.00090579742 -1.7207473e-07)
(-5.4049799e-07 -0.00090572363 -1.7208232e-07)
(4.0411898e-07 -0.000905936 -1.7205587e-07)
(1.7390593e-06 -0.00090590062 -1.7208317e-07)
(-7.2274245e-08 -0.00090551201 -1.7115284e-07)
(1.6720074e-07 -0.00091973609 -5.6056678e-08)
(-1.7071052e-06 -0.00092021 -5.6307061e-08)
(-4.0290279e-07 -0.00092022529 -5.6414518e-08)
(5.437766e-07 -0.00092003265 -5.6315271e-08)
(-9.5531084e-07 -0.00092009333 -5.6364776e-08)
(9.5530774e-07 -0.00092009333 -5.6364995e-08)
(-5.4377995e-07 -0.00092003265 -5.6315328e-08)
(4.0289543e-07 -0.00092022529 -5.6414361e-08)
(1.7070971e-06 -0.00092021 -5.6307149e-08)
(-1.6720349e-07 -0.00091973609 -5.6056745e-08)
(2.1665151e-07 -0.00090454949 -1.7984304e-08)
(-1.6747807e-06 -0.00090493682 -1.8249002e-08)
(-4.0066735e-07 -0.00090506378 -1.8178736e-08)
(5.4412794e-07 -0.00090476079 -1.8246891e-08)
(-9.5516773e-07 -0.00090486795 -1.8219789e-08)
(9.5516469e-07 -0.00090486795 -1.8220227e-08)
(-5.4413113e-07 -0.00090476079 -1.8247102e-08)
(4.0065957e-07 -0.00090506378 -1.8178841e-08)
(1.674773e-06 -0.00090493682 -1.8249085e-08)
(-2.1665442e-07 -0.00090454949 -1.7984268e-08)
(2.701021e-07 -0.00092152409 5.2761407e-09)
(-1.6391155e-06 -0.00092205176 5.4350985e-09)
(-3.9862906e-07 -0.00092211561 5.2706564e-09)
(5.4895778e-07 -0.00092187477 5.4258086e-09)
(-9.585037e-07 -0.00092194969 5.3508056e-09)
(9.5850048e-07 -0.00092194969 5.3505646e-09)
(-5.4896101e-07 -0.00092187477 5.4258107e-09)
(3.9862135e-07 -0.00092211561 5.2708185e-09)
(1.6391078e-06 -0.00092205176 5.4352057e-09)
(-2.7010494e-07 -0.00092152409 5.2761654e-09)
(2.8785455e-07 -0.00090161275 -1.4857854e-08)
(-1.6067819e-06 -0.0009019755 -1.50261e-08)
(-3.9604089e-07 -0.00090221069 -1.4882964e-08)
(5.483907e-07 -0.00090180303 -1.5022722e-08)
(-9.5714741e-07 -0.00090195059 -1.4962928e-08)
(9.5714432e-07 -0.00090195059 -1.4963227e-08)
(-5.483941e-07 -0.00090180303 -1.5022787e-08)
(3.9603316e-07 -0.00090221069 -1.4882877e-08)
(1.6067743e-06 -0.0009019755 -1.5025838e-08)
(-2.8785741e-07 -0.00090161275 -1.4857629e-08)
(3.5425582e-07 -0.00092563498 2.2562384e-08)
(-1.5700516e-06 -0.00092623333 2.2997738e-08)
(-3.9400837e-07 -0.00092633037 2.273713e-08)
(5.5598644e-07 -0.00092605797 2.2985615e-08)
(-9.6254666e-07 -0.0009261401 2.2867704e-08)
(9.625435e-07 -0.0009261401 2.2867613e-08)
(-5.5598997e-07 -0.00092605797 2.2985549e-08)
(3.9400085e-07 -0.00092633037 2.2737095e-08)
(1.5700443e-06 -0.00092623333 2.2997945e-08)
(-3.5425894e-07 -0.00092563498 2.2562685e-08)
(3.4976288e-07 -0.00089588861 -3.0433915e-08)
(-1.5392954e-06 -0.00089619321 -3.0625817e-08)
(-3.9123538e-07 -0.00089656166 -3.036069e-08)
(5.5334968e-07 -0.00089602682 -3.0618973e-08)
(-9.5922731e-07 -0.00089622568 -3.0505102e-08)
(9.5922428e-07 -0.00089622568 -3.0505295e-08)
(-5.5335366e-07 -0.00089602682 -3.0619128e-08)
(3.9122838e-07 -0.00089656166 -3.0360697e-08)
(1.5392873e-06 -0.00089619321 -3.0625617e-08)
(-3.4976534e-07 -0.00089588861 -3.0433821e-08)
(4.4379486e-07 -0.00093315134 4.2693541e-08)
(-1.5009777e-06 -0.00093385088 4.3471419e-08)
(-3.8940654e-07 -0.00093395477 4.3053374e-08)
(5.6538239e-07 -0.00093367792 4.3454054e-08)
(-9.6816665e-07 -0.0009337554 4.3266496e-08)
(9.6816361e-07 -0.0009337554 4.3266381e-08)
(-5.6538592e-07 -0.00093367792 4.3454097e-08)
(3.893984e-07 -0.00093395477 4.3053373e-08)
(1.5009707e-06 -0.00093385088 4.3471381e-08)
(-4.4379782e-07 -0.00093315133 4.269354e-08)
(4.0593908e-07 -0.00088598706 -5.5326245e-08)
(-1.4728738e-06 -0.00088618304 -5.5641899e-08)
(-3.8634733e-07 -0.00088672333 -5.5179196e-08)
(5.5857339e-07 -0.00088602586 -5.5629009e-08)
(-9.6112511e-07 -0.00088629292 -5.5427576e-08)
(9.6112215e-07 -0.00088629292 -5.5427629e-08)
(-5.5857637e-07 -0.00088602586 -5.5628995e-08)
(3.863375e-07 -0.00088672333 -5.5179367e-08)
(1.4728685e-06 -0.00088618304 -5.5641891e-08)
(-4.0594281e-07 -0.00088598706 -5.532629e-08)
(5.4421737e-07 -0.00094581725 7.3305609e-08)
(-1.431703e-06 -0.00094666814 7.4548052e-08)
(-3.8494345e-07 -0.00094673643 7.3880451e-08)
(5.7786513e-07 -0.00094649772 7.4522281e-08)
(-9.7600195e-07 -0.0009465516 7.4224013e-08)
(9.759991e-07 -0.0009465516 7.4224003e-08)
(-5.7786846e-07 -0.00094649772 7.4522201e-08)
(3.8493501e-07 -0.00094673643 7.3880254e-08)
(1.431696e-06 -0.00094666814 7.4547846e-08)
(-5.4422051e-07 -0.00094581725 7.3305358e-08)
(4.5264871e-07 -0.00086976003 -9.3554919e-08)
(-1.4078725e-06 -0.00086977275 -9.4136596e-08)
(-3.8137409e-07 -0.00087054304 -9.3365713e-08)
(5.6330787e-07 -0.00086962897 -9.4112978e-08)
(-9.6221678e-07 -0.00086998964 -9.3775067e-08)
(9.6221376e-07 -0.00086998964 -9.3775157e-08)
(-5.6331139e-07 -0.00086962897 -9.4112853e-08)
(3.8136644e-07 -0.00087054304 -9.3365625e-08)
(1.4078649e-06 -0.00086977275 -9.4136614e-08)
(-4.5265187e-07 -0.00086976003 -9.3555063e-08)
(6.6106364e-07 -0.00096623821 1.2021415e-07)
(-1.3618078e-06 -0.00096731795 1.2209544e-07)
(-3.8075965e-07 -0.00096728569 1.2104674e-07)
(5.9454257e-07 -0.00096714922 1.2205507e-07)
(-9.8700662e-07 -0.00096715063 1.2158849e-07)
(9.8700374e-07 -0.00096715063 1.2158855e-07)
(-5.9454606e-07 -0.00096714922 1.2205503e-07)
(3.807513e-07 -0.00096728569 1.2104652e-07)
(1.3618002e-06 -0.00096731795 1.2209513e-07)
(-6.6106615e-07 -0.00096623821 1.2021357e-07)
(4.839277e-07 -0.00084409398 -1.5151502e-07)
(-1.3447819e-06 -0.00084381641 -1.5255971e-07)
(-3.762827e-07 -0.00084490116 -1.5132841e-07)
(5.6634287e-07 -0.00084369172 -1.5251887e-07)
(-9.614847e-07 -0.00084418287 -1.5197756e-07)
(9.6148161e-07 -0.00084418287 -1.5197753e-07)
(-5.6634648e-07 -0.00084369172 -1.5251865e-07)
(3.7627313e-07 -0.00084490116 -1.5132826e-07)
(1.344777e-06 -0.00084381641 -1.5256001e-07)
(-4.839314e-07 -0.00084409398 -1.5151538e-07)
(8.0188711e-07 -0.00099808306 1.9066434e-07)
(-1.2906497e-06 -0.00099950467 1.9341745e-07)
(-3.7706236e-07 -0.00099927778 1.9181467e-07)
(6.1707467e-07 -0.00099933533 1.9335537e-07)
(-1.0026091e-06 -0.00099924261 1.9264423e-07)
(1.0026062e-06 -0.00099924261 1.926441e-07)
(-6.1707822e-07 -0.00099933533 1.9335519e-07)
(3.7705329e-07 -0.00099927778 1.918145e-07)
(1.2906436e-06 -0.00099950467 1.9341723e-07)
(-8.0189031e-07 -0.00099808306 1.9066411e-07)
(4.9156581e-07 -0.00080472953 -2.3720283e-07)
(-1.2843185e-06 -0.00080401439 -2.3896515e-07)
(-3.7097827e-07 -0.00080553061 -2.3707995e-07)
(5.6583353e-07 -0.00080391663 -2.3889652e-07)
(-9.5737089e-07 -0.00080458922 -2.3806731e-07)
(9.5736776e-07 -0.00080458922 -2.3806728e-07)
(-5.6583692e-07 -0.00080391663 -2.3889663e-07)
(3.7096882e-07 -0.00080553061 -2.3707999e-07)
(1.2843133e-06 -0.00080401439 -2.3896547e-07)
(-4.9156946e-07 -0.00080472953 -2.3720301e-07)
(9.7667581e-07 -0.0010462248 2.9330585e-07)
(-1.2173227e-06 -0.0010481437 2.9721831e-07)
(-3.7414613e-07 -0.0010475937 2.9485232e-07)
(6.4785355e-07 -0.0010479693 2.9712332e-07)
(-1.0248661e-06 -0.0010477258 2.9607595e-07)
(1.024863e-06 -0.0010477258 2.9607599e-07)
(-6.4785688e-07 -0.0010479693 2.9712344e-07)
(3.7413663e-07 -0.0010475937 2.9485233e-07)
(1.2173174e-06 -0.0010481437 2.9721816e-07)
(-9.7667948e-07 -0.0010462248 2.9330564e-07)
(4.6490782e-07 -0.00074617738 -3.5975886e-07)
(-1.2274769e-06 -0.00074483171 -3.6254191e-07)
(-3.6527986e-07 -0.00074693283 -3.597803e-07)
(5.5912631e-07 -0.00074477156 -3.6243324e-07)
(-9.4762216e-07 -0.00074569219 -3.6121849e-07)
(9.4761883e-07 -0.00074569219 -3.6121836e-07)
(-5.591295e-07 -0.00074477156 -3.6243279e-07)
(3.6527133e-07 -0.00074693283 -3.5978028e-07)
(1.2274703e-06 -0.00074483171 -3.6254194e-07)
(-4.6491083e-07 -0.00074617738 -3.5975891e-07)
(1.197939e-06 -0.0011167536 4.3755926e-07)
(-1.1405698e-06 -0.0011193711 4.4295807e-07)
(-3.7243681e-07 -0.001118333 4.3960102e-07)
(6.9016017e-07 -0.0011191842 4.4281702e-07)
(-1.0566102e-06 -0.0011187177 4.4133321e-07)
(1.0566072e-06 -0.0011187177 4.4133334e-07)
(-6.9016357e-07 -0.0011191842 4.4281709e-07)
(3.7242877e-07 -0.001118333 4.396008e-07)
(1.1405624e-06 -0.0011193711 4.4295812e-07)
(-1.1979417e-06 -0.0011167536 4.3755904e-07)
(3.9089436e-07 -0.00066178535 -5.2863969e-07)
(-1.1755937e-06 -0.00065956899 -5.3277513e-07)
(-3.5888242e-07 -0.00066244489 -5.2890781e-07)
(5.4261852e-07 -0.00065956076 -5.3261099e-07)
(-9.2916365e-07 -0.00066081146 -5.3091075e-07)
(9.2916053e-07 -0.00066081146 -5.3091066e-07)
(-5.4262202e-07 -0.00065956076 -5.3261085e-07)
(3.5887465e-07 -0.00066244489 -5.2890806e-07)
(1.1755861e-06 -0.00065956899 -5.3277498e-07)
(-3.9089689e-07 -0.00066178535 -5.2863967e-07)
(1.4805701e-06 -0.0012168287 6.3265931e-07)
(-1.0587303e-06 -0.0012203917 6.3989286e-07)
(-3.7253446e-07 -0.001218666 6.3531993e-07)
(7.4828648e-07 -0.0012201812 6.3968789e-07)
(-1.1015574e-06 -0.0012194048 6.3767095e-07)
(1.1015543e-06 -0.0012194048 6.3767096e-07)
(-7.4829002e-07 -0.0012201812 6.3968813e-07)
(3.7252645e-07 -0.001218666 6.3531969e-07)
(1.0587223e-06 -0.0012203917 6.3989303e-07)
(-1.4805719e-06 -0.0012168287 6.3265916e-07)
(2.5428831e-07 -0.00054395872 -7.5262139e-07)
(-1.1304203e-06 -0.0005405861 -7.5844535e-07)
(-3.513076e-07 -0.00054445957 -7.5326115e-07)
(5.1167761e-07 -0.00054064872 -7.5820943e-07)
(-8.9801644e-07 -0.00054232502 -7.5593156e-07)
(8.9801321e-07 -0.00054232502 -7.5593134e-07)
(-5.1168105e-07 -0.00054064872 -7.5820947e-07)
(3.5129927e-07 -0.00054445957 -7.532613e-07)
(1.1304129e-06 -0.0005405861 -7.5844556e-07)
(-2.5429051e-07 -0.00054395871 -7.5262159e-07)
(1.8416196e-06 -0.0013544023 8.867118e-07)
(-9.6965195e-07 -0.0013591988 8.9612244e-07)
(-3.7527301e-07 -0.0013565572 8.9013957e-07)
(8.2758303e-07 -0.0013589496 8.9583686e-07)
(-1.1643644e-06 -0.0013577643 8.9320196e-07)
(1.1643615e-06 -0.0013577643 8.9320208e-07)
(-8.275867e-07 -0.0013589496 8.9583686e-07)
(3.7526546e-07 -0.0013565572 8.9013953e-07)
(9.6964427e-07 -0.0013591988 8.9612218e-07)
(-1.8416225e-06 -0.0013544023 8.8671175e-07)
(3.7903741e-08 -0.0003844726 -1.0389844e-06)
(-1.0941878e-06 -0.00037961811 -1.0468196e-06)
(-3.4185522e-07 -0.00038473827 -1.0401454e-06)
(4.606163e-07 -0.00037977553 -1.0464944e-06)
(-8.492625e-07 -0.00038198339 -1.0435635e-06)
(8.4925909e-07 -0.00038198339 -1.0435632e-06)
(-4.6061967e-07 -0.00037977553 -1.0464946e-06)
(3.4184802e-07 -0.00038473827 -1.0401455e-06)
(1.0941806e-06 -0.00037961811 -1.0468197e-06)
(-3.790716e-08 -0.0003844726 -1.0389847e-06)
(2.3001264e-06 -0.0015378925 1.2060733e-06)
(-8.7062615e-07 -0.0015442469 1.2179834e-06)
(-3.8176936e-07 -0.0015404385 1.2104432e-06)
(9.3446021e-07 -0.0015439387 1.2176018e-06)
(-1.2506444e-06 -0.001542237 1.2142842e-06)
(1.2506413e-06 -0.001542237 1.2142843e-06)
(-9.3446378e-07 -0.0015439387 1.2176015e-06)
(3.8176234e-07 -0.0015404385 1.2104431e-06)
(8.7061893e-07 -0.0015442469 1.2179839e-06)
(-2.30013e-06 -0.0015378925 1.2060736e-06)
(-2.7731402e-07 -0.00017479168 -1.3931247e-06)
(-1.069686e-06 -0.00016809478 -1.4032708e-06)
(-3.2954944e-07 -0.00017473029 -1.3949819e-06)
(3.8270904e-07 -0.00016837659 -1.4028395e-06)
(-7.7704157e-07 -0.00017122913 -1.3992016e-06)
(7.7703806e-07 -0.00017122913 -1.3992017e-06)
(-3.8271256e-07 -0.00016837659 -1.4028398e-06)
(3.2954234e-07 -0.00017473029 -1.3949818e-06)
(1.0696788e-06 -0.00016809478 -1.4032701e-06)
(2.7731115e-07 -0.00017479168 -1.3931245e-06)
(2.8771547e-06 -0.0017758879 1.5951881e-06)
(-7.5829695e-07 -0.0017841553 1.6098982e-06)
(-3.9348537e-07 -0.001778914 1.6007028e-06)
(1.0763623e-06 -0.0017837627 1.6094052e-06)
(-1.3669615e-06 -0.0017814316 1.6053621e-06)
(1.3669587e-06 -0.0017814316 1.605362e-06)
(-1.0763664e-06 -0.0017837627 1.6094049e-06)
(3.9347836e-07 -0.001778914 1.6007023e-06)
(7.5828921e-07 -0.0017841553 1.6098986e-06)
(-2.8771574e-06 -0.0017758879 1.5951884e-06)
(-7.1241554e-07 9.3669028e-05 -1.8185879e-06)
(-1.0603505e-06 0.00010259954 -1.8313218e-06)
(-3.1307683e-07 9.4166309e-05 -1.8213452e-06)
(2.702242e-07 0.0001021576 -1.8307702e-06)
(-6.7456466e-07 9.8542953e-05 -1.8263939e-06)
(6.7456147e-07 9.8542956e-05 -1.8263937e-06)
(-2.7022779e-07 0.00010215759 -1.8307706e-06)
(3.1306974e-07 9.416631e-05 -1.821346e-06)
(1.060343e-06 0.00010259954 -1.8313221e-06)
(7.1241268e-07 9.3669029e-05 -1.8185881e-06)
(3.5960204e-06 -0.0020769274 2.0567779e-06)
(-6.2855831e-07 -0.0020874905 2.0745693e-06)
(-4.12298e-07 -0.0020805394 2.0636687e-06)
(1.2617481e-06 -0.0020869822 2.073954e-06)
(-1.5208289e-06 -0.0020839056 2.0691625e-06)
(1.520826e-06 -0.0020839056 2.0691626e-06)
(-1.2617524e-06 -0.0020869822 2.073954e-06)
(4.1229075e-07 -0.0020805394 2.0636687e-06)
(6.2855071e-07 -0.0020874905 2.0745696e-06)
(-3.596023e-06 -0.0020769274 2.0567779e-06)
(-1.2907305e-06 0.00042936591 -2.317366e-06)
(-1.0703537e-06 0.00044094926 -2.3329476e-06)
(-2.9072513e-07 0.00043042653 -2.3212545e-06)
(1.1444224e-07 0.00044030474 -2.3322668e-06)
(-5.3411544e-07 0.00043580848 -2.3271367e-06)
(5.341122e-07 0.00043580848 -2.3271366e-06)
(-1.1444581e-07 0.00044030474 -2.3322673e-06)
(2.9071795e-07 0.00043042653 -2.3212553e-06)
(1.0703462e-06 0.00044094926 -2.332948e-06)
(1.2907276e-06 0.00042936591 -2.3173662e-06)
(4.4826504e-06 -0.0024493612 2.5921962e-06)
(-4.7645577e-07 -0.0024626281 2.6133384e-06)
(-4.4057154e-07 -0.0024536834 2.6007279e-06)
(1.5000752e-06 -0.0024619667 2.6125959e-06)
(-1.7207091e-06 -0.0024580271 2.6070503e-06)
(1.7207065e-06 -0.0024580271 2.6070501e-06)
(-1.5000797e-06 -0.0024619667 2.6125956e-06)
(4.4056444e-07 -0.0024536834 2.6007275e-06)
(4.764479e-07 -0.0024626281 2.6133386e-06)
(-4.482653e-06 -0.0024493612 2.5921965e-06)
(-2.0382346e-06 0.00084052311 -2.8902701e-06)
(-1.104702e-06 0.00085520557 -2.9089506e-06)
(-2.6031607e-07 0.00084229475 -2.8955511e-06)
(-9.4350642e-08 0.00085430875 -2.9081363e-06)
(-3.4702986e-07 0.00084881076 -2.902253e-06)
(3.4702625e-07 0.00084881076 -2.902253e-06)
(9.43471e-08 0.00085430875 -2.9081359e-06)
(2.6030898e-07 0.00084229475 -2.8955511e-06)
(1.1046948e-06 0.00085520557 -2.908951e-06)
(2.0382318e-06 0.00084052311 -2.89027e-06)
(5.5659844e-06 -0.0029012777 3.2017921e-06)
(-2.9606491e-07 -0.0029176816 3.2265501e-06)
(-4.8124614e-07 -0.0029064543 3.2122599e-06)
(1.8018078e-06 -0.0029168229 3.2256796e-06)
(-1.9760316e-06 -0.0029119029 3.2193897e-06)
(1.976029e-06 -0.002911903 3.2193896e-06)
(-1.8018122e-06 -0.0029168229 3.2256793e-06)
(4.8123913e-07 -0.0029064543 3.2122599e-06)
(2.9605688e-07 -0.0029176816 3.2265505e-06)
(-5.5659869e-06 -0.0029012777 3.2017924e-06)
(-2.983949e-06 0.001335084 -3.5372636e-06)
(-1.1693525e-06 0.0013533392 -3.5592934e-06)
(-2.1911394e-07 0.0013377362 -3.5442299e-06)
(-3.6686743e-07 0.0013521324 -3.5583465e-06)
(-1.0368099e-07 0.0013455129 -3.5517248e-06)
(1.0367732e-07 0.0013455129 -3.5517248e-06)
(3.6686398e-07 0.0013521324 -3.5583465e-06)
(2.1910687e-07 0.0013377362 -3.5442299e-06)
(1.1693453e-06 0.0013533392 -3.5592935e-06)
(2.9839462e-06 0.001335084 -3.5372638e-06)
(6.8783995e-06 -0.0034404742 3.8852042e-06)
(-8.0368551e-08 -0.0034604741 3.9138463e-06)
(-5.3793895e-07 -0.0034466712 3.8979394e-06)
(2.1784365e-06 -0.0034593665 3.9128553e-06)
(-2.2972195e-06 -0.0034533494 3.9058421e-06)
(2.297217e-06 -0.0034533494 3.9058424e-06)
(-2.1784412e-06 -0.0034593665 3.9128553e-06)
(5.3793233e-07 -0.0034466712 3.8979392e-06)
(8.0360442e-08 -0.0034604741 3.9138466e-06)
(-6.878402e-06 -0.0034404742 3.8852044e-06)
(-4.1603441e-06 0.0019206972 -4.2577162e-06)
(-1.2713298e-06 0.0019430278 -4.2833511e-06)
(-1.6372579e-07 0.0019244234 -4.2666942e-06)
(-7.1484735e-07 0.0019414442 -4.2822802e-06)
(2.0655114e-07 0.0019335847 -4.2749438e-06)
(-2.0655469e-07 0.0019335848 -4.2749435e-06)
(7.1484408e-07 0.0019414442 -4.2822807e-06)
(1.6371837e-07 0.0019244234 -4.2666946e-06)
(1.2713227e-06 0.0019430278 -4.2833513e-06)
(4.1603413e-06 0.0019206972 -4.2577165e-06)
(8.4561429e-06 -0.0040744551 4.6415691e-06)
(1.7888521e-07 -0.0040985377 4.6743728e-06)
(-6.150675e-07 -0.0040818615 4.6569403e-06)
(2.6425124e-06 -0.0040971211 4.6732775e-06)
(-2.6957248e-06 -0.0040898913 4.6655721e-06)
(2.6957222e-06 -0.0040898913 4.6655724e-06)
(-2.6425174e-06 -0.0040971211 4.6732775e-06)
(6.150611e-07 -0.0040818615 4.6569406e-06)
(-1.7889338e-07 -0.0040985377 4.6743734e-06)
(-8.4561451e-06 -0.0040744551 4.6415693e-06)
(-5.6037527e-06 0.0026047232 -5.0505696e-06)
(-1.4188566e-06 0.0026316633 -5.0800769e-06)
(-8.9979482e-08 0.0026097423 -5.061922e-06)
(-1.1510936e-06 0.0026296261 -5.0789e-06)
(5.9532443e-07 0.0026204094 -5.0708794e-06)
(-5.9532799e-07 0.0026204094 -5.0708792e-06)
(1.1510901e-06 0.0026296261 -5.0789004e-06)
(8.997213e-08 0.0026097423 -5.0619222e-06)
(1.4188495e-06 0.0026316633 -5.080077e-06)
(5.6037499e-06 0.0026047232 -5.0505699e-06)
(1.0339779e-05 -0.0048104441 5.4696554e-06)
(4.913369e-07 -0.0048391268 5.5069111e-06)
(-7.1799414e-07 -0.0048192742 5.4880732e-06)
(3.2076868e-06 -0.0048373314 5.5057389e-06)
(-3.1840654e-06 -0.0048287745 5.497382e-06)
(3.1840633e-06 -0.0048287745 5.4973821e-06)
(-3.2076919e-06 -0.0048373313 5.5057383e-06)
(7.1798785e-07 -0.0048192742 5.4880725e-06)
(-4.9134505e-07 -0.0048391268 5.506911e-06)
(-1.0339781e-05 -0.0048104441 5.4696554e-06)
(-7.3548059e-06 0.0033942512 -5.9144423e-06)
(-1.6214967e-06 0.0034263698 -5.9481074e-06)
(7.2194094e-09 0.0034008102 -5.9285695e-06)
(-1.689517e-06 0.0034237906 -5.9468496e-06)
(1.0753818e-06 0.0034131013 -5.938182e-06)
(-1.0753859e-06 0.0034131013 -5.9381821e-06)
(1.6895138e-06 0.0034237906 -5.9468493e-06)
(-7.2274808e-09 0.0034008103 -5.928569e-06)
(1.6214909e-06 0.0034263698 -5.9481068e-06)
(7.3548029e-06 0.0033942512 -5.9144419e-06)
(1.2574669e-05 -0.0056554045 6.3679404e-06)
(8.6819718e-07 -0.0056892391 6.4099523e-06)
(-8.5320051e-07 -0.0056658997 6.3898648e-06)
(3.8887571e-06 -0.0056869839 6.4087541e-06)
(-3.7758694e-06 -0.0056769867 6.3997815e-06)
(3.7758676e-06 -0.0056769867 6.3997815e-06)
(-3.8887625e-06 -0.0056869839 6.4087537e-06)
(8.531942e-07 -0.0056658997 6.3898641e-06)
(-8.6820503e-07 -0.0056892391 6.4099523e-06)
(-1.2574671e-05 -0.0056554045 6.3679405e-06)
(-9.4589077e-06 0.0042961212 -6.8476886e-06)
(-1.890318e-06 0.0043340256 -6.8858176e-06)
(1.3406608e-07 0.0043044984 -6.8650317e-06)
(-2.3451891e-06 0.0043308047 -6.8845135e-06)
(1.6606117e-06 0.0043185268 -6.875246e-06)
(-1.6606158e-06 0.0043185268 -6.8752459e-06)
(2.3451863e-06 0.0043308047 -6.8845136e-06)
(-1.3407459e-07 0.0043044984 -6.8650319e-06)
(1.8903111e-06 0.0043340256 -6.8858166e-06)
(9.4589057e-06 0.0042961212 -6.8476876e-06)
(1.5211465e-05 -0.0066160623 7.3346575e-06)
(1.3224835e-06 -0.00665564 7.3817776e-06)
(-1.0284047e-06 -0.0066284931 7.3605695e-06)
(4.7016277e-06 -0.0066528308 7.3805903e-06)
(-4.4860276e-06 -0.0066412812 7.3710476e-06)
(4.4860256e-06 -0.0066412812 7.3710477e-06)
(-4.7016329e-06 -0.0066528308 7.3805904e-06)
(1.0283983e-06 -0.0066284931 7.3605695e-06)
(-1.3224911e-06 -0.00665564 7.3817777e-06)
(-1.5211467e-05 -0.0066160623 7.3346577e-06)
(-1.1966775e-05 0.0053169476 -7.8484267e-06)
(-2.2380621e-06 0.0053612939 -7.8913464e-06)
(2.9808175e-07 0.0053274502 -7.8694805e-06)
(-3.1344144e-06 0.0053573121 -7.8900497e-06)
(2.3660955e-06 0.005343331 -7.8802323e-06)
(-2.3661e-06 0.005343331 -7.8802323e-06)
(3.1344125e-06 0.0053573121 -7.8900497e-06)
(-2.9809082e-07 0.0053274502 -7.8694803e-06)
(2.2380564e-06 0.0053612939 -7.8913458e-06)
(1.1966772e-05 0.0053169476 -7.848426e-06)
(1.8306932e-05 -0.00769893 8.3678039e-06)
(1.8690342e-06 -0.0077448864 8.4204038e-06)
(-1.2530765e-06 -0.0077135993 8.3982483e-06)
(5.6636261e-06 -0.0077414137 8.4192896e-06)
(-5.3306639e-06 -0.0077282005 8.4092287e-06)
(5.3306622e-06 -0.0077282006 8.4092289e-06)
(-5.6636318e-06 -0.0077414137 8.4192897e-06)
(1.2530707e-06 -0.0077135994 8.3982484e-06)
(-1.8690421e-06 -0.0077448864 8.4204036e-06)
(-1.8306934e-05 -0.00769893 8.3678035e-06)
(-1.4935019e-05 0.0064631429 -8.9145389e-06)
(-2.6793836e-06 0.006514638 -8.9626035e-06)
(5.0835387e-07 0.0064761149 -8.9398487e-06)
(-4.0747762e-06 0.0065097584 -8.9613838e-06)
(3.2081759e-06 0.0064939606 -8.9510716e-06)
(-3.2081807e-06 0.0064939606 -8.9510716e-06)
(4.0747748e-06 0.0065097584 -8.9613837e-06)
(-5.0836323e-07 0.0064761149 -8.9398486e-06)
(2.6793783e-06 0.006514638 -8.9626029e-06)
(1.4935015e-05 0.0064631429 -8.9145382e-06)
(2.1924473e-05 -0.0089103298 9.465135e-06)
(2.5249515e-06 -0.008963352 9.5236123e-06)
(-1.5385658e-06 -0.0089275764 9.50072e-06)
(6.7933886e-06 -0.0089590886 9.5226574e-06)
(-6.3272121e-06 -0.0089441012 9.5121354e-06)
(6.3272108e-06 -0.0089441013 9.5121355e-06)
(-6.7933948e-06 -0.0089590886 9.5226576e-06)
(1.5385603e-06 -0.0089275764 9.50072e-06)
(-2.5249596e-06 -0.008963352 9.5236123e-06)
(-2.1924474e-05 -0.0089103298 9.4651351e-06)
(-1.8426841e-05 0.0077409405 -1.004366e-05)
(-3.2311026e-06 0.0078003505 -1.0097258e-05)
(7.7584429e-07 0.0077567656 -1.0073827e-05)
(-5.1852039e-06 0.0077944147 -1.0096202e-05)
(4.2045218e-06 0.0077766872 -1.0085454e-05)
(-4.2045271e-06 0.0077766872 -1.0085453e-05)
(5.1852027e-06 0.0077944147 -1.0096202e-05)
(-7.7585378e-07 0.0077567657 -1.0073827e-05)
(3.2310984e-06 0.0078003505 -1.0097258e-05)
(1.8426836e-05 0.0077409405 -1.0043659e-05)
(2.6134965e-05 -0.010256416 1.0624159e-05)
(3.3099006e-06 -0.01031725 1.0688947e-05)
(-1.8984909e-06 -0.010276618 1.0665556e-05)
(8.1109427e-06 -0.010312048 1.068826e-05)
(-7.4944847e-06 -0.010295176 1.0677338e-05)
(7.494484e-06 -0.010295176 1.0677338e-05)
(-8.1109493e-06 -0.010312048 1.068826e-05)
(1.8984861e-06 -0.010276618 1.0665556e-05)
(-3.3099107e-06 -0.01031725 1.0688946e-05)
(-2.6134965e-05 -0.010256416 1.0624159e-05)
(-2.2512859e-05 0.0091564157 -1.1233181e-05)
(-3.9125117e-06 0.009224575 -1.129274e-05)
(1.1137611e-06 0.0091755221 -1.1268871e-05)
(-6.4860455e-06 0.0092173993 -1.1291955e-05)
(5.3742036e-06 0.0091976294 -1.1280832e-05)
(-5.3742094e-06 0.0091976294 -1.1280831e-05)
(6.4860447e-06 0.0092173993 -1.1291955e-05)
(-1.1137713e-06 0.0091755221 -1.126887e-05)
(3.9125068e-06 0.009224575 -1.129274e-05)
(2.2512855e-05 0.0091564157 -1.123318e-05)
(3.1017748e-05 -0.011743195 1.1842144e-05)
(4.2464888e-06 -0.011812657 1.1913718e-05)
(-2.3491907e-06 -0.011766774 1.1890099e-05)
(9.6377811e-06 -0.011806342 1.1913436e-05)
(-8.8527463e-06 -0.011787474 1.1902176e-05)
(8.8527464e-06 -0.011787474 1.1902176e-05)
(-9.6377889e-06 -0.011806342 1.1913436e-05)
(2.3491868e-06 -0.011766774 1.1890099e-05)
(-4.2464993e-06 -0.011812657 1.1913718e-05)
(-3.1017747e-05 -0.011743195 1.1842144e-05)
(-2.7272088e-05 0.010715507 -1.2480263e-05)
(-4.7457497e-06 0.010793329 -1.2546253e-05)
(1.5380056e-06 0.010738372 -1.2522209e-05)
(-7.9991439e-06 0.010784699 -1.254587e-05)
(6.7377745e-06 0.010762774 -1.2534437e-05)
(-6.7377806e-06 0.010762774 -1.2534436e-05)
(7.9991432e-06 0.010784699 -1.2545871e-05)
(-1.5380156e-06 0.010738372 -1.252221e-05)
(4.7457453e-06 0.010793329 -1.2546253e-05)
(2.7272084e-05 0.010715507 -1.2480263e-05)
(3.6661776e-05 -0.013376547 1.3116126e-05)
(5.3607241e-06 -0.01345553 1.3195008e-05)
(-2.9102676e-06 -0.013403974 1.3171461e-05)
(1.139694e-05 -0.013447899 1.3195297e-05)
(-1.0423796e-05 -0.013426925 1.3183765e-05)
(1.0423796e-05 -0.013426925 1.3183765e-05)
(-1.1396948e-05 -0.013447899 1.3195297e-05)
(2.9102643e-06 -0.013403974 1.3171461e-05)
(-5.3607334e-06 -0.01345553 1.3195008e-05)
(-3.6661776e-05 -0.013376547 1.3116127e-05)
(-3.2793083e-05 0.012424032 -1.378181e-05)
(-5.7562502e-06 0.012512521 -1.3854747e-05)
(2.067708e-06 0.012451189 -1.3830828e-05)
(-9.7479145e-06 0.012502189 -1.3854934e-05)
(8.3173526e-06 0.012477995 -1.3843253e-05)
(-8.3173597e-06 0.012477995 -1.3843252e-05)
(9.747915e-06 0.012502189 -1.3854935e-05)
(-2.0677195e-06 0.012451189 -1.3830828e-05)
(5.7562469e-06 0.012512521 -1.3854747e-05)
(3.2793078e-05 0.012424032 -1.378181e-05)
(4.3166965e-05 -0.01516224 1.4442845e-05)
(6.6825773e-06 -0.01525173 1.4529608e-05)
(-3.6052361e-06 -0.015194042 1.4506471e-05)
(1.3413071e-05 -0.015242547 1.453067e-05)
(-1.2231044e-05 -0.015219353 1.4518933e-05)
(1.2231045e-05 -0.015219353 1.4518933e-05)
(-1.3413079e-05 -0.015242547 1.4530671e-05)
(3.6052333e-06 -0.015194042 1.4506472e-05)
(-6.682587e-06 -0.01525173 1.4529607e-05)
(-4.3166965e-05 -0.01516224 1.4442845e-05)
(-3.9175266e-05 0.014287709 -1.5134381e-05)
(-6.9732945e-06 0.014387975 -1.5214834e-05)
(2.7258816e-06 0.014319752 -1.5191372e-05)
(-1.1757435e-05 0.014375649 -1.5215792e-05)
(1.0136719e-05 0.014349072 -1.5203927e-05)
(-1.0136727e-05 0.014349072 -1.5203927e-05)
(1.1757436e-05 0.014375649 -1.5215792e-05)
(-2.7258937e-06 0.014319752 -1.5191372e-05)
(6.9732917e-06 0.014387975 -1.5214834e-05)
(3.917526e-05 0.014287709 -1.5134381e-05)
(5.0645784e-05 -0.017105949 1.5818642e-05)
(8.2466695e-06 -0.017207039 1.5913916e-05)
(-4.4623123e-06 -0.017142714 1.5891571e-05)
(1.5712526e-05 -0.017196024 1.5916003e-05)
(-1.4299611e-05 -0.017170496 1.5904123e-05)
(1.4299613e-05 -0.017170496 1.5904123e-05)
(-1.5712534e-05 -0.017196024 1.5916003e-05)
(4.4623107e-06 -0.017142714 1.5891571e-05)
(-8.2466797e-06 -0.017207039 1.5913916e-05)
(-5.0645783e-05 -0.017105949 1.5818642e-05)
(-4.6530539e-05 0.016312165 -1.6534106e-05)
(-8.4306816e-06 0.01642544 -1.6622701e-05)
(3.5401995e-06 0.016349762 -1.6600068e-05)
(-1.4054531e-05 0.016410781 -1.6624674e-05)
(1.2221417e-05 0.016381706 -1.6612689e-05)
(-1.2221427e-05 0.016381706 -1.6612689e-05)
(1.4054532e-05 0.016410781 -1.6624674e-05)
(-3.5402125e-06 0.016349762 -1.6600067e-05)
(8.4306792e-06 0.01642544 -1.6622701e-05)
(4.6530533e-05 0.016312165 -1.6534107e-05)
(5.9225183e-05 -0.019213269 1.7239409e-05)
(1.0093111e-05 -0.019327177 1.7343887e-05)
(-5.5153641e-06 -0.019255657 1.7322759e-05)
(1.8323433e-05 -0.019314001 1.73473e-05)
(-1.6656412e-05 -0.019286022 1.7335341e-05)
(1.6656416e-05 -0.019286022 1.7335341e-05)
(-1.8323442e-05 -0.019314001 1.73473e-05)
(5.5153637e-06 -0.019255657 1.732276e-05)
(-1.0093122e-05 -0.019327177 1.7343888e-05)
(-5.9225181e-05 -0.019213269 1.7239409e-05)
(-5.4985236e-05 0.018502958 -1.7976641e-05)
(-1.0167556e-05 0.018630617 -1.8074067e-05)
(4.5439435e-06 0.018546856 -1.8052679e-05)
(-1.6667874e-05 0.018613225 -1.8077351e-05)
(1.4598866e-05 0.018581534 -1.8065307e-05)
(-1.4598877e-05 0.018581534 -1.8065306e-05)
(1.6667877e-05 0.018613225 -1.8077352e-05)
(-4.5439578e-06 0.018546856 -1.8052679e-05)
(1.0167554e-05 0.018630617 -1.8074068e-05)
(5.4985229e-05 0.018502958 -1.7976642e-05)
(6.9048948e-05 -0.021489729 1.8700542e-05)
(1.2268536e-05 -0.021617818 1.8814984e-05)
(-6.8050608e-06 -0.021538482 1.8795553e-05)
(2.1275785e-05 -0.021602094 1.882009e-05)