/*--------------------------------*- C++ -*----------------------------------*\
  =========                 |
  \\      /  F ield         | OpenFOAM: The Open Source CFD Toolbox
   \\    /   O peration     | Website:  https://openfoam.org
    \\  /    A nd           | Version:  8
     \\/     M anipulation  |
\*---------------------------------------------------------------------------*/
FoamFile
{
    version     2.0;
    format      ascii;
    class       volScalarField;
    location    "1.499985";
    object      alphat;
}
// * * * * * * * * * * * * * * * * * * * * * * * * * * * * * * * * * * * * * //

dimensions      [1 -1 -1 0 0 0 0];

internalField   nonuniform List<scalar> 
6800
(
0.0062479
0.0159399
0.0218113
0.0241432
0.0280325
0.0319603
0.0287539
0.0250021
0.0145907
0.0108079
0.00543353
0.017258
0.0226491
0.025557
0.0313821
0.0300022
0.0223584
0.0131426
0.00943021
0.00886444
0.00669009
0.0189329
0.0231328
0.0279585
0.031433
0.0213286
0.012182
0.00931666
0.00830624
0.00687732
0.00718346
0.0206598
0.0248986
0.0299978
0.0249426
0.0148679
0.0111546
0.00868334
0.00686407
0.00627869
0.00745806
0.0218572
0.0260109
0.0305286
0.0178688
0.0111098
0.00807316
0.00692781
0.00636421
0.00601788
0.00753667
0.0243747
0.0282273
0.0256595
0.0139138
0.00897244
0.00776021
0.0071876
0.00640753
0.00571763
0.00763623
0.0265393
0.0297305
0.0196751
0.0103899
0.00842791
0.00736828
0.00635046
0.0055015
0.00510332
0.00850441
0.0290256
0.0286098
0.0141051
0.0102281
0.00844035
0.00709711
0.00621826
0.00567552
0.00530481
0.00869883
0.0313553
0.0249501
0.0138791
0.008956
0.00737081
0.00657681
0.00576079
0.00512933
0.00480484
0.00902342
0.0329121
0.0227453
0.0109442
0.00893517
0.00791864
0.00649941
0.00564295
0.00516817
0.00495405
0.0345639
0.147641
0.204236
0.22005
0.224455
0.22509
0.227313
0.230768
0.23458
0.23623
0.0331753
0.14233
0.197522
0.213635
0.216401
0.21509
0.215161
0.216591
0.218366
0.219813
0.0306713
0.131
0.183661
0.201086
0.202043
0.199356
0.197585
0.195983
0.193933
0.194257
0.0276969
0.117988
0.167352
0.183726
0.182998
0.179584
0.174134
0.170185
0.164099
0.154738
0.02457
0.105103
0.150176
0.160381
0.156572
0.149905
0.140766
0.130434
0.11981
0.0929305
0.0218436
0.0935718
0.127486
0.12839
0.119578
0.11026
0.0948071
0.0707631
0.0581562
0.042601
0.0194881
0.0793351
0.0984721
0.0874324
0.0759303
0.05385
0.0416177
0.0359757
0.0355268
0.0302321
0.0183792
0.0622046
0.0543656
0.043999
0.0331575
0.0310969
0.0318273
0.030332
0.0305488
0.0270398
0.015564
0.0300759
0.025797
0.0261798
0.0265679
0.0287424
0.0305383
0.0295576
0.0290338
0.0242433
0.0112894
0.0155054
0.0213864
0.0241083
0.0263468
0.029493
0.0306888
0.0281341
0.0262541
0.0169617
0.237378
0.237974
0.236505
0.234601
0.232804
0.231238
0.229893
0.228779
0.227897
0.227201
0.226654
0.226198
0.225826
0.225528
0.225276
0.225079
0.224909
0.224789
0.224706
0.224634
0.224552
0.224448
0.224312
0.224139
0.223929
0.223681
0.223399
0.223084
0.222742
0.222376
0.221995
0.221605
0.221215
0.220829
0.220449
0.220075
0.219711
0.219354
0.219011
0.218683
0.218377
0.218092
0.217834
0.2176
0.217389
0.2172
0.217029
0.216874
0.21673
0.216593
0.21646
0.216328
0.216194
0.216055
0.215909
0.215756
0.215594
0.215422
0.215239
0.215047
0.214845
0.214633
0.214412
0.214183
0.213946
0.213702
0.213453
0.213199
0.212941
0.212681
0.21242
0.212158
0.211897
0.211636
0.211379
0.211125
0.210875
0.21063
0.210391
0.210159
0.209934
0.209718
0.20951
0.209313
0.209125
0.208951
0.208784
0.208635
0.208489
0.208369
0.208242
0.208158
0.208044
0.208003
0.207894
0.207901
0.207791
0.207834
0.207752
0.207861
0.221203
0.221793
0.220934
0.219553
0.218217
0.217083
0.216177
0.215507
0.215028
0.214704
0.214511
0.214356
0.214278
0.214261
0.214266
0.214327
0.214432
0.214588
0.214772
0.214958
0.21512
0.215246
0.215325
0.215357
0.215341
0.215279
0.215174
0.215031
0.214852
0.214646
0.214425
0.214196
0.213964
0.213732
0.2135
0.213267
0.213035
0.212802
0.212574
0.212353
0.212153
0.211976
0.211823
0.211695
0.211588
0.211502
0.211432
0.211377
0.211331
0.21129
0.21125
0.211208
0.211159
0.211104
0.211038
0.210961
0.21087
0.210766
0.21065
0.210522
0.210381
0.210228
0.210064
0.209891
0.209708
0.209519
0.209323
0.209122
0.208917
0.208709
0.208499
0.208288
0.208077
0.207867
0.207659
0.207452
0.20725
0.207051
0.206858
0.206671
0.20649
0.206318
0.206153
0.205999
0.205853
0.20572
0.205595
0.205488
0.205383
0.205305
0.205218
0.205176
0.2051
0.205102
0.205028
0.205082
0.205004
0.205083
0.205041
0.205227
0.197758
0.197029
0.195769
0.194304
0.193079
0.192223
0.191703
0.19147
0.191433
0.191544
0.191773
0.192161
0.19265
0.193297
0.194059
0.194862
0.195709
0.196584
0.197434
0.198219
0.198922
0.199545
0.200083
0.200544
0.200934
0.201254
0.201518
0.201729
0.201894
0.202031
0.202163
0.202281
0.202384
0.202467
0.20253
0.202565
0.202574
0.202563
0.202543
0.202525
0.202515
0.202518
0.202538
0.202576
0.202628
0.202696
0.202775
0.202861
0.20295
0.203038
0.20312
0.203196
0.203259
0.203314
0.203348
0.203364
0.203364
0.203349
0.203319
0.203278
0.203219
0.203145
0.203059
0.202965
0.202863
0.202754
0.202641
0.202522
0.2024
0.202276
0.20215
0.202022
0.201893
0.201764
0.201636
0.201508
0.201383
0.20126
0.201142
0.201029
0.200922
0.200821
0.200729
0.200645
0.200569
0.200506
0.200449
0.200411
0.200373
0.200365
0.200341
0.200367
0.200351
0.20042
0.200399
0.200519
0.200504
0.200651
0.200634
0.200835
0.15646
0.157513
0.159001
0.159782
0.160726
0.161795
0.162972
0.164198
0.165454
0.166703
0.167977
0.169279
0.170629
0.171997
0.173355
0.174673
0.17603
0.177424
0.178739
0.179943
0.181021
0.181992
0.182849
0.18361
0.184293
0.18489
0.185434
0.185914
0.186354
0.186717
0.187018
0.187283
0.187528
0.18775
0.187955
0.188126
0.188263
0.188367
0.188454
0.188542
0.188648
0.188781
0.188941
0.189128
0.189336
0.189565
0.189806
0.190056
0.190308
0.190558
0.190799
0.191031
0.191249
0.191452
0.191643
0.191822
0.191988
0.192138
0.192276
0.192396
0.192512
0.19262
0.192718
0.192809
0.19289
0.192963
0.193026
0.193081
0.193131
0.193175
0.193211
0.19324
0.193262
0.193277
0.193287
0.193293
0.193297
0.1933
0.193304
0.193309
0.193318
0.193332
0.19335
0.193377
0.193409
0.193453
0.193498
0.193561
0.193619
0.193707
0.193774
0.193893
0.193963
0.194122
0.194181
0.19439
0.194435
0.194639
0.195017
0.194778
0.0929266
0.0948597
0.0970811
0.0999197
0.103254
0.106666
0.110006
0.113102
0.116043
0.118774
0.121501
0.124226
0.126986
0.129755
0.132417
0.134838
0.137379
0.140183
0.142567
0.144687
0.146593
0.148357
0.14996
0.15144
0.152842
0.154116
0.155367
0.156525
0.157603
0.158644
0.159676
0.160703
0.161721
0.162686
0.163591
0.16436
0.165017
0.16559
0.16611
0.16664
0.167211
0.167833
0.168489
0.169167
0.169855
0.170547
0.171235
0.171912
0.172568
0.1732
0.173805
0.174383
0.174932
0.175454
0.175949
0.176419
0.176865
0.177289
0.177689
0.17807
0.178425
0.178764
0.179088
0.1794
0.179701
0.179986
0.180258
0.18051
0.18074
0.180951
0.181145
0.181324
0.18149
0.181646
0.181795
0.181937
0.182076
0.182214
0.182352
0.182493
0.182636
0.182785
0.182938
0.1831
0.183265
0.183444
0.183622
0.18382
0.184008
0.18423
0.184422
0.184673
0.184862
0.185151
0.185324
0.185661
0.18583
0.186149
0.18667
0.186529
0.0436302
0.0454885
0.047633
0.0498489
0.0527483
0.0547677
0.0566756
0.0590519
0.0617091
0.0644361
0.0675305
0.0712849
0.075056
0.0790932
0.0829601
0.0866571
0.090308
0.0935046
0.0964045
0.098851
0.101255
0.103602
0.105805
0.107906
0.110011
0.111951
0.11408
0.115945
0.117728
0.119442
0.121197
0.122979
0.124813
0.126607
0.128467
0.129914
0.131205
0.132266
0.133108
0.134017
0.135071
0.136261
0.137516
0.138807
0.140105
0.141399
0.14267
0.143907
0.145091
0.146228
0.147319
0.148373
0.149385
0.150365
0.151307
0.15222
0.153099
0.15395
0.154769
0.15556
0.156323
0.157077
0.157812
0.15853
0.159216
0.159866
0.160487
0.161081
0.161648
0.162189
0.162707
0.163202
0.163678
0.164136
0.164579
0.16501
0.165431
0.165847
0.166258
0.166667
0.167074
0.167483
0.16789
0.168305
0.168715
0.169138
0.169551
0.169984
0.170397
0.170844
0.17125
0.171716
0.172107
0.172604
0.172963
0.173495
0.173828
0.174346
0.174981
0.175098
0.0303791
0.0304816
0.0306064
0.030917
0.0314104
0.0319832
0.0328265
0.0336099
0.0345218
0.0354843
0.0366058
0.0381134
0.039823
0.041576
0.043429
0.0452045
0.0469682
0.0487084
0.0504879
0.0524341
0.0542934
0.0561394
0.0578736
0.0596985
0.0614921
0.0632984
0.0652181
0.067221
0.0693957
0.0715691
0.0740166
0.0765042
0.0792658
0.0820839
0.0860361
0.0877174
0.0907268
0.0917385
0.0910745
0.0914783
0.09286
0.0945889
0.0964903
0.0985207
0.100551
0.102544
0.104425
0.106245
0.107946
0.109617
0.111253
0.112867
0.114442
0.115994
0.117501
0.118984
0.120421
0.121827
0.123198
0.124504
0.125894
0.127259
0.128557
0.129785
0.130914
0.131967
0.132993
0.133987
0.134962
0.135903
0.136809
0.137686
0.138537
0.139366
0.140174
0.140969
0.141752
0.142529
0.143297
0.144063
0.144819
0.145576
0.146323
0.147074
0.147812
0.148558
0.149284
0.150026
0.150738
0.15148
0.152172
0.152917
0.153577
0.154348
0.154947
0.155726
0.156273
0.157054
0.157813
0.158366
0.0266648
0.0261515
0.0256719
0.0253181
0.025127
0.02505
0.025116
0.0252512
0.0254571
0.0256601
0.0258138
0.0258839
0.0259176
0.0258261
0.0258012
0.0257638
0.0258833
0.0258474
0.0259057
0.02583
0.0259658
0.0259716
0.0262954
0.0265163
0.0271405
0.0273906
0.0277813
0.0283619
0.0288995
0.0299913
0.0306497
0.0318566
0.0333529
0.0349267
0.0365434
0.0379112
0.038798
0.0396476
0.0407098
0.0421754
0.0439319
0.0460037
0.0482311
0.050546
0.0529022
0.0552966
0.0576969
0.0600826
0.0624224
0.0647321
0.0669981
0.0692391
0.0714329
0.0736036
0.0757211
0.0778142
0.0798503
0.0818551
0.0838087
0.0857132
0.0875107
0.0892651
0.0909461
0.0926081
0.0942244
0.0958045
0.097382
0.0986744
0.100093
0.101469
0.102845
0.104232
0.105593
0.106915
0.108203
0.109476
0.110724
0.111965
0.113183
0.114396
0.115584
0.116769
0.117926
0.119083
0.120207
0.121338
0.12243
0.123539
0.1246
0.125686
0.126719
0.127781
0.128787
0.12986
0.130632
0.131653
0.132512
0.13361
0.13445
0.135692
0.0235755
0.0227342
0.0219027
0.021248
0.0206511
0.0200448
0.0194645
0.0189297
0.0184603
0.0180281
0.0176574
0.0173217
0.0169765
0.0167392
0.0163618
0.0159629
0.0154134
0.0148843
0.0144424
0.0140387
0.0136882
0.0133876
0.0130935
0.0128792
0.0126468
0.0125365
0.012332
0.0123307
0.0121496
0.0121893
0.012442
0.0124137
0.0128206
0.0128694
0.0132472
0.0134732
0.0143801
0.0141544
0.0141987
0.0148701
0.0155665
0.0154537
0.0161779
0.0169151
0.0177533
0.018705
0.0197415
0.0208756
0.0220782
0.023369
0.0247206
0.0261559
0.0276484
0.0292191
0.0308431
0.0325359
0.0342728
0.0360679
0.0378882
0.0397696
0.0417095
0.0437078
0.04575
0.0478183
0.049875
0.0519397
0.0539835
0.0560032
0.0579947
0.059963
0.0618772
0.0637734
0.0656192
0.0674509
0.0692305
0.0710047
0.0727271
0.0744521
0.0761237
0.0778025
0.0794057
0.0810072
0.0825313
0.0840711
0.0855398
0.087053
0.0884813
0.0899785
0.0913642
0.0928555
0.0941894
0.0956885
0.0969524
0.0984917
0.0996428
0.101212
0.102339
0.10403
0.105014
0.106868
0.0162165
0.0154045
0.0145805
0.0136218
0.0127337
0.0120364
0.0114818
0.0110323
0.0106592
0.0103437
0.0100694
0.00982959
0.0096181
0.00943638
0.00926574
0.00910523
0.00894327
0.00877917
0.00861558
0.00845673
0.00829974
0.00815388
0.00800617
0.00787522
0.00773793
0.00762609
0.0074971
0.00741097
0.00730483
0.00724435
0.00717623
0.00715403
0.00711804
0.00710398
0.00705925
0.00705024
0.00703708
0.00702104
0.00699305
0.00689693
0.00696871
0.00703099
0.0070727
0.007112
0.00717731
0.00729676
0.00744947
0.00760479
0.00777045
0.00797178
0.00818469
0.00844478
0.00871811
0.009053
0.00940253
0.00982505
0.0102634
0.0107854
0.0113193
0.0119467
0.0125811
0.0133187
0.0140614
0.0149183
0.0157769
0.0167551
0.0177284
0.018826
0.0199099
0.021124
0.0223116
0.0236327
0.0249164
0.026338
0.0277112
0.0292292
0.0306869
0.032296
0.0338274
0.035521
0.0371367
0.0389448
0.0406458
0.0425456
0.044286
0.04623
0.0479671
0.0499413
0.0516464
0.0536415
0.0552867
0.0573002
0.0588591
0.060896
0.06234
0.0644175
0.0657161
0.067835
0.0692195
0.0713211
0.00875453
0.00878818
0.00868205
0.00850839
0.00829826
0.00807538
0.00785681
0.00765143
0.00746435
0.00729679
0.00714824
0.00701722
0.00690129
0.00679908
0.00670786
0.00662667
0.0065527
0.00648547
0.0064224
0.00636359
0.00630646
0.00625258
0.00619962
0.00614988
0.00609786
0.00604972
0.0060002
0.00595701
0.00591155
0.00587302
0.00583305
0.00579988
0.00576505
0.0057335
0.00570312
0.0056745
0.00564802
0.00562195
0.00559568
0.00557033
0.00554845
0.00553137
0.00551488
0.00550117
0.00548926
0.00548024
0.00547782
0.00547297
0.00547906
0.00547583
0.00549315
0.00548751
0.00550658
0.00552115
0.00553762
0.00557262
0.00559637
0.00564617
0.00567996
0.0057484
0.00579212
0.00588352
0.00593959
0.00606112
0.00613799
0.00628738
0.00638645
0.00658512
0.00670007
0.00693678
0.00708353
0.00738396
0.00756686
0.00794091
0.00816929
0.00862758
0.00891502
0.00946079
0.00981831
0.010471
0.0109089
0.0116853
0.0122161
0.0131335
0.0137666
0.0148365
0.0155678
0.0167939
0.017614
0.0189956
0.0198941
0.0214269
0.0223914
0.0240644
0.0250763
0.0268807
0.0279128
0.029868
0.0307624
0.0335645
0.0068996
0.0068363
0.00674248
0.00664019
0.00653954
0.00644336
0.00635411
0.0062711
0.00619433
0.00612264
0.00605554
0.00599251
0.00593288
0.00587651
0.00582284
0.00577204
0.00572344
0.00567738
0.00563356
0.00559255
0.00555347
0.00551686
0.00548261
0.0054525
0.0054279
0.00540629
0.005386
0.00536587
0.00534578
0.0053253
0.00530486
0.00528439
0.00526406
0.00524439
0.00522446
0.00520542
0.00518561
0.00516607
0.00514676
0.00512934
0.00511172
0.00509638
0.00507974
0.00506662
0.00505125
0.00504089
0.00502741
0.00502006
0.00500861
0.00500298
0.00499507
0.00498975
0.00498252
0.00497858
0.00497253
0.00496792
0.00496402
0.00495672
0.00495508
0.00494632
0.00493981
0.00494542
0.0049457
0.00494695
0.00496179
0.00492525
0.00492551
0.00496744
0.00493609
0.00496743
0.00498991
0.00498263
0.00495498
0.0049668
0.00498188
0.00500534
0.00501543
0.0050411
0.00506647
0.00510818
0.00515412
0.0052172
0.0052768
0.00537041
0.00544762
0.00557615
0.00567609
0.00584092
0.00595146
0.00618121
0.00632571
0.00660314
0.00679656
0.00715375
0.0073455
0.00783848
0.00812322
0.00864989
0.0089006
0.00997379
0.00590909
0.0058893
0.00586289
0.00582966
0.00579184
0.00575113
0.00570985
0.00566879
0.00562946
0.00559186
0.0055568
0.00552337
0.00549186
0.00546089
0.00543069
0.00539997
0.0053694
0.00533819
0.00530739
0.00527649
0.00524673
0.00521774
0.0051903
0.00516384
0.00513867
0.00511443
0.00509125
0.00506893
0.0050473
0.00502636
0.0050058
0.00498583
0.00496617
0.00494717
0.00492863
0.00491098
0.00489399
0.00487815
0.00486309
0.00484926
0.00483619
0.00482432
0.00481314
0.00480301
0.00479341
0.00478466
0.00477623
0.00476842
0.00476077
0.00475347
0.00474628
0.00473912
0.00473216
0.00472483
0.00471794
0.00471024
0.00470338
0.00469535
0.0046884
0.00468036
0.00467259
0.00466423
0.00465525
0.00464741
0.00463819
0.00462916
0.00461969
0.00461391
0.00460428
0.00459975
0.00459133
0.00458935
0.00458068
0.0045798
0.00457268
0.0045726
0.00456487
0.00456611
0.00455772
0.00456169
0.00455302
0.0045596
0.0045523
0.00455884
0.00455776
0.00455905
0.00456949
0.00458987
0.00459166
0.00463026
0.00462841
0.00462917
0.00461808
0.00463819
0.0046485
0.00466893
0.00468935
0.00473327
0.00469381
0.00487886
0.00533161
0.00530978
0.00528936
0.00527087
0.00525499
0.00523929
0.00522252
0.00520226
0.00517862
0.00515092
0.00512097
0.00508906
0.00505748
0.00502625
0.0049973
0.00496988
0.00494536
0.00492239
0.00490201
0.00488253
0.00486488
0.00484721
0.00483047
0.0048129
0.00479566
0.00477714
0.00475875
0.00473911
0.00471981
0.00469959
0.00468014
0.00466024
0.00464158
0.00462292
0.00460585
0.00458909
0.00457415
0.00455963
0.00454699
0.00453474
0.0045243
0.00451413
0.00450562
0.0044972
0.00449023
0.00448318
0.0044773
0.00447118
0.00446594
0.00446037
0.00445539
0.00445002
0.004445
0.0044396
0.00443435
0.00442878
0.00442321
0.00441745
0.00441164
0.00440583
0.00439988
0.00439418
0.00438836
0.00438295
0.00437724
0.00437228
0.00436683
0.00436233
0.00435713
0.00435289
0.00434813
0.00434425
0.00433963
0.00433621
0.00433139
0.00432829
0.00432333
0.0043203
0.00431573
0.00431275
0.00430903
0.00430595
0.00430364
0.00429981
0.00429835
0.00429314
0.00429368
0.00428943
0.00429022
0.00428763
0.00428942
0.00428846
0.00428968
0.00429134
0.00428943
0.00429648
0.00429336
0.00430421
0.00430631
0.00430875
0.00493717
0.00493575
0.00492919
0.0049182
0.00490389
0.00488621
0.00486672
0.00484545
0.00482393
0.00480189
0.00478055
0.00475912
0.00473855
0.00471776
0.00469771
0.00467726
0.00465756
0.00463748
0.00461834
0.00459899
0.00458084
0.00456264
0.00454587
0.00452913
0.00451394
0.00449873
0.00448512
0.00447138
0.00445921
0.00444677
0.00443589
0.00442461
0.00441486
0.00440458
0.00439584
0.00438643
0.00437856
0.00436989
0.00436274
0.00435464
0.00434806
0.00434037
0.00433419
0.00432677
0.00432086
0.00431362
0.00430792
0.00430082
0.0042953
0.00428838
0.00428307
0.00427638
0.00427135
0.00426497
0.00426029
0.00425428
0.00425003
0.00424444
0.00424063
0.00423546
0.00423209
0.00422729
0.00422433
0.00421984
0.0042172
0.00421291
0.00421052
0.00420632
0.00420411
0.0041999
0.00419783
0.00419357
0.0041916
0.00418728
0.0041854
0.00418103
0.00417928
0.00417489
0.0041733
0.00416894
0.00416755
0.00416329
0.00416213
0.00415798
0.00415702
0.00415302
0.00415226
0.00414839
0.0041479
0.004144
0.00414385
0.00413988
0.00414005
0.00413613
0.00413629
0.00413259
0.00413317
0.00413009
0.00411777
0.00413415
0.00463125
0.00463114
0.00462781
0.00462177
0.00461399
0.00460397
0.0045927
0.00457955
0.00456565
0.00455045
0.00453522
0.00451935
0.0045041
0.00448864
0.00447415
0.00445959
0.00444606
0.00443235
0.00441957
0.0044064
0.00439399
0.004381
0.0043687
0.00435576
0.0043436
0.00433088
0.00431917
0.00430706
0.00429624
0.00428517
0.0042756
0.00426581
0.0042576
0.00424908
0.00424209
0.00423456
0.00422847
0.00422156
0.00421597
0.00420929
0.00420389
0.00419718
0.00419176
0.00418489
0.00417938
0.00417236
0.00416683
0.00415978
0.00415436
0.00414744
0.00414228
0.00413566
0.00413092
0.00412475
0.00412055
0.00411492
0.00411131
0.00410625
0.00410326
0.00409873
0.00409631
0.00409224
0.00409029
0.00408656
0.00408499
0.00408144
0.00408012
0.00407663
0.00407548
0.00407192
0.00407087
0.00406718
0.00406618
0.00406237
0.00406138
0.00405747
0.00405649
0.00405255
0.0040516
0.00404766
0.00404681
0.00404288
0.00404221
0.00403826
0.00403783
0.00403383
0.00403363
0.00402964
0.00402953
0.00402561
0.00402554
0.00402156
0.00402172
0.00401761
0.00401806
0.00401381
0.00401337
0.00400988
0.00400876
0.0040049
0.00441937
0.00442106
0.00442002
0.0044164
0.00441124
0.00440413
0.00439618
0.00438681
0.00437714
0.00436646
0.00435587
0.00434452
0.00433351
0.00432187
0.00431074
0.00429906
0.00428804
0.00427654
0.00426583
0.00425471
0.00424451
0.00423394
0.00422438
0.00421447
0.00420561
0.00419637
0.00418817
0.00417953
0.00417193
0.0041638
0.0041567
0.00414901
0.00414236
0.00413505
0.00412883
0.00412189
0.0041161
0.00410952
0.00410416
0.00409793
0.004093
0.00408709
0.00408258
0.00407697
0.00407283
0.00406748
0.00406367
0.00405857
0.00405504
0.00405017
0.0040469
0.00404224
0.00403917
0.00403472
0.00403182
0.00402756
0.0040248
0.00402071
0.00401807
0.00401412
0.0040116
0.00400776
0.00400535
0.00400159
0.0039993
0.0039956
0.00399344
0.00398978
0.00398776
0.00398413
0.00398225
0.00397866
0.00397689
0.00397336
0.00397165
0.00396825
0.00396652
0.00396332
0.00396153
0.00395852
0.00395668
0.00395385
0.00395197
0.00394929
0.00394739
0.00394486
0.00394293
0.00394052
0.00393864
0.00393621
0.00393459
0.00393186
0.0039308
0.00392764
0.0039267
0.00392326
0.00392245
0.00391703
0.00392607
0.00390379
0.00426639
0.00426842
0.00426859
0.00426656
0.00426342
0.00425866
0.00425332
0.00424666
0.00423974
0.00423176
0.00422385
0.00421511
0.0042067
0.00419763
0.0041891
0.00417997
0.00417149
0.00416245
0.00415414
0.00414527
0.00413721
0.00412859
0.00412088
0.00411261
0.00410533
0.00409751
0.00409072
0.00408339
0.00407713
0.00407026
0.00406447
0.004058
0.0040526
0.00404643
0.00404133
0.00403537
0.00403051
0.00402471
0.00402007
0.0040144
0.00401
0.0040045
0.00400037
0.00399508
0.00399128
0.00398622
0.00398277
0.00397797
0.00397488
0.00397035
0.0039676
0.00396331
0.00396085
0.00395679
0.00395457
0.00395069
0.00394864
0.00394493
0.00394297
0.0039394
0.00393751
0.00393403
0.00393219
0.00392877
0.003927
0.00392359
0.00392191
0.00391849
0.00391691
0.00391347
0.00391198
0.00390856
0.00390711
0.00390377
0.00390232
0.00389909
0.0038976
0.00389452
0.00389295
0.00389006
0.00388839
0.0038857
0.00388393
0.00388141
0.00387956
0.00387722
0.00387528
0.00387315
0.00387102
0.00386923
0.00386678
0.00386539
0.00386273
0.00386159
0.00385907
0.00385655
0.00385502
0.00385157
0.00385007
0.00384704
0.00415442
0.00415683
0.00415816
0.00415742
0.00415567
0.00415232
0.00414845
0.00414332
0.004138
0.00413166
0.00412542
0.00411835
0.0041116
0.00410415
0.00409719
0.0040896
0.00408264
0.00407509
0.00406828
0.0040609
0.00405434
0.00404719
0.00404093
0.00403406
0.00402813
0.00402154
0.00401593
0.00400963
0.00400434
0.00399832
0.00399336
0.0039876
0.00398296
0.00397747
0.00397315
0.00396792
0.0039639
0.0039589
0.00395519
0.00395039
0.00394695
0.00394233
0.00393914
0.00393467
0.00393171
0.00392738
0.00392461
0.00392039
0.00391781
0.0039137
0.00391126
0.00390726
0.00390497
0.00390107
0.0038989
0.0038951
0.00389303
0.00388933
0.00388735
0.00388374
0.00388186
0.00387833
0.00387655
0.00387307
0.00387141
0.00386794
0.00386643
0.00386295
0.00386161
0.0038581
0.0038569
0.00385339
0.0038523
0.00384881
0.00384779
0.00384437
0.00384335
0.00384005
0.00383899
0.00383583
0.00383472
0.0038317
0.00383056
0.0038276
0.00382651
0.00382358
0.00382253
0.0038197
0.00381853
0.00381598
0.00381457
0.0038123
0.00381079
0.00380858
0.00380765
0.00380416
0.00380352
0.00379989
0.00379877
0.00379539
0.00406938
0.00407213
0.00407389
0.00407376
0.0040728
0.00407039
0.00406757
0.00406357
0.00405945
0.00405435
0.00404938
0.00404359
0.00403813
0.00403195
0.00402627
0.00401994
0.00401421
0.00400786
0.00400222
0.00399597
0.00399049
0.0039844
0.00397915
0.00397325
0.00396826
0.00396258
0.00395785
0.00395238
0.00394791
0.00394266
0.00393844
0.00393339
0.00392942
0.00392454
0.00392082
0.00391612
0.00391264
0.00390812
0.00390488
0.00390053
0.00389753
0.00389334
0.00389056
0.00388651
0.00388394
0.00388002
0.00387762
0.00387382
0.00387155
0.00386787
0.00386571
0.00386213
0.00386005
0.00385658
0.00385456
0.00385118
0.00384922
0.00384592
0.00384402
0.00384077
0.00383896
0.00383574
0.00383402
0.00383082
0.00382922
0.00382602
0.00382454
0.00382132
0.00381998
0.00381672
0.00381554
0.00381223
0.00381118
0.00380785
0.0038069
0.0038036
0.00380266
0.00379946
0.00379849
0.00379541
0.00379438
0.00379145
0.00379033
0.00378758
0.00378633
0.00378377
0.00378246
0.0037799
0.00377881
0.00377593
0.00377539
0.00377193
0.00377207
0.00376802
0.0037685
0.00376442
0.00376561
0.00376035
0.0037585
0.00375554
0.00400457
0.0040075
0.00400955
0.00400986
0.0040095
0.00400778
0.00400576
0.00400262
0.00399941
0.00399525
0.00399125
0.00398642
0.00398193
0.0039767
0.00397196
0.00396653
0.00396171
0.00395624
0.00395146
0.00394604
0.00394139
0.00393607
0.0039316
0.00392644
0.00392217
0.00391718
0.00391312
0.0039083
0.00390447
0.00389982
0.0038962
0.00389171
0.0038883
0.00388396
0.00388074
0.00387654
0.00387351
0.00386943
0.00386658
0.00386262
0.00385994
0.00385607
0.00385355
0.00384978
0.00384742
0.00384373
0.00384151
0.0038379
0.00383582
0.00383228
0.00383032
0.00382686
0.00382502
0.00382163
0.00381988
0.00381655
0.00381489
0.00381162
0.00381004
0.00380681
0.00380531
0.00380212
0.00380069
0.00379752
0.00379618
0.00379302
0.00379175
0.0037886
0.00378741
0.00378426
0.00378316
0.00378
0.00377898
0.00377582
0.00377487
0.00377174
0.00377082
0.00376774
0.00376684
0.00376382
0.00376292
0.00375998
0.00375906
0.00375621
0.00375528
0.00375251
0.00375155
0.00374885
0.00374789
0.00374527
0.0037443
0.00374172
0.00374076
0.00373811
0.00373744
0.00373484
0.00373306
0.00373203
0.00372087
0.00373587
0.00395621
0.003959
0.00396112
0.00396166
0.00396166
0.00396039
0.00395889
0.00395631
0.00395372
0.00395019
0.00394686
0.0039427
0.00393891
0.00393437
0.00393033
0.00392559
0.00392145
0.00391664
0.00391252
0.00390772
0.00390369
0.00389896
0.00389507
0.00389045
0.00388672
0.00388222
0.00387866
0.0038743
0.00387092
0.00386669
0.00386348
0.00385938
0.00385635
0.00385236
0.0038495
0.00384562
0.00384291
0.00383914
0.00383659
0.0038329
0.00383049
0.00382688
0.00382461
0.00382108
0.00381894
0.00381547
0.00381346
0.00381005
0.00380815
0.00380479
0.003803
0.00379969
0.003798
0.00379475
0.00379315
0.00378993
0.00378842
0.00378524
0.0037838
0.00378065
0.00377928
0.00377616
0.00377486
0.00377176
0.00377051
0.00376743
0.00376625
0.00376317
0.00376206
0.00375899
0.00375794
0.00375487
0.00375389
0.00375083
0.0037499
0.00374687
0.00374597
0.00374297
0.0037421
0.00373916
0.00373829
0.00373541
0.00373454
0.00373172
0.00373084
0.0037281
0.0037272
0.00372454
0.0037236
0.00372104
0.00372006
0.00371758
0.00371658
0.00371406
0.00371332
0.00371088
0.00370903
0.00370812
0.00369731
0.00371177
0.00391928
0.00392192
0.00392401
0.00392465
0.00392488
0.0039239
0.00392277
0.00392059
0.00391846
0.00391539
0.00391256
0.0039089
0.00390562
0.00390156
0.00389803
0.00389376
0.00389012
0.00388575
0.0038821
0.00387773
0.00387415
0.00386982
0.00386634
0.00386209
0.00385875
0.0038546
0.00385141
0.00384737
0.00384433
0.00384039
0.00383751
0.00383367
0.00383093
0.00382718
0.00382458
0.00382092
0.00381846
0.00381487
0.00381254
0.00380902
0.00380682
0.00380337
0.00380128
0.00379789
0.00379593
0.00379259
0.00379074
0.00378745
0.0037857
0.00378247
0.00378082
0.00377762
0.00377607
0.0037729
0.00377144
0.00376831
0.00376692
0.00376382
0.0037625
0.00375942
0.00375816
0.00375511
0.0037539
0.00375086
0.0037497
0.00374668
0.00374558
0.00374256
0.00374152
0.0037385
0.00373753
0.00373451
0.00373359
0.00373058
0.00372972
0.00372672
0.0037259
0.00372293
0.00372214
0.00371921
0.00371843
0.00371555
0.00371477
0.00371195
0.00371116
0.00370842
0.00370761
0.00370493
0.00370411
0.00370148
0.00370065
0.00369807
0.00369721
0.0036949
0.00369372
0.00369097
0.00369006
0.00368539
0.00369382
0.00367331
0.0038911
0.00389358
0.00389558
0.00389624
0.00389656
0.00389573
0.00389481
0.00389286
0.003891
0.00388822
0.0038857
0.00388235
0.0038794
0.00387567
0.00387248
0.00386854
0.00386523
0.00386118
0.00385787
0.00385379
0.00385053
0.00384648
0.00384331
0.00383933
0.00383628
0.00383238
0.00382946
0.00382564
0.00382286
0.00381913
0.00381649
0.00381285
0.00381034
0.00380676
0.00380439
0.00380088
0.00379863
0.00379518
0.00379305
0.00378965
0.00378764
0.00378429
0.00378239
0.00377909
0.00377729
0.00377404
0.00377235
0.00376913
0.00376754
0.00376435
0.00376285
0.0037597
0.00375829
0.00375516
0.00375383
0.00375072
0.00374947
0.00374638
0.00374519
0.00374211
0.00374098
0.00373792
0.00373683
0.00373378
0.00373274
0.0037297
0.00372872
0.00372567
0.00372476
0.0037217
0.00372085
0.00371778
0.00371699
0.00371393
0.00371319
0.00371013
0.00370944
0.00370641
0.00370574
0.00370274
0.00370209
0.00369914
0.00369849
0.00369559
0.00369494
0.0036921
0.00369143
0.00368866
0.00368796
0.00368527
0.00368452
0.00368191
0.00368111
0.0036788
0.00367764
0.0036749
0.003674
0.00366945
0.00367784
0.00365731
0.00386821
0.00387052
0.00387241
0.00387304
0.00387339
0.00387266
0.00387185
0.00387008
0.0038684
0.00386584
0.00386354
0.00386043
0.00385773
0.00385426
0.00385132
0.00384764
0.00384459
0.00384081
0.00383775
0.00383393
0.00383091
0.00382712
0.00382419
0.00382044
0.00381762
0.00381394
0.00381124
0.00380763
0.00380505
0.00380151
0.00379906
0.00379558
0.00379324
0.00378982
0.0037876
0.00378423
0.00378213
0.00377879
0.0037768
0.0037735
0.00377163
0.00376836
0.00376659
0.00376335
0.00376169
0.00375848
0.00375692
0.00375372
0.00375226
0.00374909
0.00374771
0.00374456
0.00374327
0.00374014
0.00373891
0.00373579
0.00373464
0.00373153
0.00373044
0.00372734
0.00372631
0.0037232
0.00372223
0.00371911
0.00371822
0.00371507
0.00371426
0.00371108
0.00371036
0.00370713
0.00370652
0.00370324
0.00370273
0.00369941
0.003699
0.00369564
0.00369531
0.00369194
0.00369167
0.0036883
0.00368808
0.00368471
0.00368456
0.00368115
0.00368111
0.00367763
0.0036777
0.0036742
0.00367428
0.00367084
0.00367091
0.00366748
0.00366756
0.0036643
0.00366441
0.00366073
0.00366058
0.00365578
0.00366442
0.00364358
0.00384945
0.00385161
0.00385339
0.00385401
0.00385439
0.00385376
0.00385306
0.00385145
0.00384993
0.00384758
0.00384548
0.00384261
0.00384012
0.0038369
0.00383418
0.00383075
0.00382793
0.00382438
0.00382153
0.00381794
0.00381512
0.00381154
0.00380878
0.00380523
0.00380255
0.00379905
0.00379647
0.00379301
0.00379053
0.00378713
0.00378475
0.00378139
0.00377911
0.00377579
0.00377361
0.00377032
0.00376825
0.00376499
0.00376302
0.00375978
0.00375792
0.0037547
0.00375295
0.00374974
0.0037481
0.00374491
0.00374336
0.00374019
0.00373873
0.00373558
0.00373421
0.00373108
0.00372978
0.00372667
0.00372543
0.00372236
0.00372117
0.00371812
0.00371698
0.00371395
0.00371287
0.00370983
0.00370882
0.00370576
0.00370483
0.00370174
0.00370091
0.00369777
0.00369705
0.00369385
0.00369325
0.00368999
0.0036895
0.00368618
0.00368581
0.00368245
0.00368217
0.00367879
0.00367857
0.0036752
0.00367501
0.00367169
0.00367147
0.00366827
0.00366797
0.00366488
0.00366456
0.00366146
0.00366129
0.00365802
0.00365809
0.00365464
0.0036548
0.00365149
0.00365157
0.00364803
0.00364902
0.00364428
0.00364268
0.00363943
0.00383586
0.00383783
0.00383946
0.00384002
0.00384036
0.00383976
0.0038391
0.00383758
0.00383614
0.00383391
0.00383191
0.00382917
0.00382678
0.00382369
0.00382104
0.00381772
0.00381494
0.00381148
0.00380865
0.00380512
0.00380228
0.00379873
0.00379593
0.00379239
0.00378965
0.00378613
0.00378346
0.00377997
0.0037774
0.00377395
0.00377147
0.00376807
0.0037657
0.00376235
0.00376008
0.00375677
0.00375462
0.00375135
0.00374932
0.00374608
0.00374417
0.00374096
0.00373916
0.00373597
0.00373428
0.0037311
0.00372953
0.00372637
0.00372491
0.00372177
0.00372041
0.0037173
0.00371603
0.00371295
0.00371175
0.0037087
0.00370756
0.00370454
0.00370346
0.00370046
0.00369945
0.00369645
0.00369551
0.0036925