/*--------------------------------*- C++ -*----------------------------------*\
  =========                 |
  \\      /  F ield         | OpenFOAM: The Open Source CFD Toolbox
   \\    /   O peration     | Website:  https://openfoam.org
    \\  /    A nd           | Version:  8
     \\/     M anipulation  |
\*---------------------------------------------------------------------------*/
FoamFile
{
    version     2.0;
    format      ascii;
    class       volScalarField;
    location    "1.499985";
    object      epsilon;
}
// * * * * * * * * * * * * * * * * * * * * * * * * * * * * * * * * * * * * * //

dimensions      [0 2 -3 0 0 0 0];

internalField   nonuniform List<scalar> 
6800
(
468.682
1073.85
1032.62
896.432
692.161
475.176
293.898
147.818
74.7932
40.4152
427.165
976.773
922.229
767.811
512.108
297.518
145.601
71.9895
35.022
19.6881
543.65
896.561
828.799
613.76
356.806
174.994
82.6021
37.3684
18.3662
10.4068
589.39
785.345
712.18
477.859
228.574
97.3086
38.7282
18.4744
10.3496
6.85118
620.185
720.27
642.067
353.697
140.879
51.5719
22.8928
12.2739
7.63519
5.53002
632.214
667.057
556.672
234.387
82.3764
33.415
15.7794
8.91521
5.83943
4.54491
622.235
640.536
475.103
170.739
59.2628
22.0307
10.9606
6.97443
5.13125
4.20736
642.964
629.741
395.383
118.054
35.9451
15.7253
9.32756
6.21473
4.49752
3.77742
659.296
635.491
329.317
88.5979
29.2859
13.1665
7.56862
5.26545
4.1511
3.64186
698.778
646.575
261.916
62.2905
20.0696
10.4696
6.98131
5.01803
3.92788
3.41166
2588.63
1268.81
992.688
915.334
911.095
965.786
1042.02
1118.15
1167.65
1190.48
2485.26
1217.68
978.318
929.107
972.164
1086.37
1237.56
1398.85
1541.7
1622.84
2298.69
1147.32
958.045
959.803
1090
1306.71
1564.48
1803.65
1998.06
2089.23
2076.75
1073.66
946.048
1042.62
1303.19
1649.68
1952.96
2117.89
2194.43
2171.87
1843.21
1031.67
1008.99
1275.3
1735.34
2109.63
2222.77
2199.66
2052.9
1785.76
1638.83
1073.99
1281
1842.91
2288.07
2302.61
2176.36
1831.37
1557.6
1019.44
1461.46
1306.63
1955.31
2461.38
2342.72
1988.22
1494.72
1009.93
792.261
516.881
1377.61
1847.83
2474.19
2215.84
1594.24
1122.5
846.072
614.09
497.803
325.015
1162.27
2010.17
1789.19
1321.8
1017.77
788.553
613.147
454.723
358.958
205.554
831.294
1396.69
1247.25
1030.76
824.793
646.029
469.238
323.229
190.212
88.6877
1189.68
1109.66
1028.97
957.431
896.43
844.73
799.379
759.827
725.544
695.36
668.506
644.406
622.539
602.495
583.979
566.742
550.638
535.467
521.054
507.242
493.91
480.963
468.345
456.02
443.974
432.202
420.707
409.497
398.581
387.969
377.666
367.683
358.03
348.714
339.737
331.097
322.784
314.788
307.095
299.7
292.592
285.768
279.218
272.934
266.903
261.11
255.54
250.175
244.997
239.99
235.139
230.43
225.853
221.395
217.05
212.81
208.672
204.63
200.681
196.824
193.056
189.376
185.782
182.274
178.849
175.508
172.249
169.071
165.973
162.955
160.014
157.151
154.363
151.649
149.008
146.439
143.939
141.508
139.145
136.847
134.612
132.441
130.33
128.279
126.287
124.35
122.471
120.641
118.869
117.138
115.471
113.827
112.266
110.687
109.246
107.694
106.42
104.795
103.869
101.606
1640.29
1521.46
1397.82
1288.83
1195.75
1117.36
1050.4
993.302
943.637
899.957
861.152
826.532
795.198
766.556
740.188
715.711
692.847
671.299
650.809
631.169
612.232
593.898
576.111
558.838
542.066
525.791
510.015
494.742
479.979
465.727
451.973
438.726
425.986
413.753
402.022
390.782
380.009
369.686
359.786
350.299
341.211
332.509
324.181
316.209
308.575
301.257
294.234
287.482
280.979
274.705
268.641
262.77
257.078
251.551
246.182
240.961
235.883
230.94
226.129
221.444
216.883
212.443
208.12
203.912
199.816
195.832
191.956
188.187
184.521
180.958
177.494
174.128
170.857
167.679
164.591
161.592
158.679
155.851
153.105
150.439
147.85
145.338
142.899
140.531
138.234
136.003
133.84
131.736
129.701
127.713
125.801
123.915
122.128
120.318
118.671
116.892
115.437
113.587
112.524
109.929
2101.09
1989.91
1835.71
1697.48
1578.25
1476.41
1388.81
1313.12
1246.73
1187.76
1135.09
1087.29
1043.81
1003.98
967.283
933.192
901.32
871.202
842.462
814.872
788.241
762.472
737.514
713.343
689.963
667.37
645.569
624.562
604.35
584.891
566.165
548.211
531.036
514.627
498.953
483.979
469.653
455.937
442.791
430.207
418.173
406.678
395.703
385.228
375.221
365.652
356.487
347.692
339.237
331.092
323.232
315.634
308.281
301.152
294.247
287.551
281.054
274.745
268.619
262.668
256.887
251.272
245.818
240.521
235.378
230.385
225.538
220.834
216.267
211.834
207.531
203.354
199.302
195.369
191.554
187.853
184.263
180.781
177.404
174.13
170.955
167.876
164.891
161.997
159.192
156.47
153.834
151.271
148.796
146.378
144.056
141.764
139.597
137.4
135.407
133.249
131.483
129.245
127.974
124.868
2180.96
2113.72
1974.19
1842.54
1727.09
1625.84
1537.07
1459.14
1390.2
1328.4
1272.83
1222.14
1175.87
1133.19
1093.49
1056.44
1021.77
988.948
957.447
927.023
897.504
868.843
841.001
813.988
787.824
762.508
738.064
714.502
691.786
670.064
649.331
629.525
610.586
592.46
575.09
558.417
542.387
526.969
512.15
497.934
484.328
471.327
458.91
447.047
435.699
424.821
414.376
404.323
394.63
385.263
376.198
367.41
358.883
350.605
342.553
334.723
327.109
319.706
312.511
305.517
298.721
292.118
285.704
279.474
273.425
267.551
261.849
256.311
250.928
245.7
240.623
235.696
230.913
226.273
221.771
217.404
213.167
209.059
205.075
201.212
197.467
193.835
190.314
186.9
183.591
180.379
177.27
174.244
171.322
168.464
165.723
163.01
160.451
157.846
155.495
152.933
150.859
148.229
146.481
143.179
1712.54
1621.33
1530.72
1453.46
1388.89
1332.92
1283.47
1238.68
1197.74
1159.8
1125.12
1092.14
1061.75
1033.26
1006.15
980.304
955.907
932.288
909.05
886.151
863.279
840.557
817.991
795.729
773.882
752.493
731.662
711.38
691.698
672.573
654.109
636.406
619.437
603.117
587.384
572.165
557.424
543.125
529.304
515.996
503.23
491.005
479.319
468.138
457.42
447.112
437.171
427.563
418.255
409.215
400.418
391.843
383.478
375.313
367.343
359.561
351.965
344.552
337.32
330.266
323.388
316.682
310.147
303.782
297.582
291.547
285.667
279.947
274.387
268.981
263.721
258.604
253.625
248.783
244.071
239.49
235.034
230.703
226.493
222.402
218.427
214.565
210.815
207.169
203.632
200.19
196.854
193.598
190.453
187.365
184.405
181.458
178.688
175.842
173.291
170.48
168.211
165.336
163.368
159.774
923.34
834.176
767.516
722.006
690.177
667.141
650.789
639.618
631.662
626.521
624.616
621.833
622.934
622.361
623.399
623.687
623.014
621.917
619.201
616.493
611.364
605.133
597.823
589.829
581.51
572.682
563.814
554.66
545.33
536.021
526.778
517.925
509.381
500.941
492.526
484.21
475.938
467.577
459.276
451.159
443.274
435.624
428.28
421.17
414.264
407.521
400.927
394.462
388.123
381.863
375.66
369.506
363.397
357.338
351.332
345.389
339.512
333.709
327.983
322.34
316.78
311.307
305.927
300.644
295.458
290.369
285.368
280.458
275.641
270.92
266.291
261.759
257.321
252.98
248.735
244.586
240.533
236.576
232.713
228.945
225.27
221.687
218.195
214.789
211.474
208.234
205.087
202
199.015
196.064
193.237
190.398
187.739
184.974
182.516
179.764
177.566
174.746
172.793
169.27
476.543
431.695
393.768
363.786
340.054
321.178
306.695
294.999
285.807
278.517
273.16
269.292
266.908
265.443
264.686
264.071
263.756
263.278
263.397
262.67
263.065
263.885
265.142
266.41
268.115
269.831
271.668
273.744
275.784
278.123
280.463
283.418
286.628
289.807
292.418
294.608
295.852
296.296
296.242
296.707
296.482
296.375
296.041
295.371
294.581
293.721
292.928
291.991
291.021
289.83
288.421
286.82
285.037
283.106
281.032
278.847
276.551
274.167
271.7
269.163
266.553
263.907
261.226
258.508
255.743
252.951
250.128
247.284
244.403
241.529
238.657
235.788
232.923
230.074
227.24
224.432
221.646
218.893
216.171
213.489
210.845
208.244
205.686
203.169
200.7
198.265
195.885
193.525
191.232
188.935
186.732
184.482
182.381
180.15
178.184
175.93
174.146
171.822
170.152
167.208
297.751
267.02
240.069
217.133
197.678
181.102
167.15
155.102
144.801
135.706
128.067
121.544
116.029
111.289
107.082
103.151
99.8195
96.6824
94.0173
91.4788
89.354
87.5822
85.9768
85.0156
84.1324
83.8042
84.2196
84.3159
85.8671
86.0041
86.91
88.6035
90.9024
93.6997
96.4894
98.8047
101.147
103.458
105.715
108.13
110.821
113.606
116.694
120.116
123.781
127.593
131.48
135.385
139.254
143.044
146.689
150.178
153.464
156.558
159.42
162.076
164.493
166.694
168.665
170.417
171.947
173.264
174.396
175.302
175.995
176.487
176.72
177.228
177.297
177.236
176.976
176.558
176.036
175.473
174.845
174.169
173.433
172.66
171.839
170.994
170.111
169.211
168.281
167.337
166.37
165.384
164.383
163.354
162.324
161.248
160.198
159.071
158.014
156.83
155.792
154.535
153.535
152.197
151.167
149.415
185.462
164.094
145.103
128.83
114.905
102.955
92.6617
83.7932
76.0599
69.3277
63.3317
57.9991
53.2358
48.7816
45.0083
41.7559
38.9212
36.3794
34.1356
32.114
30.3099
28.7061
27.2582
25.9978
24.8724
23.9024
23.0761
22.3614
21.8547
21.3376
21.0405
21.1072
21.0959
21.2531
21.4615
21.7691
22.1239
22.4888
23.0818
23.7176
24.4418
25.344
25.8702
26.8389
27.9863
29.3102
30.7758
32.3974
34.1368
36.014
37.989
40.0865
42.2633
44.5489
46.895
49.3345
51.8124
54.3644
56.9283
59.5484
62.1463
64.7865
67.3798
70.0198
72.647
75.2808
77.8564
80.4252
82.9043
85.3337
87.6604
89.9208
92.0562
94.1171
96.045
97.8968
99.6107
101.251
102.754
104.19
105.489
106.729
107.834
108.887
109.792
110.646
111.361
112.039
112.586
113.106
113.506
113.886
114.157
114.404
114.577
114.704
114.678
114.65
114.582
114.487
79.8046
69.7147
60.4919
52.4794
45.6869
40.0232
35.3458
31.5025
28.3468
25.734
23.558
21.7115
20.1163
18.7131
17.4728
16.3666
15.3738
14.4722
13.6499
12.8944
12.196
11.551
10.9496
10.393
9.86995
9.39007
8.94047
8.52857
8.13609
7.77738
7.45285
7.16856
6.93674
6.74112
6.58037
6.44026
6.32964
6.25739
6.1882
6.21509
6.16857
6.13795
6.13645
6.15457
6.18905
6.25033
6.35559
6.53867
6.75124
7.01776
7.3076
7.65299
8.01801
8.44461
8.88819
9.40345
9.93032
10.5388
11.1522
11.8549
12.5543
13.3504
14.1366
15.0276
15.9032
16.892
17.8575
18.9441
19.9977
21.1817
22.3232
23.6054
24.834
26.2123
27.5248
28.996
30.386
31.9432
33.4008
35.0338
36.5445
38.2395
39.7838
41.5234
43.0915
44.8767
46.4454
48.2446
49.7752
51.5596
53.015
54.7615
56.1082
57.8054
59.0162
60.6607
61.7086
63.3209
64.0761
66.0837
22.6769
21.5121
20.154
18.724
17.3124
15.9778
14.7494
13.637
12.6385
11.7452
10.9465
10.2305
9.58713
9.00585
8.47878
7.99788
7.55743
7.15189
6.77719
6.42991
6.10706
5.80681
5.52664
5.2658
5.02193
4.79542
4.58364
4.38775
4.20525
4.037
3.88105
3.73741
3.60487
3.48324
3.37103
3.26904
3.17438
3.08948
3.01044
2.93976
2.87291
2.81263
2.75632
2.7066
2.65986
2.61982
2.58239
2.55336
2.5262
2.50855
2.49139
2.4865
2.48004
2.48246
2.48989
2.50493
2.52175
2.55341
2.57954
2.62973
2.66622
2.73804
2.78609
2.87886
2.93831
3.05861
3.13221
3.27892
3.37263
3.55671
3.66837
3.88949
4.02576
4.29644
4.46182
4.79503
4.99706
5.40243
5.65157
6.13634
6.43982
7.01237
7.37608
8.04514
8.47316
9.24578
9.7411
10.6213
11.1824
12.1714
12.7926
13.8888
14.5627
15.7596
16.4782
17.7654
18.5047
19.8772
20.5042
22.4872
12.2899
11.5633
10.8154
10.0702
9.34973
8.67293
8.05071
7.48834
6.98633
6.54126
6.14823
5.80041
5.49194
5.2162
4.96824
4.74297
4.53695
4.3468
4.17028
4.00534
3.85053
3.70466
3.5667
3.43608
3.31198
3.19416
3.08202
2.9756
2.87449
2.77891
2.68832
2.60305
2.52245
2.44694
2.3758
2.30946
2.24715
2.18934
2.13478
2.0841
2.03598
1.99118
1.94838
1.90836
1.86982
1.8337
1.79867
1.76604
1.73397
1.70458
1.67503
1.64916
1.62234
1.59928
1.57532
1.55572
1.53505
1.51913
1.50303
1.4891
1.4817
1.46682
1.45445
1.44354
1.43102
1.42781
1.42283
1.41222
1.41905
1.41513
1.41499
1.42865
1.44599
1.46754
1.47901
1.50377
1.51796
1.54513
1.55916
1.58796
1.60413
1.6385
1.65996
1.70633
1.7358
1.79789
1.83676
1.92167
1.97739
2.08453
2.15816
2.29667
2.38466
2.56299
2.68114
2.89029
3.02376
3.3094
3.43756
3.99854
7.26517
6.9349
6.59228
6.25243
5.92748
5.62319
5.34142
5.08111
4.84027
4.61612
4.40643
4.20914
4.02304
3.84719
3.68128
3.52497
3.37822
3.24074
3.11237
2.99263
2.88122
2.77748
2.68108
2.59131
2.50784
2.43
2.3575
2.28971
2.22639
2.16694
2.11114
2.05848
2.00875
1.96151
1.91656
1.87361
1.83247
1.79295
1.75492
1.71827
1.68288
1.64873
1.6157
1.58386
1.55302
1.52336
1.49463
1.46706
1.44035
1.41477
1.38998
1.36626
1.34325
1.32124
1.29987
1.27939
1.25949
1.24036
1.22179
1.20386
1.18664
1.17001
1.15406
1.1385
1.12353
1.10927
1.09533
1.08197
1.0691
1.05686
1.04463
1.03325
1.02183
1.01161
1.00074
0.991484
0.981294
0.972762
0.963202
0.95519
0.946393
0.938939
0.931187
0.92452
0.91818
0.912346
0.908197
0.902967
0.901009
0.899246
0.903048
0.903628
0.908105
0.910032
0.914095
0.922062
0.928558
0.940434
0.957833
0.984857
4.82272
4.6841
4.52933
4.36161
4.18721
4.01216
3.84177
3.67939
3.52749
3.38661
3.25687
3.13705
3.0262
2.92263
2.82537
2.73303
2.64508
2.56067
2.47975
2.40188
2.3274
2.25605
2.18831
2.12393
2.06338
2.00628
1.95297
1.9029
1.85631
1.81249
1.77162
1.73293
1.69659
1.66184
1.62889
1.59704
1.56656
1.53684
1.50822
1.48016
1.45305
1.4264
1.40064
1.37532
1.3509
1.32692
1.30387
1.28126
1.25962
1.2384
1.21818
1.19833
1.17949
1.16094
1.14338
1.12602
1.10962
1.09331
1.07793
1.06252
1.04803
1.0334
1.01967
1.00572
0.992722
0.979396
0.967077
0.954381
0.942753
0.930695
0.9197
0.908224
0.897868
0.886915
0.877182
0.866708
0.85752
0.84747
0.838709
0.82899
0.820605
0.811176
0.803111
0.794033
0.786327
0.777535
0.77006
0.761192
0.754253
0.745479
0.739339
0.730882
0.725415
0.717061
0.712051
0.703494
0.69911
0.689578
0.68533
0.676342
3.56022
3.47664
3.38607
3.29064
3.19343
3.09655
3.00158
2.90906
2.81954
2.73294
2.64954
2.5691
2.49194
2.41783
2.3471
2.27948
2.21526
2.15405
2.09608
2.04087
1.9886
1.93872
1.8914
1.84606
1.80293
1.76144
1.72186
1.68365
1.64717
1.61186
1.57815
1.54548
1.51431
1.48407
1.45526
1.42726
1.40062
1.37467
1.35001
1.32593
1.30306
1.28065
1.25937
1.23844
1.21859
1.19897
1.18038
1.16193
1.14446
1.12702
1.11054
1.094
1.07841
1.06267
1.04788
1.03285
1.01879
1.00441
0.991035
0.977259
0.964526
0.951311
0.93919
0.926504
0.914963
0.902772
0.891783
0.880054
0.869588
0.858292
0.848322
0.837425
0.827925
0.817396
0.808343
0.798154
0.789526
0.779647
0.771428
0.761829
0.754008
0.744663
0.737231
0.728113
0.721067
0.712149
0.705475
0.69674
0.690413
0.681865
0.675865
0.667501
0.66183
0.653599
0.648274
0.640159
0.635055
0.627069
0.623487
0.611723
2.88339
2.83103
2.77366
2.71188
2.6474
2.58149
2.5155
2.45009
2.38608
2.32367
2.26333
2.20493
2.14873
2.09443
2.04227
1.99189
1.94355
1.8969
1.85224
1.80923
1.76818
1.72872
1.69114
1.65502
1.62064
1.58751
1.55593
1.52535
1.4961
1.46763
1.44032
1.41361
1.38795
1.36279
1.33863
1.3149
1.29217
1.26983
1.24849
1.2275
1.20752
1.18782
1.16912
1.15062
1.1331
1.1157
1.09925
1.08282
1.06733
1.05176
1.0371
1.02228
1.00837
0.994217
0.980975
0.967421
0.954794
0.941785
0.929733
0.917229
0.905722
0.893692
0.882706
0.871122
0.860632
0.849465
0.839449
0.828673
0.819105
0.808691
0.79955
0.78947
0.780733
0.770963
0.762611
0.753126
0.745142
0.73592
0.72829
0.719315
0.712023
0.703281
0.696316
0.687796
0.681143
0.672834
0.666493
0.658365
0.652353
0.644375
0.6387
0.630869
0.625515
0.617813
0.612765
0.605227
0.600573
0.593151
0.588152
0.579826
2.49196
2.45272
2.41031
2.36493
2.31774
2.2694
2.22074
2.17201
2.12379
2.07613
2.02947
1.98373
1.93928
1.89594
1.85404
1.81335
1.77414
1.73613
1.69958
1.66415
1.63013
1.59712
1.56543
1.53465
1.5051
1.47637
1.4488
1.42194
1.3962
1.37109
1.34702
1.3235
1.30098
1.27891
1.25779
1.23703
1.21717
1.19759
1.17887
1.16035
1.14268
1.12512
1.10839
1.09171
1.07586
1.05998
1.04494
1.02981
1.01551
1.00107
0.98747
0.973666
0.960718
0.947503
0.935164
0.922495
0.910726
0.898562
0.887328
0.875631
0.864901
0.853635
0.843383
0.832517
0.822716
0.812221
0.80285
0.7927
0.783738
0.773909
0.765338
0.755806
0.74761
0.738355
0.730519
0.721523
0.714033
0.705277
0.698122
0.689588
0.682758
0.674428
0.667916
0.65977
0.653573
0.645592
0.639706
0.631871
0.626295
0.618588
0.61332
0.605729
0.600755
0.593247
0.588611
0.581253
0.576907
0.569791
0.565019
0.556994
2.25495
2.22255
2.18794
2.15104
2.11266
2.0732
2.03331
1.99314
1.95323
1.9136
1.87468
1.83636
1.799
1.76242
1.72693
1.69227
1.65876
1.62609
1.59456
1.56385
1.53427
1.50544
1.47769
1.45062
1.42458
1.39914
1.37466
1.35071
1.32767
1.30509
1.28338
1.26206
1.24158
1.22144
1.20212
1.18306
1.16482
1.14677
1.12952
1.1124
1.09605
1.07978
1.06427
1.04876
1.03401
1.0192
1.00516
0.990999
0.977611
0.96405
0.951279
0.938277
0.926086
0.913608
0.901965
0.889977
0.878853
0.867322
0.856687
0.845581
0.835407
0.824697
0.81496
0.804616
0.795295
0.785292
0.776367
0.766679
0.758133
0.74874
0.740556
0.731438
0.723602
0.714741
0.707241
0.698619
0.691443
0.683043
0.676182
0.667988
0.661435
0.65343
0.647178
0.639345
0.633391
0.625711
0.620054
0.612507
0.607147
0.599718
0.594652
0.587331
0.582544
0.575298
0.570839
0.56373
0.559549
0.552654
0.548088
0.540321
2.10248
2.07343
2.04273
2.01031
1.97686
1.94262
1.90809
1.87333
1.83874
1.8043
1.77036
1.73681
1.70397
1.67167
1.64021
1.60936
1.57942
1.55012
1.52175
1.494
1.46719
1.44097
1.41567
1.3909
1.36704
1.34365
1.32114
1.29904
1.27778
1.25688
1.23679
1.217
1.19798
1.17921
1.16119
1.14335
1.12626
1.10929
1.09305
1.07689
1.06144
1.04603
1.03133
1.01661
1.0026
0.988526
0.975176
0.961699
0.948961
0.936043
0.92388
0.911483
0.89986
0.887948
0.876832
0.865371
0.854733
0.843693
0.833506
0.822859
0.813098
0.802817
0.793462
0.783523
0.774554
0.764934
0.756334
0.747014
0.738767
0.729729
0.721819
0.713045
0.70546
0.696935
0.689664
0.68137
0.674404
0.666326
0.659655
0.651778
0.645395
0.637706
0.6316
0.624089
0.61825
0.610905
0.605331
0.598128
0.592829
0.585742
0.580719
0.573743
0.56898
0.562095
0.557584
0.550832
0.546669
0.540021
0.535541
0.528058
1.99924
1.97218
1.94388
1.91422
1.88377
1.85266
1.82133
1.78977
1.75836
1.72704
1.69614
1.66554
1.63556
1.606
1.57718
1.54885
1.52132
1.4943
1.46811
1.44243
1.41758
1.39322
1.36969
1.34659
1.32431
1.30242
1.28132
1.26056
1.24058
1.22088
1.20193
1.18322
1.16524
1.14744
1.13036
1.11341
1.09717
1.08101
1.06554
1.05011
1.03537
1.02062
1.00656
0.992439
0.979021
0.965493
0.952677
0.939704
0.927457
0.915004
0.903293
0.891327
0.880123
0.86861
0.857885
0.846796
0.836524
0.825828
0.815987
0.805659
0.796224
0.78624
0.777192
0.767531
0.758851
0.749493
0.741164
0.732091
0.724098
0.715294
0.707622
0.699071
0.69171
0.683397
0.676336
0.668246
0.661476
0.653593
0.647109
0.639416
0.633214
0.625691
0.619773
0.612397
0.606767
0.599522
0.594167
0.587058
0.581948
0.574987
0.570103
0.563279
0.558633
0.551902
0.547513
0.540888
0.536655
0.530164
0.527254
0.51741
1.92547
1.8996
1.87277
1.84485
1.81631
1.78725
1.75804
1.72864
1.6994
1.67021
1.64143
1.61287
1.58488
1.55723
1.53025
1.50368
1.47783
1.45242
1.42776
1.40354
1.38008
1.35703
1.33475
1.31285
1.2917
1.27088
1.25081
1.23102
1.21196
1.19314
1.17502
1.15711
1.13988
1.1228
1.1064
1.09011
1.07449
1.05892
1.04403
1.02915
1.01494
1.00069
0.987124
0.973472
0.960509
0.947413
0.93502
0.922445
0.910589
0.898503
0.887156
0.875528
0.864661
0.853461
0.84305
0.83225
0.822269
0.811843
0.802273
0.792196
0.783016
0.773267
0.764458
0.755017
0.746565
0.737411
0.729301
0.720418
0.712636
0.704007
0.696542
0.68815
0.680993
0.672824
0.665964
0.658002
0.651433
0.643664
0.637378
0.629787
0.62378
0.616352
0.610619
0.60334
0.597876
0.590734
0.585533
0.578516
0.573572
0.566669
0.561979
0.555175
0.550746
0.544027
0.539823
0.533192
0.529359
0.522692
0.519772
0.5101
1.87059
1.84552
1.81968
1.79293
1.76572
1.73806
1.71032
1.68241
1.65468
1.627
1.5997
1.5726
1.54603
1.51977
1.49412
1.46884
1.44423
1.42001
1.39649
1.37336
1.35094
1.3289
1.30757
1.28658
1.26629
1.2463
1.22701
1.20798
1.18963
1.1715
1.15403
1.13674
1.12011
1.1036
1.08774
1.07197
1.05684
1.04175
1.02731
1.01286
0.999058
0.985209
0.972019
0.958733
0.946117
0.933359
0.921285
0.909023
0.897462
0.885665
0.874591
0.863232
0.85262
0.84167
0.831495
0.820928
0.811168
0.80096
0.791595
0.781724
0.772736
0.763179
0.754551
0.74529
0.737007
0.728023
0.720073
0.711349
0.70372
0.69524
0.68792
0.679668
0.672648
0.664611
0.657883
0.650045
0.643602
0.63595
0.629784
0.622304
0.616411
0.60909
0.603463
0.596288
0.590923
0.583881
0.578774
0.571852
0.567001
0.560185
0.555587
0.548864
0.544524
0.537883
0.533764
0.527203
0.523452
0.516854
0.513968
0.50447
1.82923
1.80464
1.77944
1.75348
1.72717
1.70049
1.67378
1.64694
1.62029
1.5937
1.56748
1.54146
1.51594
1.4907
1.46605
1.44173
1.41805
1.39472
1.37206
1.34976
1.32813
1.30684
1.28622
1.26592
1.24629
1.22693
1.20824
1.18978
1.17198
1.15437
1.1374
1.12059
1.10441
1.08834
1.0729
1.05753
1.04278
1.02806
1.01397
0.999863
0.986387
0.972855
0.959961
0.946969
0.934625
0.92214
0.910317
0.898308
0.886979
0.875418
0.864558
0.853418
0.843003
0.832259
0.822268
0.811894
0.802305
0.792278
0.783072
0.77337
0.76453
0.755133
0.746644
0.737534
0.729382
0.72054
0.712712
0.704124
0.696609
0.688258
0.681046
0.672918
0.665999
0.65808
0.651446
0.643724
0.637367
0.629827
0.623741
0.616372
0.610551
0.603339
0.597778
0.590709
0.585406
0.578465
0.573419
0.566591
0.561799
0.555075
0.550533
0.543903
0.539601
0.533038
0.529015
0.522577
0.518794
0.512568
0.508405
0.501362
1.79714
1.77285
1.74807
1.72266
1.69699
1.67102
1.64506
1.61901
1.59316
1.56739
1.54198
1.51676
1.49203
1.46757
1.44368
1.4201
1.39713
1.3745
1.35251
1.33085
1.30985
1.28915
1.26912
1.24937
1.23026
1.21141
1.1932
1.17522
1.15785
1.14067
1.12411
1.10769
1.09188
1.07617
1.06107
1.04603
1.03159
1.01718
1.00337
0.989545
0.976328
0.963055
0.950398
0.937644
0.925517
0.913252
0.901629
0.889824
0.878677
0.867306
0.856614
0.845651
0.83539
0.824811
0.814961
0.804741
0.795283
0.785401
0.776315
0.76675
0.758022
0.748754
0.740368
0.73138
0.723322
0.714598
0.706857
0.698381
0.690945
0.682703
0.675562
0.667541
0.660687
0.652871
0.646296
0.638673
0.632371
0.624928
0.618891
0.611615
0.605839
0.598718
0.593198
0.586219
0.580951
0.5741
0.569083
0.562344
0.55758
0.550937
0.546426
0.539872
0.5356
0.529109
0.525116
0.518749
0.514994
0.508821
0.504697
0.497726
1.77217
1.74805
1.72352
1.69848
1.67327
1.64781
1.62241
1.59695
1.57172
1.54657
1.52179
1.49721
1.47311
1.44926
1.42597
1.40298
1.38059
1.35851
1.33706
1.31592
1.2954
1.27519
1.25561
1.23629
1.21761
1.19916
1.18133
1.16371
1.14669
1.12984
1.11359
1.09747
1.08195
1.06651
1.05167
1.03687
1.02267
1.00848
0.994885
0.981267
0.968242
0.955159
0.942677
0.930099
0.918132
0.906029
0.894552
0.882898
0.871886
0.860656
0.850087
0.839254
0.829107
0.818649
0.808903
0.798798
0.789435
0.779662
0.770665
0.761203
0.752555
0.743387
0.735073
0.726183
0.718189
0.709561
0.701875
0.693497
0.686107
0.677964
0.670862
0.662941
0.656116
0.648405
0.641851
0.634335
0.628046
0.620714
0.614682
0.607521
0.601742
0.594741
0.589205
0.582358
0.577055
0.570353
0.565283
0.558704
0.553876
0.547396
0.542813
0.536429
0.532076
0.525772
0.521639
0.515456
0.511632
0.505551
0.501421
0.494563
1.75355
1.72945
1.70504
1.68022
1.65529
1.63018
1.60517
1.58012
1.55533
1.53063
1.50631
1.48219
1.45854
1.43515
1.4123
1.38974
1.36776
1.34609
1.32502
1.30425
1.28409
1.26422
1.24495
1.22595
1.20755
1.18938
1.1718
1.15443
1.13764
1.12101
1.10497
1.08905
1.07371
1.05845
1.04377
1.02914
1.01509
1.00105
0.987595
0.974113
0.961217
0.94826
0.935897
0.923436
0.91158
0.899586
0.888212
0.87666
0.865746
0.85461
0.844135
0.833392
0.823335
0.81296
0.803303
0.793276
0.784
0.774301
0.765388
0.755997
0.747431
0.738331
0.730097
0.721272
0.713355
0.704792
0.697179
0.688864
0.681544
0.673464
0.666427
0.658569
0.651805
0.644158
0.637659
0.630209
0.623971
0.616702
0.61072
0.603619
0.597891
0.59094
0.585468
0.578649
0.573434
0.566731
0.561765
0.555181
0.550439
0.543985
0.53945
0.533117
0.528796
0.522549
0.518464
0.512305
0.508365
0.502323
0.49962
0.490466
1.73972
1.71557
1.69118
1.66646
1.64169
1.61679
1.59201
1.56724
1.54272
1.51832
1.49429
1.47046
1.44709
1.42398
1.40139
1.37909
1.35734
1.33589
1.31503
1.29445
1.27447
1.25477
1.23565
1.21679
1.19852
1.18048
1.16302
1.14575
1.12907
1.11254
1.09659
1.08077
1.06552
1.05037
1.03578
1.02126
1.0073
0.993366
0.980008
0.966631
0.953837
0.940982
0.928716
0.916353
0.904592
0.892696
0.881418
0.869965
0.859149
0.848113
0.837737
0.827094
0.817137
0.806864
0.797306
0.78738
0.778202
0.768602
0.759786
0.750495
0.742023
0.733022
0.724878
0.716151
0.708321
0.699854
0.692325
0.684103
0.676864
0.668875
0.661914
0.654145
0.647456
0.639893
0.633468
0.626098
0.619931
0.61274
0.606826
0.599801
0.594135
0.587264
0.58184
0.575115
0.569922
0.563335
0.55837
0.551904
0.547173
0.540808
0.53631
0.530042
0.525767
0.519577
0.515519
0.509446
0.50569
0.499716
0.49567
0.48893
1.72875
1.70451
1.6801
1.65541
1.63071
1.6059
1.58122
1.55654
1.5321
1.50777
1.48377
1.45998
1.4366
1.41348
1.39085
1.36853
1.34674
1.32527
1.30437
1.2838
1.26379
1.24405
1.22489
1.20599
1.1877
1.16967
1.15224
1.13504
1.11844
1.10204
1.08622
1.07057
1.05549
1.04054
1.02615
1.01185
0.998111
0.984407
0.971276
0.958135
0.945571
0.932961
0.920939
0.908827
0.897309
0.88566
0.874616
0.863398
0.8528
0.841986
0.831811
0.821374
0.811602
0.801519
0.792129
0.782377
0.773352
0.763911
0.755235
0.746087
0.737743
0.728871
0.720844
0.712234
0.704512
0.696149
0.68872
0.680592
0.673444
0.66554
0.658664
0.650974
0.64436
0.636871
0.630514
0.623214
0.617108
0.609982
0.604125
0.597159
0.59155
0.584726
0.579368
0.572666
0.567563
0.560967
0.55611
0.549629
0.544985
0.538635
0.534186
0.527958
0.523715
0.517569
0.513556
0.507492
0.50362
0.497681
0.495003
0.485958
1.72032
1.69569
1.67081
1.64579
1.62065
1.59526
1.56993
1.54453
1.51938
1.49434
1.46973
1.44536
1.42156
1.39809
1.37526
1.35281
1.33105
1.30966
1.28898
1.26866
1.24905
1.22984
1.2113
1.19308
1.17551
1.15819
1.14148
1.12498
1.10905
1.09328
1.07807
1.06298
1.04844
1.03397
1.02004
1.00615
0.992797
0.979445
0.966636
0.953791
0.941495
0.929127
0.917319
0.905402
0.894058
0.882569
0.871666
0.860583
0.850102
0.839403
0.829324
0.818988
0.809294
0.799302
0.789976
0.780307
0.771335
0.76197
0.753338
0.74426
0.735954
0.727146
0.719154
0.710602
0.70291
0.694601
0.6872
0.679121
0.671999
0.664139
0.657289
0.649637
0.643048
0.635595
0.62926
0.621993
0.615908
0.608814
0.602974
0.596041
0.590444
0.583656
0.578303
0.571642
0.566535
0.559986
0.555119
0.548683
0.544034
0.537719
0.533275
0.527072
0.522837
0.516714
0.512708
0.506667
0.5028
0.496865
0.494211
0.485217
1.69559
1.66968
1.64409
1.61841
1.59314
1.56812
1.54354
1.51924
1.49543
1.47191
1.44893
1.42626
1.40415
1.38235
1.36112
1.34021
1.31987
1.29983
1.28035
1.26115
1.24252
1.22413
1.20629
1.18868
1.17161
1.15473
1.13839
1.1222
1.10654
1.09101
1.076
1.06108
1.04668
1.03234
1.01853
1.00474
0.991476
0.978205
0.965467
0.952687
0.94045
0.928136
0.916376
0.904505
0.893202
0.881752
0.870884
0.859834
0.849382
0.838713
0.828659
0.818351
0.808676
0.79871
0.789399
0.779756
0.770795
0.761455
0.752831
0.743777
0.735477
0.726692
0.718703
0.710173
0.702484
0.694195
0.686796
0.678736
0.671615
0.663773
0.656923
0.649286
0.6427
0.635258
0.628928
0.621669
0.615589
0.608503
0.602667
0.595743
0.590145
0.583374
0.578005
0.571381
0.566233
0.559746
0.55482
0.548447
0.543758
0.537471
0.533023
0.526821
0.522599
0.516467
0.512458
0.506443
0.502737
0.496814
0.49283
0.486142
2.93574
3.13776
3.23035
3.55661
3.7423
4.26923
4.91727
6.10695
9.09143
23.2849
2.62965
2.75273
2.81286
3.04029
3.16724
3.52917
3.8793
4.51361
5.51448
12.8393
2.44694
2.5122
2.54466
2.67895
2.75773
3.01012
3.18994
3.66136
4.06695
7.50023
2.33258
2.36832
2.38531
2.45951
2.50366
2.6557
2.75861
3.07187
3.28783
4.91168
2.2372
2.25815
2.26733
2.31244
2.33745
2.42706
2.48581
2.67462
2.80159
3.61642
2.16472
2.17466
2.17812
2.20497
2.21887
2.27316
2.30659
2.41707
2.49087
2.91309
2.10842
2.10947
2.10943
2.12263
2.12979
2.16188
2.18102
2.24596
2.28821
2.51373
2.06466
2.05942
2.05639
2.05994
2.06222
2.07885
2.08901
2.12628
2.15013
2.27448
2.02984
2.02087
2.01374
2.01078
2.00923
2.01593
2.01979
2.03944
2.0518
2.12248
2.00186
1.99069
1.97981
1.97356
1.96707
1.96644
1.96636
1.97411
1.97931
2.0198
1.97922
1.9669
1.95277
1.94422
1.93386
1.92915
1.92342
1.92363
1.92412
1.94552
1.96198
1.94706
1.93222
1.9201
1.90847
1.89923
1.89088
1.88527
1.88056
1.89025
1.94783
1.93164
1.9151
1.90179
1.8872
1.87697
1.86392
1.85727
1.84496
1.84872
1.93614
1.91993
1.90102
1.88763
1.87006
1.85935
1.84289
1.83475
1.81715
1.81659
1.92676
1.91101
1.88986
1.87665
1.85661
1.84553
1.82646
1.81713
1.79821
1.79171
1.91969
1.90419
1.88155
1.86808
1.84668
1.83461
1.81436
1.80317
1.78416
1.77327
1.91474
1.8982
1.87579
1.86073
1.83982
1.82557
1.8059
1.79199
1.77346
1.75968
1.9113
1.893
1.87149
1.85448
1.8344
1.81811
1.79903
1.78309
1.76471
1.74895
1.90945
1.89005
1.86875
1.85056
1.83055
1.81308
1.79388
1.77677
1.75803
1.74108
1.90033
1.87854
1.85643
1.83598
1.81499
1.79548
1.77518
1.75628
1.73637
1.71784
3.01612
3.34283
3.87125
4.69533
6.16397
9.41848
19.6384
73.6433
470.46
817.16
3.02008
3.3441
3.87043
4.79488
6.39903
9.82441
19.97
74.944
496.605
812.876
3.02182
3.33398
3.90266
4.83571
6.47308
10.0346
21.5887
78.4358
524.487
794.197
3.02712
3.33316
3.89509
4.94349
6.75996
10.611
22.4442
85.5397
565.174
786.003
3.02329
3.33665
3.95101
5.03252
6.82162
10.5548
24.3439
90.572
599.073
788.83
3.06979
3.34855
3.9348
5.10162
7.27292
11.5017
26.3981
104.215
638.915
769.276
3.08336
3.4372
4.09825
5.3278
7.3736
11.6381
28.8973
113.01
676.314
762.982
3.1509
3.45469
4.11959
5.41906
8.20902
13.184
33.6356
136.292
677.707
728.122
3.20465
3.62027
4.40992
5.91543
8.48626
13.6099
37.2632
166.067
670.146
724.678
3.32812
3.68139
4.49274
6.10141
9.89938
17.7392
49.2979
214.072
655.842
707.749
3.17869
3.46801
4.25557
4.44067
8.87758
12.3825
18.0526
110.424
475.122
1143.65
3.12821
3.46286
4.00468
4.64092
5.88686
11.2399
21.3609
91.472
429.628
1084.09
3.13289
3.44609
3.93966
4.61207
5.17282
10.9193
21.0462
85.2347
422.054
1042.11
3.12866
3.40766
3.88652
4.73744
5.57981
9.68917
20.7082
79.7739
423.875
1011.24
3.12598
3.39244
3.88237
4.68318
5.92122
8.86298
20.6341
78.7029
437.725
997.568
3.1079
3.37395
3.88112
4.66984
6.05189
8.69598
19.214
77.5039
464.679
973.571
3.08394
3.36267
3.87008
4.66312
6.1002
8.79698
18.4175
75.7762
472.316
934.008
3.0556
3.34908
3.8546
4.6515
6.10734
9.00732
18.3155
74.2306
454.004
890.989
3.02618
3.32388
3.83528
4.63972
6.13084
9.1942
18.7022
74.4659
448.29
856.305