/*--------------------------------*- C++ -*----------------------------------*\
  =========                 |
  \\      /  F ield         | OpenFOAM: The Open Source CFD Toolbox
   \\    /   O peration     | Website:  https://openfoam.org
    \\  /    A nd           | Version:  8
     \\/     M anipulation  |
\*---------------------------------------------------------------------------*/
FoamFile
{
    version     2.0;
    format      ascii;
    class       volScalarField;
    location    "1.499985";
    object      k;
}
// * * * * * * * * * * * * * * * * * * * * * * * * * * * * * * * * * * * * * //

dimensions      [0 2 -2 0 0 0 0];

internalField   nonuniform List<scalar> 
6800
(
7.42462
17.9492
20.5883
20.1806
19.1056
16.9
12.6051
8.3351
4.52897
2.8652
6.61057
17.8131
19.8278
19.2154
17.3861
12.9557
7.8233
4.21724
2.49147
1.81103
8.27819
17.8775
18.9972
17.9682
14.5242
8.37773
4.34956
2.55822
1.69331
1.15976
8.93581
17.4812
18.2706
16.424
10.356
5.21616
2.85002
1.7366
1.15556
0.899141
9.34431
17.2226
17.7345
14.256
6.88197
3.28279
1.86426
1.2644
0.955737
0.790875
9.48902
17.5069
17.2053
10.6408
4.64426
2.37492
1.51757
1.09768
0.8387
0.69889
9.48026
17.9048
16.3162
7.95379
3.40439
1.86912
1.23254
0.912642
0.728528
0.635302
10.1744
18.5707
14.604
5.6006
2.63093
1.58045
1.11597
0.852524
0.69278
0.613747
10.4233
19.3929
12.4486
4.81332
2.22238
1.35152
0.967748
0.755323
0.63274
0.573537
10.9319
20.0441
10.6011
3.58416
1.8377
1.2492
0.923973
0.729788
0.617819
0.563664
41.0306
59.3748
61.7727
61.5712
62.0399
63.9637
66.7655
69.682
71.7897
72.7379
39.3882
57.1115
60.3082
61.1227
62.9259
66.3163
70.79
75.508
79.5892
81.9214
36.4253
53.1866
57.5495
60.2732
64.3834
70.0218
76.2734
81.5595
85.3865
87.3789
32.9028
48.8311
54.5912
60.048
66.9994
74.6732
80.0016
82.3553
82.3105
79.5094
29.1974
45.179
53.4075
62.049
71.5136
77.1486
76.7334
73.4733
68.0219
55.8691
25.9598
43.4951
55.4449
66.7357
71.7589
69.1203
62.3081
49.3768
41.2784
28.5796
23.1563
44.1752
60.2012
63.6404
57.8552
44.8827
34.2101
26.1434
23.0088
17.1427
21.8337
46.5157
50.3143
42.831
31.5368
25.6265
22.5072
18.718
16.9117
12.8547
18.4555
33.7348
29.4706
25.5166
22.5554
20.6494
18.7675
15.8989
13.9985
9.67837
13.293
20.1896
22.4041
21.6236
20.2201
18.932
16.4565
13.0758
9.68861
5.31705
72.8846
70.4733
67.6482
64.987
62.6378
60.5968
58.7731
57.1591
55.7446
54.4872
53.3585
52.3333
51.3938
50.5247
49.713
48.9512
48.2313
47.5486
46.8946
46.2608
45.6397
45.0264
44.4179
43.8123
43.2091
42.6085
42.0113
41.4185
40.8312
40.2508
39.6787
39.1165
38.5656
38.0273
37.5024
36.9911
36.4936
36.0096
35.5392
35.0825
34.6397
34.2112
33.7969
33.3966
33.0097
32.6354
32.2727
31.9206
31.5779
31.2436
30.9165
30.5958
30.2807
29.9705
29.6647
29.3629
29.0647
28.7701
28.4789
28.1911
27.9067
27.6257
27.3481
27.074
26.8035
26.5368
26.2738
26.0148
25.7598
25.5089
25.2621
25.0196
24.7814
24.5475
24.3181
24.093
23.8723
23.6562
23.4444
23.2372
23.0344
22.8361
22.6422
22.4528
22.2678
22.0871
21.9108
21.7387
21.571
21.4072
21.2479
21.0917
20.941
20.7911
20.6499
20.503
20.376
20.222
20.1285
19.9132
82.6148
79.6653
76.2067
72.9417
70.0406
67.5263
65.3317
63.43
61.7525
60.2586
58.9165
57.6972
56.5808
55.5486
54.5839
53.68
52.8272
52.017
51.238
50.4799
49.7348
48.9981
48.2672
47.5411
46.8201
46.1049
45.3967
44.6968
44.0065
43.3273
42.6607
42.0084
41.3716
40.7511
40.1476
39.5608
38.9905
38.4363
37.898
37.3757
36.8703
36.3821
35.9107
35.4557
35.0164
34.5918
34.1806
33.7816
33.3935
33.0152
32.6454
32.2833
31.9278
31.5783
31.2344
30.8954
30.5613
30.2317
29.9067
29.5861
29.2699
28.958
28.6505
28.3476
28.0492
27.7555
27.4666
27.1825
26.9033
26.6289
26.3596
26.0952
25.8358
25.5815
25.3322
25.0879
24.8486
24.6144
24.3851
24.1609
23.9417
23.7275
23.5182
23.3138
23.1143
22.9196
22.7297
22.5445
22.3639
22.1877
22.0164
21.8484
21.6863
21.5252
21.3734
21.2154
21.079
20.9135
20.8132
20.5811
88.4068
85.8703
82.2065
78.7503
75.6907
73.0418
70.7426
68.743
66.9735
65.387
63.9565
62.6564
61.467
60.3823
59.3833
58.4464
57.563
56.7182
55.8941
55.0795
54.2671
53.4555
52.6435
51.8327
51.0254
50.2226
49.4277
48.6421
47.8678
47.1069
46.3616
45.6338
44.9247
44.2343
43.5623
42.9073
42.2686
41.6457
41.0391
40.45
39.8794
39.3278
38.7955
38.2821
37.7867
37.3081
36.8446
36.3949
35.9574
35.5306
35.1132
34.7042
34.3027
33.908
33.5196
33.1371
32.7603
32.3891
32.0234
31.6633
31.3082
30.9584
30.614
30.2752
29.9422
29.6149
29.2935
28.9779
28.668
28.3639
28.0656
27.773
27.4861
27.2049
26.9294
26.6595
26.3953
26.1368
25.884
25.6368
25.3952
25.1592
24.9288
24.7039
24.4844
24.2703
24.0616
23.8582
23.6599
23.4664
23.2782
23.0937
22.9156
22.7384
22.5718
22.3979
22.2482
22.0661
21.9564
21.6992
80.1142
79.1293
76.8286
74.401
72.2413
70.3212
68.6199
67.106
65.749
64.5104
63.3852
62.3484
61.3982
60.5129
59.676
58.8773
58.126
57.4095
56.6957
55.9742
55.2396
54.4952
53.7405
52.9798
52.2178
51.4547
50.6973
49.9459
49.2034
48.4718
47.7543
47.0535
46.3704
45.704
45.0535
44.4159
43.7898
43.175
42.5735
41.9883
41.4223
40.877
40.3522
39.847
39.3598
38.8888
38.4321
37.9879
37.5545
37.1302
36.7138
36.3043
35.9007
35.5028
35.11
34.7224
34.3398
33.9622
33.5896
33.2219
32.86
32.5038
32.1531
31.808
31.4685
31.1344
30.8059
30.4827
30.1648
29.8522
29.545
29.2431
28.9465
28.6553
28.3696
28.0893
27.8146
27.5455
27.282
27.0242
26.7721
26.5257
26.285
26.05
25.8204
25.5965
25.3779
25.1645
24.9563
24.7529
24.5549
24.3606
24.173
23.9858
23.81
23.6258
23.4678
23.2745
23.1593
22.8827
54.7101
53.781
52.8617
52.2551
51.9241
51.6984
51.5162
51.3141
51.1091
50.8794
50.6832
50.49
50.3308
50.1879
50.0292
49.8304
49.6668
49.5463
49.3382
49.0728
48.7526
48.3946
47.9974
47.5722
47.1308
46.668
46.2036
45.7279
45.2457
44.7627
44.2872
43.8238
43.3721
42.9244
42.4786
42.0231
41.5612
41.0959
40.6334
40.1833
39.751
39.3381
38.943
38.5636
38.1971
37.8411
37.4935
37.1523
36.8155
36.482
36.1505
35.8205
35.4916
35.164
34.8374
34.5123
34.1887
33.8671
33.5475
33.2303
32.9151
32.6028
32.2938
31.9886
31.6869
31.3888
31.094
30.8027
30.5147
30.2302
29.9492
29.6719
29.3984
29.1289
28.8635
28.6026
28.3461
28.0943
27.8473
27.6053
27.3682
27.1363
26.9093
26.6875
26.4706
26.2587
26.0516
25.8492
25.6515
25.4579
25.2693
25.0835
24.9041
24.7243
24.5557
24.3779
24.2261
24.0388
23.9286
23.655
27.5262
26.7133
26.2188
26.0128
26.1608
26.2069
26.3294
26.6429
27.0647
27.5424
28.152
28.8586
29.6373
30.4091
31.1687
31.8622
32.5082
33.0487
33.4833
33.8307
34.0965
34.3127
34.4651
34.5717
34.66
34.6977
34.7535
34.7506
34.7209
34.6729
34.624
34.5832
34.5515
34.5094
34.4687
34.3685
34.2426
34.0774
33.8809
33.6946
33.5301
33.3855
33.255
33.1324
33.013
32.894
32.7732
32.6484
32.5178
32.3806
32.2361
32.0849
31.9268
31.7631
31.5934
31.4194
31.2405
31.0583
30.8724
30.6837
30.4924
30.3005
30.1077
29.9144
29.7194
29.5224
29.3238
29.1242
28.9237
28.7229
28.5219
28.3212
28.121
27.9218
27.7238
27.5277
27.3335
27.1417
26.9525
26.7663
26.583
26.4031
26.2262
26.0527
25.8824
25.7155
25.5516
25.3909
25.2332
25.0782
24.9264
24.7762
24.6306
24.4837
24.3458
24.1987
24.0733
23.917
23.8262
23.5899
16.5005
15.7303
15.0528
14.5405
14.169
13.8944
13.7546
13.6491
13.6151
13.6259
13.7053
13.8848
14.1294
14.397
14.6929
14.9725
15.2524
15.518
15.8023
16.0815
16.3763
16.6781
16.9739
17.2805
17.594
17.9075
18.2387
18.5872
18.9556
19.3316
19.7419
20.1763
20.6532
21.1333
21.7334
22.0268
22.4487
22.5905
22.5066
22.5742
22.7354
22.9419
23.1583
23.3743
23.5824
23.7803
23.965
24.1342
24.2862
24.4233
24.545
24.6537
24.7478
24.8305
24.8996
24.9585
25.0052
25.0421
25.069
25.0835
25.1006
25.1107
25.1099
25.0979
25.0717
25.0346
24.991
24.9413
24.8856
24.825
24.7591
24.6886
24.6139
24.5359
24.455
24.3723
24.2877
24.2025
24.1162
24.0301
23.9435
23.8575
23.7713
23.6859
23.6005
23.516
23.4315
23.3477
23.264
23.1806
23.0977
23.0142
22.9322
22.8486
22.7676
22.68
22.6043
22.5089
22.4533
22.2972
12.2184
11.458
10.7633
10.1646
9.66112
9.23245
8.88085
8.57734
8.32093
8.08709
7.87935
7.68622
7.51446
7.34616
7.20229
7.0636
6.96455
6.84935
6.76181
6.66005
6.59947
6.53437
6.51438
6.50497
6.54677
6.56399
6.62699
6.69968
6.8248
6.95806
7.07097
7.27874
7.54373
7.83756
8.13539
8.38509
8.58257
8.77461
8.98788
9.25216
9.55968
9.90467
10.2786
10.6756
11.087
11.5084
11.9333
12.3571
12.7741
13.1842
13.5828
13.9714
14.3455
14.7079
15.0537
15.387
15.7028
16.0047
16.2901
16.5595
16.8072
17.0398
17.2556
17.4577
17.6442
17.8164
17.9744
18.1192
18.2526
18.3745
18.4852
18.5874
18.6807
18.7672
18.8461
18.92
18.9873
19.0509
19.1086
19.1635
19.2129
19.2601
19.302
19.342
19.3768
19.41
19.4381
19.4647
19.4864
19.5061
19.5223
19.5349
19.5464
19.5539
19.547
19.5439
19.544
19.5391
19.534
19.5099
9.06589
8.37366
7.72819
7.17171
6.67677
6.22621
5.82032
5.45795
5.13489
4.84444
4.58219
4.343
4.11906
3.91521
3.71802
3.53717
3.35564
3.18799
3.04188
2.90886
2.79044
2.68559
2.58806
2.50672
2.42963
2.37135
2.31091
2.27471
2.23221
2.20924
2.21642
2.2174
2.25284
2.26552
2.30978
2.34603
2.44339
2.44404
2.47993
2.57262
2.67206
2.71106
2.80252
2.91883
3.05354
3.20761
3.37669
3.56265
3.76092
3.97429
4.19821
4.436
4.68303
4.94271
5.21024
5.48876
5.77313
6.06653
6.36269
6.6671
6.97515
7.29041
7.60663
7.92759
8.24681
8.567
8.88211
9.19481
9.50001
9.80043
10.0905
10.3752
10.6485
10.9163
11.1721
11.423
11.6615
11.8957
12.1175
12.3357
12.5397
12.7397
12.9254
13.109
13.2779
13.4468
13.6004
13.7567
13.8961
14.0414
14.1669
14.303
14.4143
14.544
14.6399
14.7629
14.8432
14.9635
15.0296
15.1554
4.93172
4.49233
4.07089
3.66468
3.30575
3.00799
2.76073
2.55467
2.38191
2.23555
2.11032
2.00159
1.90576
1.8206
1.74321
1.67241
1.60638
1.54417
1.4856
1.43051
1.37824
1.32945
1.28259
1.23929
1.19712
1.15918
1.12147
1.08902
1.05602
1.02819
1.00176
0.980946
0.962523
0.947915
0.933591
0.923008
0.914192
0.907923
0.901088
0.896817
0.898092
0.899856
0.902412
0.906253
0.912953
0.925067
0.942537
0.965934
0.992146
1.02456
1.05938
1.10122
1.14528
1.19772
1.25227
1.31669
1.38293
1.46046
1.5391
1.63024
1.72161
1.82667
1.9314
2.05111
2.1699
2.30464
2.43745
2.58707
2.7335
2.89778
3.05733
3.23566
3.40776
3.59955
3.78352
3.98828
4.18334
4.40023
4.60497
4.83284
5.04697
5.28689
5.50912
5.75833
5.98486
6.2402
6.46652
6.72487
6.94635
7.20505
7.41725
7.67451
7.87329
8.1286
8.31012
8.56435
8.72467
8.97928
9.1244
9.40587
1.93142
1.88467
1.81306
1.72988
1.64263
1.55663
1.47514
1.3997
1.33086
1.26843
1.21197
1.16084
1.1144
1.07203
1.03316
0.997326
0.964032
0.932971
0.903763
0.876251
0.850117
0.825398
0.801814
0.779511
0.758015
0.737789
0.71835
0.700295
0.682953
0.666965
0.651725
0.637728
0.624434
0.612126
0.600588
0.589946
0.579984
0.570853
0.562186
0.554287
0.546872
0.540272
0.534038
0.528543
0.523393
0.519013
0.515178
0.512048
0.509603
0.507671
0.506731
0.505975
0.506196
0.507113
0.508628
0.511774
0.514583
0.520104
0.52432
0.532577
0.538297
0.549788
0.557228
0.572197
0.58173
0.6007
0.612656
0.636516
0.65116
0.680405
0.698275
0.734104
0.756048
0.800126
0.827024
0.881072
0.914305
0.979337
1.02042
1.09806
1.14817
1.24003
1.30035
1.40812
1.47951
1.60444
1.68696
1.82959
1.92258
2.08299
2.18541
2.36323
2.47375
2.66783
2.78474
2.9937
3.11347
3.33799
3.44062
3.76371
1.26221
1.21863
1.17038
1.12067
1.07156
1.02438
0.980047
0.938966
0.901343
0.867069
0.835972
0.807721
0.782011
0.758479
0.736829
0.71677
0.698061
0.680511
0.663965
0.648322
0.633437
0.619265
0.605731
0.592897
0.580772
0.569209
0.558075
0.547327
0.536938
0.526922
0.517265
0.508011
0.499121
0.490674
0.482569
0.474915
0.467573
0.460649
0.454022
0.447841
0.44188
0.436335
0.430916
0.425916
0.420955
0.416441
0.411894
0.407843
0.403662
0.400002
0.396207
0.392927
0.389437
0.386507
0.383368
0.3808
0.378114
0.375872
0.373814
0.371748
0.37058
0.368924
0.367376
0.366042
0.364998
0.363244
0.36262
0.3628
0.362528
0.363176
0.363978
0.365465
0.366654
0.369817
0.371824
0.375805
0.377956
0.382298
0.384995
0.390132
0.393873
0.400499
0.40541
0.414664
0.421225
0.433722
0.442296
0.458926
0.469918
0.491706
0.506129
0.533445
0.551473
0.586554
0.607909
0.652012
0.678903
0.732912
0.757717
0.865077
0.898064
0.875897
0.852021
0.82737
0.802925
0.779256
0.756718
0.735361
0.715202
0.696086
0.677937
0.660572
0.643944
0.627922
0.612521
0.597666
0.583426
0.56976
0.556741
0.544329
0.532586
0.521459
0.510976
0.501062
0.49172
0.482883
0.474544
0.466644
0.459161
0.452048
0.445275
0.438808
0.432618
0.426682
0.420974
0.415483
0.410185
0.405082
0.400143
0.395379
0.390759
0.3863
0.381967
0.377787
0.373718
0.369794
0.365968
0.362281
0.35868
0.355209
0.351817
0.34854
0.34534
0.342234
0.339207
0.33625
0.333382
0.330559
0.327833
0.32514
0.322538
0.319984
0.31749
0.315076
0.312688
0.310395
0.308123
0.306047
0.303904
0.302011
0.299984
0.298282
0.296349
0.294835
0.293019
0.291658
0.28991
0.288687
0.287001
0.28593
0.28434
0.283423
0.282024
0.281215
0.280216
0.279364
0.279047
0.278863
0.278614
0.279509
0.280044
0.280157
0.280514
0.281422
0.282363
0.284214
0.285837
0.289003
0.290446
0.300265
0.694993
0.683495
0.670779
0.657058
0.642788
0.62824
0.613746
0.599447
0.585588
0.572221
0.559503
0.547387
0.535946
0.525056
0.514747
0.504866
0.495443
0.486333
0.47759
0.469092
0.460921
0.452971
0.445345
0.437943
0.430879
0.424051
0.417572
0.411331
0.405434
0.39976
0.394408
0.389247
0.384372
0.379649
0.375171
0.370809
0.366654
0.362584
0.358693
0.354862
0.351192
0.347566
0.344089
0.340647
0.337348
0.334077
0.330946
0.32784
0.32487
0.321921
0.319105
0.316304
0.313631
0.310966
0.308423
0.30588
0.303455
0.30102
0.298699
0.296361
0.294135
0.291887
0.28975
0.287583
0.285533
0.283449
0.281486
0.279488
0.277614
0.2757
0.273917
0.272081
0.270382
0.268622
0.266995
0.265302
0.263741
0.262099
0.260603
0.259
0.257575
0.256
0.254656
0.253101
0.251827
0.250264
0.249074
0.247513
0.246405
0.244893
0.243934
0.242508
0.241634
0.240285
0.239391
0.238143
0.237314
0.235989
0.235318
0.233836
0.574599
0.567707
0.559864
0.551277
0.542259
0.532985
0.523682
0.514402
0.505284
0.496312
0.48758
0.479033
0.470753
0.462673
0.454878
0.447293
0.440011
0.432948
0.426196
0.419658
0.413428
0.407394
0.401648
0.396071
0.390758
0.385581
0.380646
0.375821
0.371219
0.366706
0.362406
0.358178
0.354156
0.350193
0.346433
0.342717
0.339198
0.335709
0.332412
0.329128
0.326031
0.322929
0.320007
0.317065
0.314299
0.311499
0.30887
0.306194
0.303689
0.301124
0.29873
0.296266
0.293974
0.291603
0.289408
0.287122
0.285019
0.282815
0.2808
0.278671
0.27674
0.274683
0.272832
0.270839
0.269063
0.267129
0.265423
0.26354
0.2619
0.260063
0.258485
0.256689
0.255169
0.253411
0.251948
0.250224
0.248816
0.247124
0.245772
0.244111
0.242814
0.241182
0.239942
0.238335
0.237152
0.235567
0.23444
0.232875
0.231802
0.230254
0.229235
0.227703
0.226738
0.225217
0.224302
0.222795
0.22192
0.220438
0.21948
0.217832
0.500806
0.496213
0.490961
0.485124
0.478899
0.47237
0.465707
0.458938
0.452202
0.445494
0.438924
0.432456
0.426179
0.42003
0.41409
0.408278
0.402676
0.397195
0.391921
0.386762
0.381808
0.376961
0.372316
0.367769
0.363419
0.359156
0.355083
0.351082
0.347261
0.343497
0.339905
0.336353
0.332965
0.329602
0.326398
0.323205
0.320169
0.317129
0.314246
0.311346
0.308604
0.305831
0.303219
0.300564
0.298071
0.295525
0.293145
0.2907
0.288425
0.286075
0.283898
0.281638
0.279555
0.277379
0.275385
0.273289
0.271381
0.269361
0.267534
0.265583
0.263834
0.261946
0.260269
0.258438
0.256828
0.255046
0.253497
0.251757
0.250264
0.24856
0.247119
0.245446
0.244054
0.242409
0.241063
0.239444
0.238143
0.23655
0.235293
0.233725
0.232513
0.230969
0.229804
0.228282
0.227163
0.225662
0.224591
0.223107
0.222083
0.220613
0.219638
0.21818
0.217256
0.215804
0.214933
0.213494
0.21266
0.21125
0.210329
0.208734
0.45478
0.451256
0.447266
0.442837
0.438125
0.433168
0.428099
0.422913
0.417719
0.41249
0.407325
0.402175
0.397131
0.392135
0.387272
0.382473
0.377826
0.37325
0.368834
0.36449
0.360309
0.356195
0.352243
0.348351
0.344617
0.340934
0.337404
0.333917
0.330578
0.327271
0.32411
0.32097
0.317972
0.314984
0.312137
0.30929
0.306582
0.303862
0.301282
0.298679
0.296218
0.293721
0.291369
0.288969
0.286718
0.284408
0.28225
0.280024
0.277953
0.275804
0.273814
0.271737
0.269822
0.267812
0.265968
0.26402
0.262241
0.260352
0.258635
0.256798
0.25514
0.253351
0.25175
0.250006
0.248459
0.246755
0.245261
0.243595
0.242153
0.24052
0.239128
0.237527
0.236184
0.234613
0.233315
0.231775
0.230519
0.229008
0.227793
0.22631
0.225134
0.223677
0.222541
0.221106
0.220012
0.218594
0.217543
0.21614
0.215133
0.21374
0.212784
0.211389
0.210492
0.209088
0.208245
0.206848
0.206052
0.204636
0.204013
0.201983
0.42504
0.422064
0.418758
0.415099
0.411215
0.407116
0.402916
0.398594
0.394252
0.389855
0.3855
0.381138
0.376858
0.372599
0.368447
0.364329
0.360332
0.356375
0.352548
0.348761
0.345107
0.341491
0.33801
0.334563
0.33125
0.327965
0.324813
0.321681
0.31868
0.315691
0.312831
0.309974
0.307244
0.304509
0.3019
0.299277
0.296781
0.294262
0.291871
0.289447
0.287155
0.28482
0.282621
0.280369
0.278258
0.276084
0.274056
0.271956
0.270008
0.267976
0.266103
0.264136
0.262333
0.260426
0.258689
0.256838
0.255162
0.253364
0.251743
0.249993
0.248425
0.246719
0.245201
0.243534
0.242065
0.240433
0.239012
0.237413
0.236038
0.234469
0.233139
0.231599
0.230312
0.2288
0.227554
0.226069
0.224863
0.223404
0.222235
0.220802
0.21967
0.218261
0.217165
0.215777
0.214719
0.213349
0.212329
0.210975
0.209992
0.208655
0.207706
0.206387
0.205474
0.204161
0.203302
0.201967
0.201177
0.199844
0.198978
0.197486
0.404981
0.40228
0.399342
0.396113
0.39271
0.389126
0.385464
0.38169
0.377899
0.374048
0.370226
0.36638
0.362597
0.358813
0.355114
0.351428
0.347844
0.344279
0.340826
0.337395
0.334082
0.330788
0.327616
0.32446
0.321426
0.318403
0.315502
0.312606
0.309832
0.307056
0.304402
0.301739
0.299197
0.296639
0.294203
0.291743
0.289407
0.287037
0.284795
0.28251
0.280355
0.278148
0.276076
0.273943
0.271948
0.269883
0.26796
0.265959
0.264105
0.262164
0.260375
0.25849
0.256761
0.254929
0.253258
0.251475
0.249858
0.248121
0.246556
0.244863
0.243348
0.241694
0.240227
0.238611
0.23719
0.235608
0.234234
0.232682
0.231353
0.229829
0.228545
0.227049
0.225806
0.224336
0.223133
0.221689
0.220524
0.219105
0.217975
0.216581
0.215487
0.214115
0.213056
0.211704
0.210681
0.209346
0.20836
0.20704
0.206089
0.204785
0.203868
0.202579
0.201697
0.200415
0.199585
0.198282
0.197515
0.196216
0.195372
0.193916
0.390835
0.388304
0.38558
0.382611
0.379501
0.376233
0.372901
0.369466
0.366017
0.362507
0.359024
0.35551
0.352053
0.348585
0.345195
0.341807
0.338511
0.335223
0.332036
0.328859
0.325789
0.322728
0.319778
0.316834
0.314003
0.311173
0.308456
0.305736
0.30313
0.300513
0.298012
0.295493
0.29309
0.290663
0.288354
0.286013
0.283792
0.281532
0.279395
0.27721
0.275152
0.273037
0.271054
0.269006
0.267093
0.265107
0.263261
0.261334
0.25955
0.257679
0.255954
0.254135
0.252465
0.250696
0.249078
0.247355
0.245788
0.244107
0.242588
0.240946
0.239475
0.237869
0.236444
0.234872
0.233491
0.23195
0.230613
0.229101
0.227807
0.226321
0.22507
0.223609
0.222398
0.220961
0.219789
0.218376
0.21724
0.215851
0.21475
0.213384
0.212318
0.210971
0.20994
0.208612
0.207616
0.206303
0.205344
0.204043
0.203124
0.201829
0.200956
0.199658
0.198836
0.197529
0.196754
0.195455
0.194719
0.193403
0.192824
0.19094
0.380475
0.378042
0.375449
0.372645
0.369727
0.366671
0.363563
0.360362
0.357151
0.353881
0.350637
0.347358
0.344132
0.340889
0.337717
0.33454
0.331448
0.328355
0.325357
0.322362
0.319466
0.316572
0.313782
0.310991
0.308306
0.305617
0.303035
0.300443
0.29796
0.295461
0.293073
0.290662
0.288363
0.286035
0.283821
0.281571
0.279437
0.277259
0.275201
0.273093
0.271107
0.269062
0.267145
0.265162
0.263309
0.261383
0.259593
0.25772
0.25599
0.254168
0.252494
0.25072
0.2491
0.247372
0.245802
0.244116
0.242596
0.240949
0.239476
0.237866
0.236437
0.234862
0.233477
0.231934
0.230592
0.229078
0.227777
0.226292
0.225031
0.223572
0.222351
0.220915
0.219734
0.218321
0.217178
0.215786
0.21468
0.213309
0.21224
0.210888
0.209855
0.20852
0.207523
0.206204
0.205243
0.203938
0.203012
0.20172
0.20083
0.199548
0.198695
0.197421
0.196606
0.195335
0.194561
0.193295
0.192553
0.19131
0.19049
0.189089
0.372728
0.370347
0.367836
0.36514
0.362351
0.359438
0.356484
0.353442
0.350397
0.347294
0.344217
0.341105
0.338044
0.334964
0.331951
0.328929
0.325987
0.323041
0.320184
0.317325
0.31456
0.311793
0.309124
0.306449
0.303876
0.301293
0.298815
0.296321
0.293932
0.291524
0.289222
0.286894
0.284675
0.282423
0.280283
0.278102
0.276036
0.273923
0.271928
0.269879
0.26795
0.265961
0.264097
0.262164
0.260361
0.258482
0.256737
0.254909
0.25322
0.25144
0.249804
0.248069
0.246485
0.244792
0.243257
0.241604
0.240115
0.2385
0.237056
0.235476
0.234076
0.232528
0.23117
0.229652
0.228335
0.226846
0.225569
0.224107
0.222869
0.221432
0.220233
0.218819
0.217657
0.216265
0.215141
0.213769
0.212682
0.211329
0.210278
0.208943
0.207927
0.206609
0.205629
0.204326
0.203381
0.202091
0.201181
0.199903
0.199028
0.19776
0.196921
0.195661
0.19486
0.193602
0.19284
0.191589
0.190858
0.189628
0.188822
0.187435
0.366847
0.364491
0.362027
0.359399
0.356697
0.353882
0.351036
0.348108
0.345181
0.342199
0.339246
0.336257
0.333318
0.330357
0.327462
0.324554
0.321725
0.318887
0.316135
0.313376
0.31071
0.308036
0.305458
0.30287
0.300381
0.297878
0.295477
0.293057
0.29074
0.2884
0.286164
0.283899
0.281741
0.279547
0.277462
0.275335
0.273321
0.271257
0.269309
0.267306
0.265422
0.263476
0.261652
0.25976
0.257995
0.256153
0.254444
0.25265
0.250994
0.249247
0.247642
0.245937
0.244382
0.242718
0.24121
0.239585
0.238122
0.236532
0.235112
0.233556
0.232178
0.230653
0.229316
0.227821
0.226523
0.225056
0.223797
0.222355
0.221134
0.219716
0.218534
0.217138
0.215992
0.214618
0.213509
0.212155
0.211081
0.209745
0.208707
0.207389
0.206386
0.205084
0.204116
0.202828
0.201894
0.20062
0.199721
0.198457
0.197594
0.196338
0.195511
0.194263
0.193471
0.19223
0.191473
0.190234
0.189521
0.188261
0.187709
0.185886
0.362292
0.359947
0.357509
0.354926
0.352281
0.349533
0.346762
0.343915
0.341073
0.338178
0.335314
0.332414
0.329565
0.326692
0.323886
0.321064
0.318319
0.315563
0.312892
0.310212
0.307622
0.305021
0.302515
0.299995
0.297573
0.295134
0.292795
0.290434
0.288176
0.28589
0.283708
0.281494
0.279385
0.277238
0.2752
0.273117
0.271145
0.269122
0.267214
0.265247
0.2634
0.261488
0.259699
0.257838
0.256104
0.254292
0.252612
0.250846
0.249217
0.247495
0.245916
0.244235
0.242703
0.241061
0.239575
0.23797
0.236528
0.234957
0.233557
0.232018
0.230659
0.229151
0.227831
0.226352
0.22507
0.223617
0.222374
0.220946
0.21974
0.218336
0.217166
0.215784
0.214651
0.213289
0.212192
0.21085
0.209787
0.208464
0.207436
0.20613
0.205136
0.203846
0.202886
0.20161
0.200684
0.199421
0.19853
0.197277
0.196421
0.195176
0.194356
0.193118
0.192332
0.191103
0.19035
0.189122
0.188414
0.187165
0.186618
0.184807
0.358695
0.356349
0.353922
0.351366
0.34876
0.346061
0.343344
0.340557
0.337779
0.334952
0.332157
0.329328
0.326549
0.323748
0.321011
0.318259
0.315582
0.312893
0.310287
0.307669
0.305141
0.302599
0.300151
0.297687
0.295318
0.292931
0.290641
0.288328
0.286115
0.283873
0.281732
0.279558
0.277488
0.275377
0.273373
0.271323
0.269383
0.26739
0.265512
0.263573
0.261753
0.259866
0.258102
0.256264
0.254554
0.252762
0.251104
0.249357
0.247749
0.246045
0.244484
0.24282
0.241306
0.239679
0.238209
0.236618
0.235191
0.233633
0.232247
0.230721
0.229375
0.227879
0.226571
0.225103
0.223833
0.222391
0.221159
0.219741
0.218546
0.217151
0.215992
0.214619
0.213496
0.212143
0.211056
0.209722
0.20867
0.207354
0.206337
0.205038
0.204054
0.202771
0.201821
0.200552
0.199636
0.198379
0.197497
0.196251
0.195404
0.194166
0.193354
0.192124
0.191344
0.190123
0.189377
0.188157
0.187454
0.186215
0.185672
0.183872
0.355928
0.35357
0.351144
0.348604
0.346022
0.343356
0.340678
0.337936
0.335205
0.332429
0.329685
0.326911
0.324185
0.321439
0.318755
0.316056
0.313429
0.310791
0.308233
0.305663
0.303178
0.300681
0.298272
0.295848
0.293515
0.291164
0.288906
0.286625
0.28444
0.282226
0.280111
0.277962
0.275914
0.273827
0.271843
0.269813
0.267891
0.265917
0.264055
0.262133
0.260328
0.258457
0.256706
0.254883
0.253186
0.251408
0.249762
0.248027
0.24643
0.244737
0.243188
0.241534
0.240031
0.238415
0.236955
0.235374
0.233957
0.23241
0.231033
0.229518
0.228181
0.226694
0.225396
0.223938
0.222677
0.221244
0.220021
0.218613
0.217427
0.216041
0.214891
0.213527
0.212413
0.211069
0.209991
0.208665
0.207622
0.206314
0.205305
0.204015
0.203039
0.201765
0.200822
0.199562
0.198653
0.197405
0.19653
0.195292
0.194452
0.193222
0.192417
0.191194
0.190422
0.189208
0.188469
0.187256
0.186559
0.185327
0.184787
0.183005
0.353884
0.351508
0.349071
0.346533
0.343961
0.341314
0.338657
0.335943
0.33324
0.330496
0.327783
0.325042
0.322346
0.319631
0.316975
0.314304
0.311702
0.309088
0.306549
0.304
0.301532
0.299051
0.296655
0.294244
0.29192
0.289579
0.287328
0.285055
0.282875
0.280669
0.278559
0.276417
0.274374
0.272294
0.270316
0.268295
0.266379
0.264415
0.26256
0.260649
0.258852
0.256992
0.25525
0.253437
0.251749
0.249981
0.248345
0.246622
0.245036
0.243355
0.241817
0.240176
0.238685
0.237082
0.235635
0.234068
0.232664
0.23113
0.229768
0.228266
0.226943
0.225471
0.224186
0.222742
0.221495
0.220076
0.218867
0.217472
0.2163
0.214927
0.213791
0.21244
0.21134
0.210009
0.208943
0.207631
0.2066
0.205306
0.204308
0.203031
0.202067
0.200805
0.199874
0.198625
0.197728
0.196491
0.195627
0.194401
0.19357
0.192352
0.191556
0.190345
0.189581
0.188378
0.187647
0.186445
0.185754
0.184535
0.184
0.18223
0.352274
0.349878
0.347429
0.344886
0.342314
0.33967
0.337016
0.334305
0.331602
0.328857
0.326137
0.323387
0.320677
0.317948
0.315271
0.312584
0.309959
0.307329
0.304768
0.302207
0.299718
0.297216
0.294796
0.292365
0.290023
0.28767
0.285409
0.283134
0.280954
0.278756
0.276655
0.27453
0.272504
0.270448
0.268493
0.266502
0.264614
0.262682
0.260857
0.258981
0.257217
0.255393
0.253687
0.251914
0.250262
0.248536
0.246935
0.245252
0.2437
0.242058
0.240551
0.238948
0.237485
0.235917
0.234496
0.232963
0.231581
0.23008
0.228737
0.227265
0.22596
0.224516
0.223247
0.221829
0.220596
0.219202
0.218005
0.216632
0.215472
0.21412
0.212995
0.211662
0.210572
0.209258
0.208201
0.206906
0.205882
0.204605
0.203613
0.202353
0.201391
0.200147
0.199218
0.197988
0.19709
0.195871
0.195007
0.193798
0.192967
0.191765
0.190968
0.189773
0.189008
0.18782
0.18709
0.185897
0.185216
0.184001
0.183471
0.181724
0.351042
0.348583
0.346059
0.343458
0.340812
0.338069
0.335306
0.332472
0.329647
0.326776
0.323944
0.321087
0.318291
0.315486
0.312759
0.31003
0.30739
0.304752
0.30221
0.299668
0.297228
0.294797
0.292465
0.290133
0.287897
0.285653
0.283502
0.281337
0.279263
0.277167
0.275163
0.27313
0.271191
0.269216
0.267336
0.265414
0.263591
0.261718
0.259949
0.258123
0.256405
0.254623
0.252954
0.251216
0.249594
0.247896
0.246319
0.244661
0.243128
0.241507
0.240016
0.238432
0.236981
0.235432
0.234019
0.232503
0.231128
0.229643
0.228305
0.226848
0.225547
0.224117
0.222851
0.221446
0.220216
0.218834
0.21764
0.216278
0.21512
0.213778
0.212655
0.211332
0.210243
0.20894
0.207882
0.206599
0.205572
0.204308
0.20331
0.202065
0.201097
0.199869
0.198931
0.197718
0.19681
0.19561
0.194733
0.193545
0.192698
0.19152
0.190703
0.189536
0.188749
0.187586
0.186843
0.185664
0.184971
0.183797
0.183033
0.181712
0.347442
0.344778
0.342127
0.339407
0.336714
0.333999
0.331322
0.328627
0.325979
0.323317
0.320711
0.318096
0.315544
0.312985
0.310494
0.307996
0.305571
0.303139
0.300782
0.298416
0.296128
0.293828
0.291607
0.289371
0.287216
0.285043
0.282952
0.280837
0.278808
0.27675
0.274779
0.272774
0.27086
0.268906
0.267046
0.265141
0.263333
0.261474
0.259717
0.257902
0.256194
0.254422
0.252761
0.251031
0.249416
0.247725
0.246154
0.244502
0.242973
0.241359
0.239871
0.238293
0.236844
0.235301
0.23389
0.232379
0.231006
0.229525
0.228188
0.226737
0.225436
0.22401
0.222745
0.221344
0.220114
0.218736
0.217542
0.216185
0.215025
0.213688
0.212564
0.211245
0.210155
0.208855
0.207797
0.206517
0.205488
0.204229
0.203229
0.201988
0.201017
0.199794
0.198853
0.197644
0.196734
0.195537
0.194659
0.193471
0.192628
0.191444
0.190642
0.189453
0.188697
0.187499
0.186784
0.185592
0.184913
0.183704
0.183173
0.181432
0.508462
0.516531
0.546522
0.572824
0.597086
0.667868
0.724832
0.842048
1.06881
1.94584
0.46624
0.477535
0.488007
0.517541
0.532737
0.581231
0.614458
0.694182
0.781476
1.29069
0.439994
0.449592
0.454712
0.473335
0.483979
0.517601
0.538732
0.597343
0.64052
0.912602
0.424958
0.430933
0.433907
0.44507
0.451581
0.472865
0.486342
0.526515
0.552694
0.701233
0.413192
0.417215
0.419103
0.426312
0.430294
0.443433
0.451685
0.477032
0.49355
0.577396
0.403522
0.406196
0.40735
0.412292
0.414831
0.423397
0.428469
0.44414
0.454285
0.502694
0.396049
0.397447
0.398102
0.401265
0.40289
0.40856
0.411777
0.421715
0.427915
0.456244
0.390273
0.390738
0.391015
0.392802
0.393767
0.397342
0.399359
0.405683
0.409498
0.426282
0.385363
0.385287
0.385252
0.386107
0.386574
0.388691
0.38988
0.393818
0.396137
0.406269
0.381561
0.381002
0.380618
0.380742
0.380829
0.381856
0.382454
0.384734
0.38607
0.392307
0.378533
0.377634
0.376919
0.376487
0.376279
0.37647
0.376622
0.377683
0.378327
0.382131
0.376057
0.374978
0.373951
0.373227
0.372581
0.372225
0.372043
0.372198
0.372347
0.374481
0.374108
0.372729
0.371617
0.370524
0.369706
0.368902
0.368351
0.367907
0.367656
0.368607
0.372481
0.370997
0.369639
0.368454
0.367261
0.366373
0.365294
0.36473
0.363684
0.364069
0.371157
0.369688
0.368044
0.366854
0.36532
0.364371
0.362912
0.362176
0.360559
0.360499
0.370111
0.368707
0.366802
0.365636
0.363824
0.362832
0.361083
0.360212
0.358446
0.357766
0.369289
0.367895
0.365849
0.364633
0.362703
0.361583
0.359736
0.358648
0.356872
0.355761
0.368724
0.36717
0.365164
0.363742
0.361867
0.360499
0.358706
0.357336
0.355589
0.35419
0.368402
0.366713
0.364724
0.363147
0.361277
0.359745
0.357936
0.356399
0.354607
0.353039
0.367037
0.36502
0.362915
0.361018
0.359011
0.357184
0.35522
0.353422
0.35146
0.349661
0.498907
0.538217
0.593955
0.673576
0.830535
1.13535
1.84945
4.69769
19.3788
13.1681
0.499498
0.538855
0.592673
0.691265
0.846723
1.12749
1.8159
4.54488
19.4747
12.972
0.501409
0.538836
0.598837
0.69688
0.876036
1.19536
1.96406
4.6727
19.3429
12.6823
0.501026
0.536449
0.596219
0.706142
0.874216
1.18464