/*--------------------------------*- C++ -*----------------------------------*\
  =========                 |
  \\      /  F ield         | OpenFOAM: The Open Source CFD Toolbox
   \\    /   O peration     | Website:  https://openfoam.org
    \\  /    A nd           | Version:  8
     \\/     M anipulation  |
\*---------------------------------------------------------------------------*/
FoamFile
{
    version     2.0;
    format      ascii;
    class       volScalarField;
    location    "1.499985";
    object      nut;
}
// * * * * * * * * * * * * * * * * * * * * * * * * * * * * * * * * * * * * * //

dimensions      [0 2 -1 0 0 0 0];

internalField   nonuniform List<scalar> 
6800
(
0.0105855
0.0270015
0.0369437
0.0408878
0.0474632
0.0540954
0.0486563
0.0422996
0.024682
0.0182813
0.00920715
0.0292366
0.0383665
0.0432801
0.0531233
0.0507751
0.0378318
0.0222346
0.0159519
0.014993
0.0113447
0.032083
0.0391898
0.0473427
0.0532101
0.0360971
0.0206131
0.0157621
0.0140506
0.0116322
0.0121929
0.0350205
0.0421851
0.0508041
0.0422279
0.0251647
0.018876
0.0146917
0.0116119
0.0106202
0.0126711
0.0370632
0.044086
0.0517136
0.0302568
0.0188068
0.0136634
0.0117227
0.0107671
0.0101796
0.012818
0.041352
0.0478595
0.0434772
0.0235653
0.0151915
0.0131356
0.0121636
0.0108414
0.00967242
0.0129996
0.045044
0.0504305
0.0333471
0.0176011
0.0142721
0.0124741
0.0107482
0.00930919
0.00863363
0.0144901
0.0492873
0.0485477
0.0239128
0.0173309
0.0142957
0.0120165
0.0105253
0.00960418
0.00897483
0.014831
0.053262
0.0423517
0.0235347
0.0151781
0.0124857
0.0111365
0.00975152
0.00868021
0.0081291
0.015392
0.0559236
0.0386171
0.0185607
0.0151445
0.0134146
0.0110059
0.00955218
0.00874594
0.00838142
0.0585312
0.250064
0.345958
0.372751
0.380207
0.381267
0.385008
0.390826
0.397239
0.399985
0.0561828
0.241078
0.334592
0.361894
0.366574
0.364339
0.364434
0.366824
0.369787
0.372187
0.0519478
0.221903
0.311128
0.340651
0.342266
0.337699
0.334672
0.331924
0.328407
0.328904
0.0469164
0.199879
0.283514
0.311254
0.31001
0.304209
0.294948
0.288218
0.277864
0.261967
0.0416252
0.178063
0.254425
0.271707
0.265238
0.253918
0.238406
0.220875
0.202849
0.157312
0.0370094
0.158534
0.215982
0.217497
0.202547
0.186738
0.160547
0.119815
0.098454
0.0721097
0.0330213
0.134414
0.166816
0.148091
0.12859
0.0911875
0.0704676
0.0609081
0.0601397
0.0511694
0.0311435
0.105386
0.0920857
0.0745109
0.0561467
0.0526543
0.0538865
0.051349
0.0517083
0.0457577
0.0263747
0.0509525
0.0436883
0.0443326
0.0449874
0.048666
0.0517
0.0500298
0.0491317
0.041013
0.0191307
0.0262664
0.0362198
0.0408264
0.0446132
0.0499324
0.0519426
0.0476064
0.0444147
0.0286893
0.401869
0.402811
0.400267
0.396997
0.393912
0.391223
0.388908
0.386988
0.385464
0.384257
0.383304
0.382507
0.381853
0.381326
0.380878
0.380526
0.38022
0.380001
0.379845
0.37971
0.37956
0.379373
0.379133
0.378835
0.378473
0.378049
0.377568
0.377033
0.376453
0.375833
0.375189
0.374531
0.373873
0.373219
0.372578
0.371948
0.371333
0.370733
0.370157
0.369604
0.369087
0.368608
0.368174
0.367781
0.367427
0.36711
0.366822
0.366558
0.366311
0.366076
0.365846
0.365618
0.365384
0.365143
0.364891
0.364625
0.364344
0.364048
0.363733
0.363404
0.363057
0.362696
0.362319
0.361928
0.361525
0.361111
0.360689
0.360259
0.359823
0.359383
0.358941
0.358498
0.358057
0.357617
0.357182
0.356753
0.356331
0.355917
0.355513
0.355121
0.354742
0.354376
0.354026
0.353693
0.353375
0.35308
0.352798
0.352546
0.3523
0.352098
0.351884
0.351742
0.351549
0.35148
0.351297
0.351308
0.351123
0.351197
0.351059
0.351242
0.374486
0.375422
0.373918
0.371535
0.369235
0.367279
0.36571
0.364544
0.363703
0.363128
0.362775
0.362487
0.362331
0.36228
0.362267
0.362351
0.362511
0.362758
0.363056
0.363357
0.363619
0.363822
0.363948
0.363995
0.363962
0.363851
0.363671
0.363425
0.363123
0.362772
0.362398
0.362011
0.36162
0.361227
0.360837
0.360444
0.360054
0.359662
0.359279
0.358907
0.35857
0.358272
0.358016
0.357801
0.357623
0.357479
0.357362
0.357266
0.357185
0.357112
0.357038
0.356962
0.356874
0.356775
0.356657
0.35652
0.356361
0.35618
0.355978
0.355757
0.355515
0.355253
0.354973
0.354677
0.354367
0.354044
0.353712
0.353372
0.353025
0.352673
0.352318
0.351962
0.351606
0.35125
0.350898
0.35055
0.350208
0.349872
0.349546
0.34923
0.348925
0.348633
0.348355
0.348095
0.347848
0.347624
0.347412
0.347231
0.347053
0.346922
0.346776
0.346705
0.346577
0.346579
0.346456
0.346547
0.346415
0.34655
0.346479
0.346793
0.334787
0.3335
0.331323
0.328808
0.326701
0.32522
0.324312
0.323889
0.323799
0.323963
0.324327
0.324959
0.325765
0.32684
0.328108
0.329448
0.330865
0.332329
0.333753
0.335068
0.336245
0.337289
0.338191
0.338963
0.339616
0.340153
0.340597
0.340951
0.341226
0.341457
0.341678
0.341876
0.34205
0.342191
0.342298
0.342357
0.342375
0.342357
0.342325
0.342296
0.342281
0.342287
0.342322
0.342387
0.342479
0.342594
0.342726
0.34287
0.343016
0.343161
0.343296
0.343418
0.34352
0.343606
0.343659
0.343681
0.343676
0.343646
0.343591
0.343517
0.343414
0.343285
0.343138
0.342976
0.342802
0.342617
0.342424
0.342223
0.342017
0.341806
0.341593
0.341377
0.34116
0.340941
0.340724
0.340509
0.340297
0.340091
0.339891
0.3397
0.339519
0.33935
0.339193
0.339052
0.338923
0.338816
0.33872
0.338657
0.338593
0.338578
0.338539
0.338581
0.338555
0.33867
0.338636
0.338838
0.338814
0.339063
0.339033
0.339372
0.264859
0.266606
0.269092
0.270385
0.271956
0.27374
0.275708
0.277758
0.279861
0.281951
0.284085
0.286268
0.288532
0.290827
0.293107
0.29532
0.297598
0.299942
0.302153
0.304178
0.30599
0.307623
0.309065
0.310346
0.311495
0.312498
0.313414
0.314224
0.314964
0.315576
0.316083
0.316529
0.316941
0.317315
0.317661
0.317952
0.318184
0.318363
0.318511
0.31866
0.31884
0.319064
0.319336
0.319653
0.320008
0.320394
0.320801
0.321222
0.321644
0.322063
0.322467
0.322854
0.323218
0.323556
0.323875
0.324174
0.324449
0.3247
0.324928
0.325129
0.325321
0.325501
0.325666
0.325817
0.325953
0.326075
0.326181
0.326273
0.326357
0.326431
0.326492
0.326541
0.326578
0.326603
0.326621
0.326632
0.326638
0.326643
0.32665
0.326659
0.326674
0.326697
0.326728
0.326774
0.326827
0.326902
0.326978
0.327085
0.327182
0.32733
0.327443
0.327645
0.327762
0.328031
0.328129
0.328483
0.328561
0.328905
0.329543
0.329138
0.157302
0.160557
0.164297
0.169082
0.174708
0.180464
0.186098
0.191319
0.196279
0.200882
0.205481
0.210074
0.214728
0.219397
0.223885
0.227966
0.232252
0.236981
0.241003
0.244578
0.247792
0.250767
0.253471
0.255967
0.258332
0.260482
0.262594
0.264548
0.266367
0.268124
0.269866
0.271599
0.273318
0.274948
0.276478
0.277777
0.27889
0.279859
0.280739
0.281635
0.2826
0.28365
0.284759
0.285906
0.28707
0.288241
0.289403
0.290545
0.291651
0.292717
0.293736
0.294709
0.295634
0.296513
0.297346
0.298138
0.298888
0.299601
0.300276
0.300917
0.301516
0.302086
0.302632
0.303159
0.303666
0.304147
0.304605
0.305032
0.30542
0.305776
0.306104
0.306406
0.306688
0.306952
0.307202
0.307443
0.307678
0.307911
0.308145
0.308382
0.308624
0.308876
0.309135
0.309409
0.309688
0.30999
0.31029
0.310625
0.310942
0.311316
0.311641
0.312064
0.312384
0.312871
0.313165
0.313734
0.314019
0.314558
0.315436
0.315198
0.073854
0.0769909
0.0806087
0.0843481
0.0892447
0.0926522
0.0958707
0.0998814
0.104367
0.108971
0.114196
0.120536
0.126905
0.133723
0.140253
0.146496
0.152662
0.158059
0.162955
0.167085
0.171144
0.175106
0.178825
0.182372
0.185927
0.189204
0.192799
0.195948
0.19896
0.201856
0.204818
0.207829
0.210927
0.21396
0.217101
0.219548
0.221731
0.223523
0.224947
0.226483
0.228265
0.230274
0.232396
0.234579
0.236774
0.238961
0.241109
0.243199
0.245198
0.247119
0.248961
0.25074
0.252448
0.254103
0.255693
0.257235
0.258717
0.260153
0.261537
0.262872
0.26416
0.265433
0.266674
0.267886
0.269046
0.270143
0.271193
0.272197
0.273154
0.274068
0.274943
0.275781
0.276585
0.277359
0.278108
0.278836
0.279549
0.280251
0.280945
0.281637
0.282324
0.283016
0.283705
0.284405
0.285098
0.285812
0.28651
0.287242
0.28794
0.288694
0.289381
0.290168
0.290828
0.291668
0.292275
0.293173
0.293735
0.29461
0.295682
0.295879
0.0514205
0.0515871
0.0517891
0.0523065
0.0531345
0.0540972
0.0555175
0.0568366
0.0583733
0.0599957
0.0618872
0.0644316
0.0673176
0.070277
0.0734055
0.0764032
0.079381
0.0823192
0.085324
0.0886108
0.0917508
0.0948685
0.0977973
0.10088
0.103909
0.10696
0.110203
0.113586
0.11726
0.120932
0.125067
0.12927
0.133936
0.138698
0.145376
0.148217
0.153303
0.155013
0.153892
0.154574
0.156909
0.159831
0.163045
0.166476
0.169907
0.173277
0.176456
0.179531
0.182405
0.185228
0.187994
0.19072
0.193382
0.196003
0.19855
0.201055
0.203482
0.205858
0.208174
0.21038
0.212729
0.215035
0.217229
0.219303
0.221211
0.222991
0.224723
0.226404
0.228052
0.229643
0.231173
0.232656
0.234094
0.235494
0.23686
0.238204
0.239528
0.240841
0.242139
0.243432
0.244711
0.245991
0.247253
0.248522
0.249768
0.251029
0.252256
0.25351
0.254713
0.255965
0.257135
0.258394
0.259511
0.260812
0.261825
0.263141
0.264065
0.265383
0.266665
0.267599
0.0451251
0.0442507
0.0434307
0.0428248
0.0424952
0.0423597
0.0424663
0.0426905
0.0430344
0.0433738
0.0436301
0.0437456
0.0437997
0.0436426
0.0435983
0.0435331
0.0437334
0.0436711
0.0437684
0.0436393
0.0438678
0.0438767
0.044423
0.0447955
0.0458494
0.0462714
0.0469312
0.0479117
0.0488197
0.050664
0.0517762
0.053815
0.0563429
0.0590019
0.0617332
0.0640442
0.0655428
0.0669785
0.0687732
0.0712494
0.0742175
0.0777182
0.0814819
0.0853937
0.0893752
0.0934212
0.0974774
0.101509
0.105462
0.109365
0.113195
0.116981
0.120689
0.124356
0.127935
0.131471
0.134912
0.1383
0.141601
0.144819
0.147856
0.150821
0.153661
0.15647
0.159201
0.161871
0.164537
0.166721
0.169118
0.171443
0.17377
0.176114
0.178413
0.180648
0.182824
0.184975
0.187085
0.189182
0.19124
0.19329
0.195298
0.197301
0.199255
0.201211
0.20311
0.205022
0.206868
0.208741
0.210534
0.212369
0.214115
0.21591
0.21761
0.219423
0.220728
0.222453
0.223904
0.22576
0.227179
0.229277
0.0398849
0.0384574
0.0370443
0.0359312
0.0349169
0.0338876
0.032903
0.0319958
0.0311996
0.0304665
0.0298379
0.0292686
0.0286837
0.0282812
0.0276422
0.0269672
0.0260379
0.0251433
0.024396
0.0237134
0.0231208
0.0226125
0.0221153
0.021753
0.0213602
0.0211735
0.0208279
0.0208255
0.0205195
0.0205865
0.021013
0.0209653
0.0216524
0.0217348
0.0223729
0.0227547
0.0242866
0.0239053
0.0239802
0.0251144
0.0262907
0.0261003
0.0273237
0.0285691
0.0299851
0.0315927
0.0333438
0.0352597
0.0372914
0.039472
0.0417554
0.0441802
0.0467018
0.0493554
0.0520992
0.0549592
0.0578938
0.0609268
0.0640023
0.067181
0.0704586
0.0738349
0.0772853
0.0807801
0.0842551
0.0877436
0.091197
0.0946097
0.0979747
0.101301
0.104535
0.107739
0.110858
0.113953
0.116961
0.119959
0.122869
0.125784
0.128609
0.131446
0.134155
0.136861
0.139436
0.142038
0.14452
0.147077
0.149491
0.152021
0.154363
0.156883
0.159137
0.16167
0.163806
0.166407
0.168352
0.171004
0.172908
0.175765
0.177428
0.180561
0.0274291
0.0260532
0.0246561
0.0230317
0.0215274
0.0203462
0.0194068
0.0186451
0.0180131
0.0174785
0.0170138
0.0166075
0.0162492
0.0159413
0.0156523
0.0153805
0.0151064
0.0148286
0.0145519
0.0142832
0.0140177
0.013771
0.0135213
0.0132999
0.0130678
0.0128787
0.0126608
0.0125152
0.0123358
0.0122336
0.0121185
0.0120809
0.0120201
0.0119963
0.0119208
0.0119056
0.0118833
0.0118563
0.011809
0.0116467
0.0117679
0.0118731
0.0119436
0.01201
0.0121204
0.0123221
0.0125801
0.0128425
0.0131223
0.0134624
0.013822
0.0142614
0.0147231
0.0152887
0.0158791
0.0165928
0.0173333
0.018215
0.0191168
0.0201767
0.0212482
0.0224941
0.0237486
0.0251961
0.0266464
0.0282988
0.0299429
0.0317971
0.033628
0.035679
0.0376852
0.039917
0.0420855
0.0444871
0.046807
0.0493715
0.0518342
0.0545526
0.0571398
0.0600012
0.0627308
0.0657856
0.0686595
0.0718692
0.0748098
0.0780942
0.0810291
0.0843647
0.0872455
0.0906165
0.0933963
0.0967983
0.0994324
0.102874
0.105314
0.108824
0.111018
0.114598
0.116938
0.120489
0.0148052
0.0148605
0.0146793
0.0143839
0.014027
0.0136488
0.0132781
0.0129298
0.0126127
0.0123286
0.0120768
0.0118548
0.0116583
0.0114851
0.0113305
0.0111929
0.0110675
0.0109536
0.0108468
0.0107472
0.0106504
0.0105592
0.0104696
0.0103854
0.0102974
0.010216
0.0101322
0.0100592
0.00998235
0.00991721
0.00984966
0.00979359
0.00973476
0.00968145
0.00963014
0.0095818
0.00953708
0.00949306
0.0094487
0.00940591
0.00936897
0.00934015
0.00931232
0.0092892
0.00926914
0.00925395
0.00924989
0.00924172
0.00925204
0.00924663
0.00927591
0.00926641
0.00929865
0.00932329
0.00935114
0.00941029
0.00945044
0.00953457
0.00959167
0.00970728
0.00978117
0.00993555
0.0100303
0.0102356
0.0103654
0.0106178
0.0107851
0.0111207
0.0113149
0.0117146
0.0119625
0.01247
0.0127789
0.0134107
0.0137964
0.0145705
0.015056
0.0159778
0.0165817
0.0176842
0.0184239
0.0197352
0.0206317
0.0221813
0.0232506
0.0250578
0.0262931
0.0283641
0.0297493
0.0320831
0.0336009
0.0361901
0.0378193
0.0406455
0.0423549
0.0454029
0.0471466
0.0504496
0.0519606
0.0566942
0.0116669
0.0115585
0.0113985
0.0112243
0.0110529
0.0108893
0.0107375
0.0105963
0.0104658
0.010344
0.01023
0.0101229
0.0100217
0.00992604
0.00983499
0.00974882
0.00966642
0.00958835
0.00951408
0.0094446
0.00937838
0.00931639
0.00925839
0.0092074
0.00916572
0.00912912
0.00909477
0.00906069
0.0090267
0.00899207
0.00895751
0.00892291
0.00888856
0.00885533
0.00882167
0.00878952
0.00875606
0.00872307
0.00869048
0.00866108
0.00863131
0.00860544
0.00857735
0.00855521
0.00852929
0.00851182
0.0084891
0.0084767
0.0084574
0.00844792
0.0084346
0.00842565
0.00841348
0.00840684
0.00839665
0.00838891
0.00838234
0.00837002
0.00836728
0.00835251
0.00834153
0.00835103
0.00835151
0.00835366
0.00837873
0.00831705
0.00831751
0.00838836
0.00833543
0.00838839
0.00842637
0.0084141
0.00836742
0.00838742
0.00841289
0.00845253
0.00846961
0.00851298
0.00855585
0.00862631
0.00870391
0.00881046
0.00891115
0.00906925
0.00919965
0.00941674
0.00958553
0.00986392
0.0100506
0.0104387
0.0106827
0.0111513
0.0114779
0.0120812
0.0124051
0.0132377
0.0137186
0.0146082
0.0150316
0.0168442
0.00999104
0.00995653
0.00991077
0.00985355
0.00978865
0.00971896
0.00964838
0.00957823
0.00951109
0.00944695
0.00938716
0.00933019
0.00927651
0.00922381
0.00917244
0.00912021
0.00906831
0.00901534
0.00896308
0.00891069
0.00886026
0.00881113
0.00876464
0.00871981
0.0086772
0.00863616
0.00859694
0.00855917
0.0085226
0.0084872
0.00845243
0.00841869
0.00838546
0.00835336
0.00832204
0.00829223
0.00826355
0.00823681
0.00821138
0.00818803
0.00816597
0.00814594
0.00812708
0.00811
0.0080938
0.00807904
0.00806483
0.00805166
0.00803878
0.00802649
0.00801438
0.00800232
0.00799058
0.00797822
0.00796662
0.00795364
0.00794208
0.00792853
0.00791681
0.00790325
0.00789015
0.00787606
0.0078609
0.00784769
0.00783213
0.00781689
0.00780092
0.00779118
0.00777493
0.0077673
0.00775311
0.00774978
0.00773515
0.00773369
0.00772168
0.00772154
0.00770851
0.00771062
0.00769647
0.0077032
0.00768857
0.0076997
0.00768739
0.00769844
0.00769663
0.00769881
0.00771645
0.00775088
0.00775391
0.0078191
0.00781599
0.00781729
0.00779856
0.00783254
0.00784996
0.00788447
0.00791898
0.00799315
0.00792654
0.00823906
0.00901388
0.0089761
0.00894063
0.00890847
0.00888082
0.00885352
0.00882448
0.00878958
0.00874904
0.00870171
0.00865064
0.00859628
0.00854255
0.00848946
0.00844024
0.00839365
0.00835201
0.00831298
0.00827836
0.00824528
0.00821531
0.00818531
0.00815693
0.00812714
0.00809791
0.00806656
0.00803543
0.00800221
0.00796955
0.00793537
0.00790248
0.00786886
0.00783732
0.00780579
0.00777697
0.00774867
0.00772343
0.00769893
0.00767758
0.0076569
0.00763929
0.00762213
0.00760777
0.00759358
0.00758183
0.00756993
0.00756002
0.0075497
0.00754087
0.00753148
0.0075231
0.00751406
0.00750562
0.00749651
0.00748766
0.00747827
0.0074689
0.00745918
0.00744939
0.00743958
0.00742955
0.00741995
0.00741014
0.00740102
0.00739139
0.00738303
0.00737384
0.00736625
0.00735748
0.00735033
0.00734232
0.00733578
0.00732799
0.00732223
0.00731409
0.00730889
0.00730051
0.00729542
0.00728771
0.00728268
0.00727641
0.00727124
0.00726734
0.0072609
0.00725845
0.00724966
0.00725058
0.00724341
0.00724474
0.00724038
0.0072434
0.0072418
0.00724387
0.00724667
0.00724345
0.00725537
0.0072501
0.00726844
0.00727198
0.00727613
0.00834631
0.00834318
0.00833126
0.00831191
0.00828701
0.00825649
0.00822296
0.00818645
0.00814958
0.00811187
0.0080754
0.00803881
0.00800372
0.00796828
0.00793414
0.00789935
0.00786585
0.00783173
0.00779923
0.00776638
0.00773559
0.00770472
0.00767628
0.0076479
0.00762216
0.0075964
0.00757334
0.00755008
0.00752948
0.00750845
0.00749004
0.00747095
0.00745448
0.00743711
0.00742233
0.00740645
0.00739315
0.00737851
0.00736645
0.00735278
0.00734167
0.0073287
0.00731826
0.00730575
0.00729579
0.00728359
0.00727397
0.00726202
0.00725272
0.00724105
0.0072321
0.00722082
0.00721234
0.00720158
0.0071937
0.00718357
0.0071764
0.00716697
0.00716056
0.00715184
0.00714617
0.00713809
0.0071331
0.00712553
0.0071211
0.00711386
0.00710984
0.00710275
0.00709903
0.00709195
0.00708846
0.00708128
0.00707796
0.00707067
0.00706752
0.00706014
0.00705719
0.00704978
0.00704712
0.00703977
0.00703745
0.00703025
0.00702831
0.00702132
0.00701971
0.00701296
0.00701168
0.00700516
0.00700433
0.00699776
0.0069975
0.00699081
0.0069911
0.00698449
0.00698476
0.00697853
0.0069795
0.00697432
0.00695352
0.00698119
0.0078285
0.00782771
0.00782136
0.00781048
0.00779672
0.00777924
0.00775965
0.00773695
0.007713
0.00768691
0.0076608
0.00763365
0.00760757
0.00758119
0.00755645
0.00753163
0.00750858
0.00748525
0.00746349
0.00744109
0.00742001
0.00739794
0.00737708
0.00735512
0.00733451
0.00731295
0.00729311
0.00727261
0.00725429
0.00723556
0.00721936
0.00720282
0.00718894
0.00717452
0.00716272
0.00715
0.00713972
0.00712804
0.00711862
0.00710735
0.00709823
0.00708691
0.00707776
0.00706617
0.00705688
0.00704505
0.00703573
0.00702384
0.0070147
0.00700303
0.00699434
0.00698319
0.0069752
0.00696479
0.00695771
0.00694821
0.00694214
0.0069336
0.00692856
0.00692093
0.00691685
0.00690999
0.00690672
0.00690043
0.00689778
0.00689181
0.0068896
0.00688371
0.00688178
0.00687578
0.00687402
0.00686781
0.00686613
0.0068597
0.00685804
0.00685145
0.0068498
0.00684316
0.00684157
0.00683492
0.0068335
0.00682687
0.00682574
0.00681908
0.00681837
0.00681163
0.00681131
0.00680457
0.0068044
0.00679779
0.00679768
0.00679096
0.00679123
0.0067843
0.00678506
0.0067779
0.00677715
0.00677127
0.00676938
0.00676287
0.00746971
0.00747206
0.00746967
0.00746298
0.00745374
0.00744123
0.00742734
0.00741108
0.00739434
0.00737592
0.00735769
0.00733821
0.00731934
0.00729942
0.0072804
0.00726046
0.00724166
0.00722206
0.00720382
0.0071849
0.00716755
0.00714959
0.00713335
0.00711653
0.00710149
0.00708581
0.00707191
0.00705727
0.00704439
0.00703063
0.00701861
0.00700559
0.00699435
0.00698199
0.00697148
0.00695975
0.00694998
0.00693886
0.00692983
0.0069193
0.006911
0.00690103
0.00689342
0.00688395
0.00687696
0.00686794
0.00686153
0.00685292
0.006847
0.00683878
0.00683327
0.00682543
0.00682026
0.00681276
0.00680788
0.0068007
0.00679605
0.00678916
0.00678471
0.00677805
0.00677379
0.00676732
0.00676326
0.00675693
0.00675307
0.00674684
0.00674321
0.00673704
0.00673365
0.00672753
0.00672437
0.0067183
0.00671532
0.00670938
0.00670649
0.00670078
0.00669786
0.00669246
0.00668945
0.00668437
0.00668127
0.0066765
0.00667333
0.00666882
0.00666561
0.00666135
0.0066581
0.00665404
0.00665087
0.00664677
0.00664405
0.00663943
0.00663765
0.00663232
0.00663075
0.00662494
0.00662358
0.00661443
0.00662971
0.00659209
0.00721052
0.00721354
0.00721329
0.00720935
0.0072036
0.00719513
0.0071857
0.00717406
0.00716201
0.0071482
0.00713453
0.00711948
0.00710504
0.00708949
0.00707486
0.00705925
0.00704477
0.00702933
0.00701517
0.00700005
0.00698633
0.00697168
0.00695856
0.00694452
0.00693215
0.00691887
0.00690737
0.00689493
0.00688431
0.00687269
0.00686288
0.00685194
0.00684281
0.00683238
0.00682376
0.00681368
0.00680548
0.00679567
0.00678784
0.00677828
0.00677084
0.00676157
0.00675461
0.00674569
0.00673927
0.00673075
0.00672493
0.00671685
0.00671164
0.006704
0.00669937
0.00669215
0.00668801
0.00668116
0.00667742
0.00667089
0.00666743
0.00666118
0.00665789
0.00665186
0.00664868
0.00664282
0.00663972
0.00663396
0.00663098
0.00662523
0.0066224
0.00661662
0.00661397
0.00660817
0.00660566
0.0065999
0.00659746
0.00659183
0.00658938
0.00658394
0.00658143
0.00657624
0.0065736
0.00656873
0.00656592
0.00656138
0.0065584
0.00655416
0.00655105
0.00654709
0.00654382
0.00654023
0.00653665
0.00653363
0.0065295
0.00652716
0.00652268
0.00652075
0.0065165
0.00651226
0.00650968
0.00650386
0.00650133
0.00649623
0.00702071
0.00702443
0.00702622
0.00702453
0.00702116
0.00701514
0.00700825
0.00699924
0.00698993
0.00697893
0.00696812
0.00695593
0.0069443
0.00693151
0.00691957
0.00690658
0.00689467
0.00688178
0.00687015
0.00685756
0.00684637
0.00683421
0.00682355
0.00681188
0.00680178
0.0067906
0.00678108
0.00677039
0.00676143
0.00675123
0.00674282
0.00673309
0.00672523
0.00671595
0.00670864
0.0066998
0.00669302
0.00668457
0.0066783
0.0066702
0.0066644
0.00665661
0.00665124
0.0066437
0.00663871
0.0066314
0.00662674
0.00661963
0.00661527
0.00660835
0.00660426
0.00659751
0.00659365
0.00658708
0.00658342
0.00657702
0.00657353
0.00656729
0.00656397
0.00655789
0.00655471
0.00654876
0.00654576
0.00653989
0.0065371
0.00653126
0.00652872
0.00652285
0.00652059
0.00651467
0.00651266
0.00650673
0.0065049
0.00649902
0.00649729
0.00649153
0.00648982
0.00648425
0.00648247
0.00647715
0.00647527
0.00647017
0.00646826
0.00646327
0.00646144
0.00645649
0.00645472
0.00644995
0.00644799
0.00644369
0.00644131
0.00643748
0.00643494
0.00643121
0.00642965
0.00642376
0.00642268
0.00641656
0.00641467
0.00640896
0.00687644
0.00688079
0.00688337
0.00688278
0.00688081
0.00687641
0.00687134
0.00686429
0.00685704
0.00684816
0.00683952
0.00682952
0.00682009
0.00680948
0.00679971
0.00678886
0.00677904
0.0067682
0.00675855
0.00674788
0.00673855
0.00672817
0.00671922
0.0067092
0.0067007
0.00669105
0.00668301
0.00667375
0.00666616
0.00665726
0.00665012
0.00664156
0.00663484
0.0066266
0.0066203
0.00661237
0.00660649
0.00659886
0.00659339
0.00658605
0.00658099
0.00657391
0.00656923
0.00656239
0.00655806
0.00655145
0.00654741
0.006541
0.00653719
0.00653098
0.00652735
0.00652132
0.00651782
0.00651197
0.00650856
0.00650287
0.00649956
0.00649399
0.0064908
0.00648532
0.00648226
0.00647684
0.00647395
0.00646856
0.00646586
0.00646046
0.00645797
0.00645254
0.00645029
0.00644479
0.0064428
0.00643722
0.00643546
0.00642984
0.00642824
0.00642267
0.0064211
0.00641569
0.00641407
0.00640887
0.00640714
0.00640219
0.00640031
0.00639567
0.00639356
0.00638924
0.00638704
0.00638273
0.00638089
0.00637604
0.00637513
0.00636929
0.00636953
0.00636269
0.00636351
0.00635664
0.00635865
0.00634977
0.00634665
0.00634166
0.00676639
0.00677111
0.00677423
0.00677443
0.00677352
0.00677034
0.00676665
0.00676108
0.00675542
0.00674816
0.00674119
0.00673283
0.00672507
0.00671607
0.00670791
0.00669861
0.00669034
0.00668098
0.0066728
0.00666354
0.0066556
0.00664655
0.00663893
0.00663015
0.00662288
0.0066144
0.00660751
0.00659933
0.00659283
0.00658495
0.00657881
0.00657122
0.00656544
0.0065581
0.00655266
0.00654556
0.00654044
0.00653356
0.00652875
0.00652205
0.00651753
0.00651101
0.00650676
0.0065004
0.00649642
0.0064902
0.00648646
0.00648037
0.00647687
0.00647091
0.00646761
0.00646178
0.00645867
0.00645296
0.00645001
0.0064444
0.00644161
0.00643609
0.00643343
0.00642799
0.00642546
0.00642007
0.00641768
0.00641233
0.00641006
0.00640473
0.0064026
0.00639728
0.00639529
0.00638997
0.00638811
0.00638279
0.00638107
0.00637576
0.00637415
0.00636887
0.00636733
0.00636213
0.00636061
0.00635552
0.006354
0.00634905
0.00634751
0.0063427
0.00634112
0.00633645
0.00633485
0.00633029
0.00632868
0.00632424
0.00632261
0.00631826
0.00631665
0.00631219
0.00631105
0.00630667
0.00630367
0.00630193
0.00628308
0.00630842
0.00668418
0.0066887
0.00669199
0.00669263
0.00669237
0.00668998
0.00668722
0.00668262
0.00667804
0.00667188
0.00666606
0.00665887
0.0066523
0.00664449
0.00663753
0.00662939
0.0066223
0.00661406
0.00660702
0.00659882
0.00659194
0.00658388
0.00657724
0.00656938
0.00656302
0.00655539
0.00654934
0.00654193
0.0065362
0.00652903
0.0065236
0.00651665
0.00651152
0.00650478
0.00649994
0.00649338
0.00648882
0.00648244
0.00647813
0.0064719
0.00646784
0.00646176
0.00645793
0.00645197
0.00644836
0.00644251
0.00643912
0.00643337
0.00643017
0.00642451
0.00642149
0.00641592
0.00641308
0.00640759
0.0064049
0.00639947
0.00639692
0.00639156
0.00638914
0.00638383
0.00638152
0.00637625
0.00637406
0.00636882
0.00636674
0.00636153
0.00635955
0.00635436
0.00635249
0.0063473
0.00634554
0.00634037
0.00633871
0.00633356
0.00633199
0.00632687
0.00632537
0.00632031
0.00631884
0.00631387
0.00631242
0.00630755
0.00630609
0.00630134
0.00629986
0.00629523
0.00629372
0.00628922
0.00628765
0.00628332
0.00628168
0.00627748
0.0062758
0.00627155
0.00627031
0.0062662
0.00626308
0.00626154
0.00624329
0.00626772
0.00662132
0.00662561
0.0066289
0.00662975
0.00662991
0.00662805
0.00662594
0.00662206
0.00661827
0.00661293
0.00660798
0.00660164
0.00659596
0.00658899
0.0065829
0.00657558
0.00656933
0.00656187
0.00655562
0.00654815
0.00654203
0.00653466
0.00652873
0.0065215
0.00651582
0.00650877
0.00650335
0.00649649
0.00649134
0.00648466
0.00647977
0.00647327
0.00646864
0.0064623
0.00645791
0.00645171
0.00644755
0.0064415
0.00643756
0.00643163
0.0064279
0.00642208
0.00641857
0.00641285
0.00640953
0.00640391
0.00640078
0.00639524
0.0063923
0.00638683
0.00638406
0.00637867
0.00637606
0.00637073
0.00636827
0.00636298
0.00636065
0.00635542
0.00635319
0.006348
0.00634587
0.00634071
0.00633868
0.00633355
0.00633161
0.0063265
0.00632465
0.00631956
0.00631781
0.00631272
0.00631107
0.00630598
0.00630444
0.00629936
0.00629791
0.00629285
0.00629147
0.00628646
0.00628513
0.00628018
0.00627887
0.00627401
0.00627271
0.00626795
0.00626662
0.00626199
0.00626063
0.00625611
0.00625472
0.00625029
0.00624889
0.00624454
0.00624309
0.00623919
0.0062372
0.00623257
0.00623104
0.00622316
0.00623738
0.00620276
0.00657325
0.00657729
0.00658049
0.0065814
0.00658176
0.00658019
0.00657845
0.006575
0.0065717
0.00656686
0.00656246
0.00655667
0.00655157
0.00654516
0.00653967
0.00653292
0.00652725
0.00652034
0.00651466
0.00650772
0.00650214
0.00649526
0.00648985
0.00648308
0.00647789
0.00647126
0.0064663
0.00645983
0.00645511
0.0064488
0.00644432
0.00643815
0.0064339
0.00642786
0.00642384
0.00641791
0.00641411
0.00640829
0.00640469
0.00639896
0.00639556
0.00638991
0.0063867
0.00638113
0.00637811
0.00637261
0.00636976
0.00636433
0.00636165
0.00635628
0.00635376
0.00634844
0.00634607
0.00634079
0.00633855
0.00633331
0.0063312
0.00632598
0.00632397
0.00631879
0.00631687
0.00631171
0.00630987
0.00630473
0.00630298
0.00629785
0.00629619
0.00629105
0.00628951
0.00628435
0.00628292
0.00627774
0.00627642
0.00627124
0.00627
0.00626484
0.00626368
0.00625856
0.00625744
0.00625238
0.00625128
0.0062463
0.00624521
0.00624032
0.00623922
0.00623443
0.0062333
0.00622863
0.00622744
0.00622291
0.00622165
0.00621725
0.0062159
0.006212
0.00621005
0.00620542
0.0062039
0.00619623
0.00621039
0.00617574
0.00653413
0.00653792
0.00654095
0.00654186
0.00654231
0.00654093
0.00653943
0.00653629
0.00653332
0.00652887
0.00652488
0.00651952
0.00651485
0.0065089
0.00650386
0.00649756
0.00649234
0.00648588
0.00648065
0.00647415
0.006469
0.00646255
0.00645756
0.00645119
0.00644639
0.00644015
0.00643556
0.00642944
0.00642507
0.00641907
0.00641491
0.00640903
0.00640508
0.00639929
0.00639554
0.00638984
0.00638629
0.00638065
0.0063773
0.00637173
0.00636856
0.00636305
0.00636006
0.0063546
0.00635179
0.00634637
0.00634374
0.00633836
0.00633588
0.00633054
0.00632822
0.00632291
0.00632072
0.00631544
0.00631338
0.00630812
0.00630618
0.00630093
0.0062991
0.00629385
0.00629212
0.00628687
0.00628524
0.00627998
0.00627847
0.00627316
0.00627179
0.00626642
0.00626521
0.00625976
0.00625873
0.00625319
0.00625234
0.00624673
0.00624603
0.00624038
0.00623981
0.00623413
0.00623367
0.00622799
0.00622762
0.00622193
0.00622169
0.00621593
0.00621587
0.00620999
0.00621011
0.0062042
0.00620434
0.00619853
0.00619866
0.00619287
0.006193
0.0061875
0.00618769
0.00618148
0.00618123
0.00617313
0.00618772
0.00615253
0.00650202
0.00650559
0.00650847
0.00650939
0.00650991
0.00650873
0.00650744
0.00650461
0.00650194
0.00649787
0.00649423
0.00648929
0.00648501
0.0064795
0.00647484
0.00646898
0.00646414
0.00645811
0.00645323
0.00644714
0.00644232
0.00643624
0.00643154
0.00642551
0.00642097
0.00641502
0.00641064
0.00640479
0.00640059
0.00639482
0.00639079
0.0063851
0.00638125
0.00637563
0.00637196
0.00636639
0.0063629
0.00635738
0.00635406
0.00634859
0.00634545
0.00634001
0.00633706
0.00633165
0.00632887
0.00632349
0.00632088
0.00631552
0.00631307
0.00630775
0.00630544
0.00630016
0.00629797
0.00629273
0.00629065
0.00628545
0.00628345
0.0062783
0.00627639
0.00627126
0.00626944
0.00626431
0.0062626
0.00625745
0.00625587
0.00625066
0.00624925
0.00624396
0.00624273
0.00623734
0.00623632
0.00623082
0.00623001
0.0062244
0.00622378
0.0062181
0.00621764
0.00621192
0.00621156
0.00620587
0.00620555
0.00619996
0.00619959
0.00619417
0.00619368
0.00618846
0.00618793
0.0061827
0.0061824
0.00617689
0.006177
0.00617119
0.00617146
0.00616587
0.006166
0.00616004
0.00616171
0.00615371
0.00615101
0.00614551
0.00647864
0.00648192
0.00648457
0.00648542
0.0064859
0.0064848
0.0064836
0.00648095
0.00647844
0.00647461
0.00647115
0.00646647
0.00646236
0.00645708
0.00645256
0.0064469
0.00644216
0.00643628
0.00643145
0.00642545
0.00642063
0.00641461
0.00640985
0.00640384
0.00639919
0.00639322
0.0063887
0.00638279
0.00637843
0.0063726
0.00636841
0.00636266
0.00635864
0.00635297
0.00634914
0.00634355
0.00633992
0.00633438
0.00633096
0.00632548
0.00632227
0.00631685
0.00631381
0.00630841
0.00630557
0.0063002
0.00629755
0.00629222
0.00628976
0.00628446
0.00628217
0.00627692
0.00627477
0.00626958
0.00626755
0.00626241
0.00626049
0.0062554
0.00625358
0.00624852
0.0062468
0.00624175
0.00624015
0.00623507
0.00623362
0.00622848
0.00622721
0.00622198
0.00622091
0.00621558
0.00621471
0.00620928
0.00620861
0.00620311
0.00620261
0.00619705
0.00619669
0.00619111
0.00619086
0.00618528
0.00618511
0.00617955
0.00617947