/*--------------------------------*- C++ -*----------------------------------*\
  =========                 |
  \\      /  F ield         | OpenFOAM: The Open Source CFD Toolbox
   \\    /   O peration     | Website:  https://openfoam.org
    \\  /    A nd           | Version:  8
     \\/     M anipulation  |
\*---------------------------------------------------------------------------*/
FoamFile
{
    version     2.0;
    format      ascii;
    class       surfaceScalarField;
    location    "1.499985";
    object      phi;
}
// * * * * * * * * * * * * * * * * * * * * * * * * * * * * * * * * * * * * * //

dimensions      [1 0 -1 0 0 0 0];

internalField   nonuniform List<scalar> 
13330
(
0.18741
-0.0802238
-0.107143
0.416141
-0.637655
0.408932
0.621234
-0.875574
0.670492
0.803439
-1.01312
0.830921
0.965926
-1.09816
0.935674
1.11168
-1.15011
1.00435
1.244
-1.18168
1.04937
1.36606
-1.2007
1.07863
1.48125
-1.21207
1.09688
-1.21948
1.10673
1.594
0.242509
-0.322706
0.45643
-0.851556
0.643636
-1.06277
0.808722
-1.1782
0.953315
-1.24274
1.08123
-1.27802
1.19622
-1.29667
1.30124
-1.30572
1.39853
-1.30935
-1.31028
1.48933
0.245162
-0.567854
0.458334
-1.06472
0.632265
-1.23669
0.780856
-1.32679
0.908288
-1.37017
1.01961
-1.38934
1.11878
-1.39584
1.20882
-1.39576
1.29197
-1.3925
-1.38787
1.36956
0.237586
-0.805427
0.439394
-1.26651
0.597608
-1.3949
0.729493
-1.45866
0.840542
-1.48122
0.936454
-1.48524
1.0215
-1.48088
1.09891
-1.47316
1.17088
-1.46447
-1.45569
1.2387
0.223727
-1.02914
0.407069
-1.44984
0.547387
-1.5352
0.662507
-1.57378
0.757701
-1.57641
0.839456
-1.567
0.912131
-1.55356
0.978721
-1.53975
1.04111
-1.52686
-1.51488
1.1003
0.205155
-1.23428
0.3662
-1.61087
0.487537
-1.65653
0.585851
-1.67209
0.66586
-1.65641
0.73466
-1.6358
0.796172
-1.61507
0.85292
-1.59651
0.906373
-1.58032
-1.56569
0.957177
0.18322
-1.41749
0.320294
-1.74792
0.422459
-1.75868
0.503927
-1.75355
0.569505
-1.72199
0.626221
-1.69252
0.677196
-1.66605
0.724434
-1.64375
0.769004
-1.62489
-1.60792
0.811229
0.159273
-1.57674
0.271865
-1.86049
0.355179
-1.84197
0.419861
-1.81822
0.4717
-1.77383
0.516775
-1.7376
0.557379
-1.70666
0.594965
-1.68134
0.630346
-1.66028
-1.64118
0.663592
0.134446
-1.71117
0.22266
-1.94867
0.287486
-1.90677
0.335659
-1.8664
0.374346
-1.81252
0.407886
-1.77115
0.437909
-1.73669
0.465478
-1.70892
0.491229
-1.68604
-1.66502
0.51507
0.109487
-1.82063
0.173851
-2.01301
0.220527
-1.95344
0.252715
-1.89858
0.278554
-1.83837
0.300369
-1.79297
0.319451
-1.75579
0.33658
-1.72605
0.352253
-1.70172
0.366303
-1.67908
-0.0956999
0.0956968
-0.172878
0.0771754
-0.237974
0.065095
-0.293335
0.0553592
-0.338211
0.044879
-0.370894
0.0326842
-0.389468
0.0185791
-0.392773
0.0033031
-0.381405
-0.0113708
-0.022604
-0.358808
-0.0816232
0.177312
-0.14992
0.145464
-0.205784
0.120956
-0.250614
0.100191
-0.283849
0.0781175
-0.303327
0.0521725
-0.305975
0.0212339
-0.290272
-0.012402
-0.258332
-0.0433266
-0.0665819
-0.214379
-0.0625738
0.23988
-0.11316
0.196045
-0.151098
0.158891
-0.175435
0.124529
-0.184439
0.0871275
-0.174853
0.0425982
-0.141786
-0.0118245
-0.0888487
-0.0653452
-0.0213211
-0.11087
-0.144123
0.0561889
-0.0403053
0.280173
-0.0690984
0.224829
-0.0825575
0.172346
-0.0762204
0.118195
-0.0443088
0.0552214
0.0180706
-0.0197665
0.102681
-0.0964278
0.197658
-0.160324
0.299496
-0.212727
-0.250627
0.405978
-0.0190128
0.29918
-0.0234776
0.229287
-0.0042551
0.153119
0.0494005
0.0645417
0.142377
-0.0377497
0.260248
-0.137627
0.386594
-0.222767
0.518112
-0.291849
0.652311
-0.346935
-0.387077
0.788739
-0.00135894
0.300544
0.0217598
0.206163
0.0872564
0.087623
0.204079
-0.0522767
0.351779
-0.185444
0.509188
-0.295027
0.669726
-0.383301
0.830787
-0.45291
0.989749
-0.505912
-0.543919
1.14658
0.0105306
0.289997
0.0691269
0.147569
0.201201
-0.0444508
0.374481
-0.225552
0.55698
-0.367939
0.739971
-0.478012
0.918243
-0.56157
1.08937
-0.624043
1.25338
-0.669924
-0.702544
1.41199
0.015519
0.274487
0.142131
0.020947
0.336834
-0.239156
0.53942
-0.428135
0.736473
-0.56499
0.923015
-0.664549
1.09812
-0.736675
1.26284
-0.78876
1.41896
-0.826051
-0.851908
1.56831
0.051801
0.222692
0.250387
-0.177641
0.465939
-0.454708
0.672129
-0.634324
0.863927
-0.756785
1.04094
-0.84156
1.20465
-0.900379
1.357
-0.94112
1.50002
-0.96907
-0.987694
1.6358
0.115551
0.346842
0.562627
0.759225
0.938114
1.10091
1.24989
1.38741
1.51521
1.63425
-0.286515
-0.0723106
-0.217838
-0.0686912
-0.154871
-0.0629807
-0.0969283
-0.0579571
-0.0427441
-0.0541997
0.00869654
-0.0514558
0.0573156
-0.0486333
0.103163
-0.04586
0.14683
-0.0436775
0.188676
-0.0418552
0.228936
-0.0402663
0.267775
-0.0388438
0.305317
-0.0375439
0.341653
-0.0363364
0.376852
-0.0351968
0.410962
-0.0341069
0.444021
-0.0330552
0.476055
-0.0320299
0.507081
-0.0310204
0.537107
-0.0300219
0.566146
-0.0290339
0.594208
-0.0280579
0.621307
-0.0270956
0.647459
-0.0261497
0.672685
-0.025223
0.697004
-0.024318
0.720441
-0.023436
0.743021
-0.022579
0.764771
-0.0217503
0.78572
-0.02095
0.805898
-0.0201794
0.825338
-0.0194417
0.844075
-0.0187381
0.86214
-0.0180681
0.879567
-0.0174291
0.896382
-0.0168168
0.912605
-0.0162254
0.928254
-0.0156515
0.943348
-0.0150961
0.957905
-0.0145586
0.97194
-0.0140385
0.985476
-0.0135384
0.998532
-0.0130582
1.01113
-0.0125972
1.02328
-0.0121555
1.03501
-0.0117348
1.04635
-0.0113344
1.0573
-0.0109512
1.06788
-0.0105839
1.07811
-0.0102314
1.088
-0.00989271
1.09757
-0.00956699
1.10682
-0.00925348
1.11578
-0.00895155
1.12444
-0.00866057
1.13282
-0.00838005
1.14093
-0.00810951
1.14878
-0.00784855
1.15637
-0.00759679
1.16373
-0.00735389
1.17085
-0.00711951
1.17774
-0.00689339
1.18442
-0.00667538
1.19089
-0.00646535
1.19715
-0.00626311
1.20322
-0.00606847
1.2091
-0.00588104
1.2148
-0.00570049
1.22033
-0.0055268
1.22569
-0.00535972
1.23089
-0.00519884
1.23593
-0.00504392
1.24083
-0.00489476
1.24558
-0.00475092
1.25019
-0.00461238
1.25467
-0.0044788
1.25902
-0.00435008
1.26324
-0.00422602
1.26735
-0.00410651
1.27134
-0.00399169
1.27522
-0.00388079
1.279
-0.00377373
1.28267
-0.00367107
1.28624
-0.00357207
1.28972
-0.00347657
1.2931
-0.00338471
1.2964
-0.00329652
1.29961
-0.00321105
1.30274
-0.00312765
1.30578
-0.0030471
1.30875
-0.00296919
1.31164
-0.00289337
1.31446
-0.0028181
1.31721
-0.00274293
1.31987
-0.00266593
1.32246
-0.00258557
1.32496
-0.00249954
1.32736
-0.00240582
1.32967
-0.00230484
-0.00209697
-0.14712
-0.139612
-0.0870073
-0.128842
-0.0316166
-0.118408
0.0203228
-0.109936
0.0689271
-0.102843
0.114537
-0.097104
0.158082
-0.0922131
0.200006
-0.0878155
0.240327
-0.0840246
0.279169
-0.080718
0.316651
-0.0777634
0.352878
-0.0750809
0.387941
-0.0726115
0.421914
-0.0703095
0.454849
-0.0681267
0.48677
-0.0660208
0.517709
-0.0639846
0.547698
-0.0620077
0.576752
-0.0600627
0.604876
-0.0581356
0.632077
-0.0562249
0.658364
-0.0543355
0.683748
-0.0524725
0.708246
-0.0506413
0.731876
-0.0488484
0.754658
-0.047097
0.776615
-0.0453917
0.797773
-0.0437364
0.818156
-0.0421334
0.837786
-0.0405824
0.856689
-0.0390848
0.87489
-0.0376457
0.892417
-0.0362694
0.909306
-0.0349605
0.925593
-0.0337205
0.941313
-0.0325409
0.956488
-0.0314054
0.971133
-0.030301
0.985255
-0.0292237
0.998868
-0.0281781
1.01199
-0.0271659
1.02464
-0.0261913
1.03683
-0.0252582
1.04859
-0.0243638
1.05994
-0.0235075
1.07089
-0.0226902
1.08146
-0.0219107
1.09168
-0.0211658
1.10154
-0.0204526
1.11108
-0.0197688
1.1203
-0.0191122
1.12921
-0.0184812
1.13783
-0.0178741
1.14617
-0.0172897
1.15424
-0.0167268
1.16205
-0.0161844
1.1696
-0.0156617
1.17691
-0.0151578
1.18399
-0.014672
1.19084
-0.0142036
1.19747
-0.0137516
1.2039
-0.0133158
1.21012
-0.0128957
1.21615
-0.0124914
1.22199
-0.0121022
1.22765
-0.0117276
1.23313
-0.011367
1.23845
-0.0110199
1.24361
-0.0106859
1.24862
-0.0103644
1.25348
-0.0100548
1.25819
-0.00975665
1.26276
-0.00946937
1.26721
-0.0091925
1.27152
-0.00892571
1.27571
-0.00866854
1.27978
-0.00842069
1.28374
-0.00818187
1.28758
-0.00795187
1.29132
-0.00773044
1.29496
-0.00751697
1.29849
-0.00731131
1.30193
-0.00711345
1.30528
-0.00692294
1.30855
-0.00673943
1.31172
-0.00656287
1.31482
-0.00639307
1.31784
-0.00622851
1.32078
-0.00606852
1.32365
-0.0059145
1.32644
-0.0057654
1.32917
-0.00561964
1.33182
-0.00547548
1.33441
-0.00533164
1.33693
-0.00518495
1.33938
-0.00503216
1.34174
-0.00486712
1.34402
-0.00468453
1.34618
-0.00446697
-0.0042026
0.103883
-0.187351
0.145719
-0.170713
0.186499
-0.159221
0.226449
-0.149919
0.265247
-0.141675
0.302771
-0.13466
0.339208
-0.12868
0.374745
-0.123379
0.409333
-0.118635
0.442938
-0.11434
0.475567
-0.110405
0.507249
-0.10677
0.538015
-0.103381
0.567892
-0.100185
0.596895
-0.0971259
0.625027
-0.0941462
0.652301
-0.0912502
0.678732
-0.0884304
0.70432
-0.0856414
0.729064
-0.0828709
0.752971
-0.0801237
0.776054
-0.0774111
0.798328
-0.0747414
0.819813
-0.0721212
0.840528
-0.0695609
0.860495
-0.0670619
0.879735
-0.0646311
0.898274
-0.0622753
0.916132
-0.0599926
0.93333
-0.0577815
0.949888
-0.055644
0.965827
-0.0535864
0.981173
-0.0516178
0.995957
-0.0497471
1.01022
-0.0479815
1.02398
-0.0463077
1.03726
-0.0446948
1.05008
-0.0431188
1.06242
-0.0415746
1.07431
-0.0400735
1.08576
-0.0386249
1.0968
-0.0372339
1.10744
-0.0359029
1.1177
-0.0346295
1.1276
-0.0334119
1.13716
-0.0322502
1.14639
-0.0311412
1.1553
-0.0300812
1.16391
-0.0290661
1.17223
-0.0280924
1.18028
-0.0271572
1.18806
-0.0262583
1.19558
-0.0253937
1.20285
-0.0245617
1.20988
-0.0237606
1.21669
-0.0229892
1.22328
-0.0222463
1.22965
-0.0215305
1.23582
-0.0208409
1.2418
-0.0201764
1.24758
-0.0195355
1.25318
-0.0189176
1.25861
-0.0183227
1.26387
-0.0177504
1.26897
-0.0171998
1.27391
-0.01667
1.27871
-0.01616
1.28336
-0.0156691
1.28787
-0.0151968
1.29225
-0.0147421
1.2965
-0.0143041
1.30062
-0.0138822
1.30463
-0.0134756
1.30852
-0.0130838
1.3123
-0.0127063
1.31598
-0.0123426
1.31955
-0.0119922
1.32302
-0.0116548
1.3264
-0.0113299
1.32969
-0.0110172
1.33288
-0.0107162
1.336
-0.0104265
1.33903
-0.0101478
1.34199
-0.00987969
1.34487
-0.00962161
1.34768
-0.00937331
1.35042
-0.00913429
1.3531
-0.00890361
1.35571
-0.00868047
1.35826
-0.00846517
1.36075
-0.00825637
1.36318
-0.00805256
1.36556
-0.00785137
1.36788
-0.00765064
1.37014
-0.00744495
1.37233
-0.00723058
1.37447
-0.00700022
1.37653
-0.00674685
1.3785
-0.00644224
-0.00609434
0.425499
-0.20691
0.446117
-0.191362
0.470023
-0.183155
0.496168
-0.176092
0.52332
-0.168854
0.550771
-0.162138
0.578225
-0.15616
0.605549
-0.150726
0.632588
-0.145694
0.659214
-0.14098
0.685341
-0.136543
0.710923
-0.132358
0.735921
-0.128382
0.7603
-0.124564
0.784038
-0.120861
0.807121
-0.117224
0.829527
-0.113651
0.851238
-0.110135
0.872232
-0.106629
0.89251
-0.103142
0.912085
-0.099692
0.930975
-0.0962959
0.949199
-0.0929615
0.966777
-0.0896953
0.983729
-0.0865107
1.00007
-0.0834035
1.01582
-0.0803838
1.03101
-0.0774616
1.04565
-0.0746292
1.05975
-0.0718843
1.07333
-0.0692309
1.08642
-0.0666737
1.09902
-0.0642195
1.11116
-0.0618843
1.12286
-0.0596874
1.13416
-0.0576096
1.14506
-0.0555973
1.15556
-0.0536203
1.16565
-0.05168
1.17537
-0.0497953
1.18472
-0.0479813
1.19373
-0.0462479
1.20242
-0.0445945
1.2108
-0.0430141
1.21889
-0.0415041
1.2267
-0.0400622
1.23424
-0.0386848
1.24152
-0.0373673
1.24856
-0.0361044
1.25536
-0.0348918
1.26193
-0.0337268
1.26828
-0.0326068
1.27441
-0.0315297
1.28035
-0.0304935
1.28608
-0.0294966
1.29163
-0.0285372
1.297
-0.0276137
1.30219
-0.0267247
1.30722
-0.0258688
1.31209
-0.0250446
1.31681
-0.0242499
1.32138
-0.0234841
1.3258
-0.0227477
1.33009
-0.0220399
1.33425
-0.0213594
1.33829
-0.0207044
1.3422
-0.0200738
1.346
-0.0194668
1.34969
-0.0188827
1.35327
-0.0183206
1.35674
-0.0177792
1.36012
-0.0172577
1.3634
-0.0167553
1.36659
-0.0162717
1.36969
-0.0158061
1.3727
-0.0153579
1.37564
-0.0149266
1.37849
-0.0145117
1.38128
-0.0141127
1.38399
-0.013729
1.38663
-0.0133601
1.38921
-0.0130057
1.39173
-0.0126652
1.39419
-0.0123379
1.39659
-0.0120233
1.39893
-0.0117209
1.40123
-0.01143
1.40348
-0.0111498
1.40567
-0.0108793
1.40783
-0.0106188
1.40994
-0.0103661
1.412
-0.0101194
1.41403
-0.00987671
1.41601
-0.00963411
1.41795
-0.0093849
1.41985
-0.00912639
1.4217
-0.00884894
1.42349
-0.00854498
1.42523
-0.00817697
-0.00775933
0.786868
-0.205071
0.790354
-0.194874
0.79868
-0.191503
0.810383
-0.187817
0.82438
-0.182872
0.839896
-0.177675
0.856439
-0.172721
0.8737
-0.168004
0.891443
-0.16345
0.909472
-0.15902
0.927623
-0.154701
0.945757
-0.150497
0.963745
-0.146372
0.981479
-0.142298
0.998886
-0.138267
1.0159
-0.134234
1.03243
-0.130184
1.04845
-0.126152
1.06396
-0.122131
1.07897
-0.118145
1.09349
-0.114214
1.10755
-0.110348
1.12114
-0.106553
1.13429
-0.102838
1.14699
-0.0992176
1.15928
-0.095685
1.17114
-0.0922509
1.18261
-0.0889252
1.19368
-0.0857034
1.20438
-0.0825829
1.21471
-0.0795649
1.22469
-0.0766522
1.23431
-0.0738417
1.24358
-0.0711487
1.2525
-0.0686158
1.26111
-0.066218
1.26938
-0.0638786
1.27733
-0.0615712
1.28496
-0.0593131
1.29229
-0.0571362
1.29936
-0.0550536
1.30618
-0.0530701
1.31276
-0.0511796
1.31912
-0.0493736
1.32526
-0.0476472
1.33119
-0.0459957
1.33692
-0.0444158
1.34245
-0.0429023
1.3478
-0.0414494
1.35296
-0.0400532
1.35794
-0.0387116
1.36276
-0.0374222
1.36741
-0.0361826
1.37191
-0.0349907
1.37626
-0.0338445
1.38047
-0.0327422
1.38453
-0.0316818
1.38847
-0.0306618
1.39229
-0.0296805
1.39598
-0.0287366
1.39956
-0.0278264
1.40302
-0.0269499
1.40638
-0.0261084
1.40964
-0.0252997
1.41281
-0.024522
1.41588
-0.0237732
1.41886
-0.0230521
1.42175
-0.0223581
1.42456
-0.0216912
1.42729
-0.0210499
1.42994
-0.0204325
1.43252
-0.019838
1.43503
-0.0192662
1.43748
-0.0187165
1.43986
-0.0181879
1.44218
-0.01768
1.44445
-0.0171921
1.44666
-0.0167234
1.44882
-0.0162734
1.45093
-0.0158414
1.453
-0.0154268
1.45502
-0.015029
1.457
-0.0146475
1.45895
-0.0142817
1.46086
-0.0139304
1.46273
-0.0135932
1.46457
-0.0132694
1.46637
-0.0129581
1.46815
-0.0126583
1.4699
-0.0123697
1.47163
-0.0120902
1.47333
-0.0118179
1.475
-0.011549
1.47664
-0.0112806
1.47827
-0.0110074
1.47987
-0.0107256
1.48144
-0.010422
1.48298
-0.0100891
1.48449
-0.00968224
-0.00921925
1.13614
-0.194659
1.13181
-0.190564
1.13107
-0.190785
1.13267
-0.189431
1.13637
-0.186584
1.14188
-0.183199
1.1488
-0.179658
1.1568
-0.176016
1.16563
-0.172287
1.17508
-0.168479
1.18496
-0.164592
1.19511
-0.160647
1.20539
-0.156654
1.2157
-0.152611
1.22594
-0.148512
1.23605
-0.144342
1.24599
-0.140124
1.25575
-0.135916
1.26534
-0.131723
1.27475
-0.127554
1.28396
-0.12342
1.29295
-0.119338
1.30172
-0.115316
1.31025
-0.11137
1.31855
-0.107522
1.32663
-0.103764
1.33449
-0.100106
1.34213
-0.0965607
1.34955
-0.0931326
1.35679
-0.0898135
1.36382
-0.0865943
1.37065
-0.083482
1.37727
-0.0804688
1.38367
-0.0775519
1.38981
-0.0747533
1.39564
-0.0720583
1.40119
-0.0694276
1.40648
-0.0668688
1.41158
-0.0644116
1.41651
-0.0620774
1.42131
-0.0598528
1.42596
-0.0577257
1.43047
-0.0556902
1.43484
-0.0537393
1.43906
-0.0518707
1.44314
-0.0500797
1.44708
-0.0483618
1.45089
-0.0467132
1.45457
-0.0451298
1.45813
-0.0436088
1.46156
-0.0421481
1.46489
-0.0407447
1.4681
-0.0393959
1.47121
-0.0380996
1.47422
-0.0368534
1.47713
-0.0356553
1.47995
-0.0345032
1.48269
-0.0333954
1.48534
-0.0323304
1.48791
-0.0313076
1.49041
-0.0303228
1.49283
-0.0293747
1.49519
-0.0284633
1.49748
-0.0275855
1.4997
-0.0267408
1.50185
-0.0259282
1.50395
-0.0251468
1.50599
-0.024396
1.50797
-0.0236761
1.50991
-0.0229848
1.5118
-0.0223195
1.51364
-0.0216799
1.51544
-0.0210661
1.5172
-0.0204772
1.51892
-0.0199123
1.52061
-0.0193705
1.52227
-0.0188511
1.5239
-0.0183532
1.52551
-0.017876
1.52708
-0.0174186
1.52864
-0.0169805
1.53017
-0.0165609
1.53168
-0.0161593
1.53317
-0.0157749
1.53465
-0.0154066
1.53611
-0.0150536
1.53756
-0.0147151
1.53899
-0.0143907
1.54041
-0.0140791
1.54182
-0.0137791
1.54322
-0.0134891
1.54461
-0.0132077
1.54599
-0.0129301
1.54736
-0.0126552
1.54873
-0.0123767
1.5501
-0.0120903
1.55146
-0.0117818
1.55281
-0.0114434
1.55415
-0.0110263
-0.0105485
1.3971
-0.17979
1.38858
-0.182053
1.38351
-0.185727
1.38067
-0.186607
1.37985
-0.185771
1.38081
-0.184164
1.38319
-0.182043
1.38666
-0.179493
1.39096
-0.176592
1.39587
-0.173393
1.4012
-0.169929
1.40681
-0.166255
1.41257
-0.162421
1.41841
-0.158456
1.42428
-0.154383
1.43016
-0.150225
1.43604
-0.146014
1.44191
-0.141782
1.44772
-0.137534
1.45344
-0.133283
1.45907
-0.129051
1.46459
-0.124858
1.47
-0.120717
1.47527
-0.116646
1.48041
-0.112661
1.48541
-0.108759
1.49025
-0.104954
1.49495
-0.101259
1.4995
-0.0976794
1.5039
-0.0942098
1.50815
-0.0908459
1.51226
-0.0875968
1.51623
-0.0844368
1.52
-0.0813306
1.52356
-0.0783149
1.52694
-0.0754457
1.53022
-0.0727059
1.53342
-0.070072
1.53655
-0.0675419
1.5396
-0.0651295
1.54256
-0.0628172
1.54543
-0.0605923
1.5482
-0.0584624
1.55088
-0.0564197
1.55347
-0.0544598
1.55596
-0.0525798
1.55838
-0.0507759
1.56071
-0.0490448
1.56296
-0.0473829
1.56514
-0.0457866
1.56724
-0.0442535
1.56928
-0.0427807
1.57125
-0.0413659
1.57315
-0.0400068
1.575
-0.038701
1.57679
-0.0374463
1.57853
-0.0362406
1.58022
-0.0350821
1.58186
-0.0339691
1.58345
-0.032901
1.585
-0.0318732
1.58651
-0.0308832
1.58798
-0.0299319
1.58942
-0.0290179
1.59082
-0.0281405
1.59219
-0.0272984
1.59353
-0.0264898
1.59485
-0.0257134
1.59614
-0.0249694
1.59742
-0.0242563
1.59867
-0.0235719
1.59991
-0.0229163
1.60113
-0.0222888
1.60234
-0.0216881
1.60354
-0.0211128
1.60473
-0.0205622
1.60592
-0.0200355
1.6071
-0.0195314
1.60827
-0.0190491
1.60944
-0.0185877
1.6106
-0.0181465
1.61177
-0.0177246
1.61293
-0.0173217
1.61409
-0.0169372
1.61526
-0.0165695
1.61642
-0.016218
1.61759
-0.015882
1.61876
-0.0155611
1.61993
-0.015254
1.62111
-0.0149591
1.6223
-0.0146748
1.62349
-0.0144005
1.62469
-0.0141319
1.62591
-0.013868
1.62713
-0.0136017
1.62837
-0.0133303
1.62963
-0.0130396
1.63091
-0.0127224
1.63221
-0.0123285
-0.0118713
1.54917
-0.160662
1.53601
-0.168899
1.52676
-0.176484
1.52028
-0.18013
1.51612
-0.181619
1.51398
-0.182027
1.51353
-0.1816
1.51447
-0.180436
1.51652
-0.178653
1.51948
-0.17635
1.52315
-0.173606
1.52739
-0.170498
1.53206
-0.167098
1.53706
-0.163461
1.5423
-0.159632
1.54772
-0.155647
1.55324
-0.151546
1.55882
-0.147365
1.56441
-0.14313
1.56999
-0.138862
1.57552
-0.134585
1.58099
-0.130326
1.58636
-0.126094
1.59162
-0.121903
1.59674
-0.117776
1.6017
-0.113717
1.60648
-0.10974
1.61107
-0.10585
1.61545
-0.10206
1.61962
-0.0983799
1.62357
-0.0947917
1.62727
-0.0912979
1.63071
-0.0878869
1.63394
-0.0845648
1.63702
-0.081392
1.63998
-0.0784118
1.64285
-0.0755771
1.64561
-0.0728327
1.64823
-0.0701642
1.65068
-0.067585
1.65296
-0.0650951
1.65507
-0.0627044
1.65703
-0.0604245
1.65886
-0.0582444
1.66056
-0.0561598
1.66214
-0.0541674
1.66363
-0.052264
1.66503
-0.0504451
1.66635
-0.048705
1.6676
-0.0470385
1.66879
-0.0454425
1.66992
-0.0439142
1.67101
-0.0424505
1.67205
-0.0410485
1.67305
-0.0397052
1.67402
-0.038418
1.67497
-0.0371842
1.67589
-0.0360016
1.67679
-0.0348681
1.67767
-0.0337822
1.67854
-0.0327399
1.67939
-0.0317397
1.68024
-0.0307823
1.68109
-0.0298658
1.68194
-0.0289881
1.68279
-0.0281468
1.68364
-0.0273401
1.68449
-0.0265659
1.68535
-0.0258247
1.68621
-0.025116
1.68708
-0.0244371
1.68795
-0.0237877
1.68883
-0.0231668
1.68971
-0.0225736
1.69061
-0.0220069
1.69151
-0.0214657
1.69242
-0.0209489
1.69335
-0.0204558
1.69429
-0.0199851
1.69523
-0.0195359
1.6962
-0.0191072
1.69717
-0.0186987
1.69816
-0.0183095
1.69916
-0.017939
1.70018
-0.017587
1.70121
-0.017253
1.70227
-0.0169355
1.70334
-0.0166339
1.70443
-0.0163466
1.70555
-0.0160732
1.70668
-0.0158108
1.70784
-0.0155591
1.70903
-0.0153158
1.71024
-0.0150805
1.71148
-0.0148457
1.71276
-0.0146104
1.71408
-0.0143614
1.71546
-0.0140935
1.71689
-0.013758
-0.0133607
1.61442
-0.139287
1.59823
-0.15272
1.58587
-0.164123
1.57672
-0.170983
1.57024
-0.175134
1.56592
-0.177709
1.5634
-0.179079
1.56238
-0.179419
1.56261
-0.178891
1.5639
-0.177642
1.56608
-0.17579
1.56902
-0.17344
1.57259
-0.170676
1.5767
-0.167571
1.58125
-0.164186
1.58617
-0.160574
1.5914
-0.156784
1.59688
-0.152856
1.60257
-0.148822
1.60842
-0.144712
1.61438
-0.140551
1.62042
-0.136369
1.62651
-0.132183
1.63262
-0.12801
1.63871
-0.123874
1.64478
-0.119784
1.6508
-0.115754
1.65674
-0.111792
1.66259
-0.107911
1.66832
-0.104115
1.67392
-0.100395
1.67938
-0.0967577
1.6847
-0.0932089
1.68989
-0.0897629
1.69495
-0.0864485
1.69983
-0.0832919
1.70452
-0.0802756
1.70904
-0.0773528
1.71337
-0.0744961
1.71752
-0.0717265
1.72147
-0.0690544
1.72524
-0.066471
1.7288
-0.0639882
1.73216
-0.0616052
1.73532
-0.0593196
1.73828
-0.0571295
1.74105
-0.0550328
1.74363
-0.0530268
1.74603
-0.0511075
1.74827
-0.049271
1.75034
-0.0475141
1.75226
-0.045834
1.75403
-0.0442283
1.75568
-0.0426942
1.7572
-0.0412291
1.75861
-0.0398306
1.75993
-0.0384961
1.76115
-0.0372235
1.76229
-0.0360106
1.76336
-0.0348552
1.76438
-0.0337538
1.76534
-0.0327038
1.76627
-0.0317037
1.76715
-0.0307519
1.76801
-0.0298464
1.76885
-0.0289849
1.76967
-0.0281649
1.77049
-0.0273841
1.77131
-0.026642
1.77213
-0.0259368
1.77296
-0.0252646
1.7738
-0.0246244
1.77465
-0.0240154
1.77551
-0.0234366
1.77639
-0.0228865
1.77729
-0.0223639
1.77821
-0.0218675
1.77915
-0.0213963
1.78011
-0.0209489
1.7811
-0.0205244
1.78212
-0.0201215
1.78316
-0.0197404
1.78423
-0.01938
1.78533
-0.0190393
1.78646
-0.0187174
1.78762
-0.0184138
1.78881
-0.0181271
1.79004
-0.0178568
1.79129
-0.0176009
1.79258
-0.0173597
1.7939
-0.0171308
1.79525
-0.0169146
1.79665
-0.0167086
1.79808
-0.0165137
1.79956
-0.0163233
1.80109
-0.0161382
1.80267
-0.0159489
1.80433
-0.0157536
1.80609
-0.0155156
-0.0152305
1.61174
-0.116789
1.59342
-0.134394
1.57805
-0.148759
1.56619
-0.159124
1.55742
-0.166362
1.55114
-0.171427
1.54691
-0.174847
1.5444
-0.176911
1.54334
-0.177835
1.54351
-0.177811
1.54471
-0.177002
1.54681
-0.175542
1.54967
-0.173542
1.55319
-0.171094
1.55727
-0.168277
1.56185
-0.165156
1.56684
-0.161787
1.5722
-0.158218
1.57786
-0.15449
1.58379
-0.150639
1.58993
-0.146698
1.59626
-0.142696
1.60273
-0.138657
1.60932
-0.134604
1.616
-0.130555
1.62275
-0.12653
1.62954
-0.122542
1.63635
-0.118603
1.64316
-0.114725
1.64996
-0.110914
1.65673
-0.107171
1.66348
-0.103504
1.67018
-0.0999199
1.67685
-0.0964313
1.68345
-0.0930556
1.68997
-0.0898089
1.69637
-0.086684
1.70268
-0.0836547
1.70888
-0.0807059
1.715
-0.077846
1.72103
-0.0750785
1.72695
-0.0723971
1.73277
-0.069808
1.73848
-0.0673131
1.74407
-0.0649103
1.74953
-0.0625976
1.75487
-0.0603743
1.76009
-0.0582391
1.76517
-0.0561883
1.77011
-0.0542187
1.77492
-0.0523274
1.7796
-0.0505113
1.78414
-0.0487685
1.78854
-0.0470963
1.7928
-0.0454927
1.79693
-0.0439555
1.80092
-0.0424825
1.80476
-0.0410722
1.80848
-0.0397222
1.81205
-0.0384302
1.81549
-0.0371934
1.8188
-0.0360101
1.82197
-0.0348793
1.82502
-0.0338
1.82795
-0.0327707
1.83075
-0.0317898
1.83344
-0.0308557
1.83603
-0.0299666
1.83851
-0.0291215
1.84089
-0.0283193
1.84318
-0.0275574
1.84539
-0.0268346
1.84753
-0.0261497
1.84959
-0.0255016
1.8516
-0.0248889
1.85354
-0.0243105
1.85544
-0.023765
1.8573
-0.0232514
1.85912
-0.0227681
1.86091
-0.0223147
1.86267
-0.0218887
1.86443
-0.0214909
1.86617
-0.0211203
1.8679
-0.020775
1.86964
-0.0204537
1.87138
-0.0201559
1.87314
-0.0198793
1.8749
-0.0196235
1.87669
-0.0193859
1.8785
-0.0191668
1.88033
-0.018964
1.88219
-0.0187783
1.88409
-0.0186066
1.88603
-0.01845
1.88801
-0.0183042
1.89004
-0.0181718
1.89214
-0.0180489
1.89433
-0.0179418
1.89666
-0.0178393
-0.0177575
1.99402
-0.0988155
-2.01199
1.97457
-0.114941
1.95584
-0.130028
1.93842
-0.141699
1.92253
-0.150472
1.90818
-0.157076
1.89529
-0.16196
1.88377
-0.165392
1.87352
-0.167583
1.86443
-0.168721
1.8564
-0.168972
1.84933
-0.168474
1.84313
-0.167347
1.83772
-0.165689
1.83303
-0.163585
1.82898
-0.161109
1.82551
-0.158322
1.82257
-0.155279
1.8201
-0.152026
1.81806
-0.148603
1.81641
-0.145049
1.8151
-0.141394
1.81411
-0.137668
1.8134
-0.133894
1.81294
-0.130096
1.8127
-0.126294
1.81267
-0.122503
1.8128
-0.118739
1.81309
-0.115014
1.81351
-0.111336
1.81405
-0.107713
1.8147
-0.104151
1.81544
-0.100661
1.81626
-0.0972544
1.81714
-0.0939434
1.81807
-0.0907382
1.81902
-0.0876359
1.81999
-0.0846234
1.82098
-0.081693
1.82198
-0.0788467
1.82298
-0.0760852
1.82399
-0.0734078
1.825
-0.0708172
1.826
-0.0683147
1.82699
-0.0659009
1.82797
-0.0635737
1.82892
-0.0613311
1.82986
-0.0591729
1.83076
-0.0570955
1.83164
-0.0550965
1.83249
-0.0531741
1.8333
-0.0513243
1.83407
-0.0495455
1.83481
-0.0478363
1.83552
-0.0461939
1.83618
-0.0446162
1.83679
-0.0431017
1.83737
-0.0416479
1.8379
-0.0402527
1.83839
-0.0389143
1.83882
-0.0376301
1.83921
-0.0363983
1.83955
-0.0352179
1.83984
-0.0340875
1.84007
-0.033005
1.84025
-0.0319694
1.84037
-0.0309793
1.84044
-0.0300325
1.84045
-0.029128
1.84039
-0.0282648
1.84028
-0.0274403
1.8401
-0.0266541
1.83985
-0.0259045
1.83954
-0.0251908
1.83916
-0.0245114
1.83872
-0.0238657
1.83821
-0.0232518
1.83763
-0.0226695
1.83698
-0.0221176
1.83626
-0.0215955
1.83547
-0.021103
1.83462
-0.0206384
1.8337
-0.0201989
1.83271
-0.019786
1.83166
-0.019399
1.83054
-0.019038
1.82936
-0.0187013
1.82813
-0.0183896
1.82684
-0.0180997
1.82551
-0.0178324
1.82413
-0.0175868
1.82272
-0.0173645
1.82127
-0.0171622
1.81981
-0.016982
1.81832
-0.0168217
1.81684
-0.0166854
1.81536
-0.0165747
1.81393
-0.0165037
1.81258
-0.0164928
-0.0166621
2.0131
-0.0809671
-2.03095
1.99572
-0.0975618
1.97871
-0.113015
1.96281
-0.125799
1.94821
-0.135866
1.93487
-0.143732
1.92272
-0.149815
1.91171
-0.15438
1.90176
-0.157635
1.8928
-0.159765
1.88476
-0.160936
1.87758
-0.16129
1.87117
-0.160947
1.86549
-0.160012
1.86048
-0.158572
1.85607
-0.156704
1.85222
-0.154473
1.84887
-0.151939
1.84599
-0.149151
1.84354
-0.146153
1.84147
-0.142984
1.83976
-0.139681
1.83836
-0.136273
1.83726
-0.132788
1.83641
-0.12925
1.83579
-0.125681
1.83539
-0.1221
1.83517
-0.118523
1.83512
-0.114964
1.83522
-0.111434
1.83545
-0.107943
1.8358
-0.1045
1.83625
-0.101116
1.83679
-0.0978004
1.83741
-0.0945653
1.83809
-0.0914178
1.83881
-0.0883576
1.83957
-0.0853795
1.84035
-0.08248
1.84117
-0.0796599
1.842
-0.076919
1.84285
-0.0742574
1.84371
-0.0716784
1.84457
-0.0691824
1.84544
-0.066769
1.84631
-0.0644393
1.84717
-0.0621924
1.84802
-0.060025
1.84886
-0.0579356
1.84968
-0.0559224
1.85049
-0.0539828
1.85128
-0.0521163
1.85205
-0.0503199
1.85281
-0.0485916
1.85354
-0.0469292
1.85426
-0.0453311
1.85495
-0.0437954
1.85562
-0.0423199
1.85627
-0.0409026
1.8569
-0.0395417
1.85751
-0.0382355
1.85809
-0.0369816
1.85865
-0.0357784
1.85919
-0.034625
1.8597
-0.03352
1.8602
-0.0324613
1.86066
-0.0314479
1.86111
-0.0304788
1.86153
-0.0295518
1.86194
-0.0286655
1.86231
-0.0278182
1.86267
-0.0270087
1.863
-0.0262352
1.86331
-0.0254973
1.86359
-0.0247934
1.86385
-0.024123
1.86408
-0.0234847
1.86429
-0.0228773
1.86447
-0.0222997
1.86463
-0.0217516
1.86476
-0.021232
1.86486
-0.0207386
1.86493
-0.0202706
1.86497
-0.0198288
1.86499
-0.0194112
1.86497
-0.0190177
1.86491
-0.0186478
1.86483
-0.0183009
1.8647
-0.0179769
1.86455
-0.0176762
1.86436
-0.0173957
1.86413
-0.0171365
1.86387
-0.0168983
1.86357
-0.0166829
1.86323
-0.01649
1.86287
-0.0163242
1.86249
-0.0161905
1.86209
-0.0161025
1.86168
-0.0160875
-0.0162402
2.02435
-0.0636643
-2.04165
2.00811
-0.0813143
1.99237
-0.0972709
1.97746
-0.11089
1.96359
-0.121995
1.95079
-0.130925
1.93902
-0.138047
1.92826
-0.14362
1.91847
-0.147842
1.9096
-0.150891
1.90159
-0.152927
1.89439
-0.15409
1.88794
-0.154499
1.88218
-0.15426
1.87707
-0.153463
1.87255
-0.152186
1.86858
-0.1505
1.8651
-0.148464
1.86208
-0.146132
1.85948
-0.143551
1.85725
-0.140764
1.85538
-0.137807
1.85382
-0.134715
1.85254
-0.131516
1.85153
-0.128237
1.85075
-0.124901
1.85018
-0.12153
1.8498
-0.118142
1.84958
-0.114751
1.84952
-0.111371
1.84959
-0.108014
1.84978
-0.104692
1.85008
-0.101414
1.85047
-0.0981923
1.85094
-0.0950356
1.85147
-0.0919512
1.85205
-0.0889416
1.85268
-0.0860051
1.85334
-0.0831414
1.85403
-0.0803514
1.85475
-0.0776352
1.85548
-0.0749942
1.85623
-0.0724304
1.85699
-0.0699452
1.85776
-0.0675388
1.85853
-0.0652111
1.8593
-0.0629622
1.86007
-0.0607897
1.86082
-0.0586929
1.86157
-0.056671
1.86231
-0.0547213
1.86304
-0.0528423
1.86375
-0.0510323
1.86445
-0.0492895
1.86513
-0.0476118
1.86579
-0.0459979
1.86644
-0.0444457
1.86708
-0.0429533
1.86769
-0.0415191
1.86829
-0.0401411
1.86888
-0.0388177
1.86944
-0.037547
1.86999
-0.0363273
1.87052
-0.0351571
1.87104
-0.0340356
1.87154
-0.0329612
1.87202
-0.031931
1.87249
-0.0309458
1.87294
-0.0300032
1.87338
-0.029101
1.8738
-0.0282394
1.8742
-0.0274154
1.8746
-0.0266281
1.87498
-0.0258762
1.87534
-0.0251593
1.8757
-0.0244757
1.87604
-0.0238241
1.87636
-0.0232037
1.87668
-0.0226147
1.87698
-0.0220557
1.87728
-0.0215249
1.87756
-0.0210211
1.87783
-0.0205437
1.8781
-0.0200925
1.87835
-0.0196658
1.8786
-0.0192635
1.87884
-0.0188853
1.87907
-0.0185308
1.87929
-0.0181996
1.8795
-0.0178914
1.87971
-0.0176051
1.87992
-0.0173409
1.88012
-0.0170991
1.88032
-0.0168806
1.88052
-0.0166873
1.88071
-0.0165224
1.88091
-0.0163916
1.88112
-0.0163046
1.88131
-0.0162774
-0.0163361
2.02946
-0.0472482
-2.04587
2.01414
-0.0659891
1.99945
-0.0825863
1.98549
-0.0969258
1.97242
-0.108923
1.9603
-0.118802
1.94912
-0.126864
1.93885
-0.133352
1.92947
-0.138458
1.92093
-0.14235
1.91318
-0.145183
1.90619
-0.147094
1.89989
-0.148203
1.89424
-0.148614
1.8892
-0.148421
1.88471
-0.147703
1.88074
-0.146532
1.87725
-0.14497
1.87419
-0.143075
1.87153
-0.140895
1.86924
-0.138474
1.86728
-0.135853
1.86563
-0.133066
1.86426
-0.130146
1.86314
-0.127119
1.86225
-0.124013
1.86157
-0.120848
1.86107
-0.117645
1.86074
-0.114421
1.86056
-0.111191
1.86051
-0.107968
1.86058
-0.104765
1.86076
-0.101594
1.86103
-0.0984646
1.86139
-0.0953872
1.8618
-0.092369
1.86227
-0.0894139
1.86279
-0.0865236
1.86335
-0.0836987
1.86393
-0.0809405
1.86455
-0.0782512
1.86519
-0.0756329
1.86584
-0.0730873
1.86651
-0.0706161
1.86719
-0.068219
1.86788
-0.065897
1.86856
-0.0636496
1.86925
-0.0614751
1.86993
-0.0593742
1.8706
-0.0573451
1.87127
-0.0553869
1.87192
-0.0534986
1.87257
-0.0516782
1.8732
-0.0499237
1.87382
-0.0482336
1.87443
-0.0466063
1.87503
-0.0450403
1.87561
-0.0435336
1.87617
-0.0420847
1.87672
-0.0406921
1.87726
-0.0393541
1.87778
-0.0380691
1.87829
-0.0368348
1.87878
-0.0356503
1.87926
-0.0345146
1.87973
-0.0334258
1.88018
-0.0323823
1.88062
-0.0313825
1.88104
-0.0304261
1.88145
-0.029511
1.88185
-0.028636
1.88223
-0.0278
1.8826
-0.0270011