/*--------------------------------*- C++ -*----------------------------------*\
  =========                 |
  \\      /  F ield         | OpenFOAM: The Open Source CFD Toolbox
   \\    /   O peration     | Website:  https://openfoam.org
    \\  /    A nd           | Version:  8
     \\/     M anipulation  |
\*---------------------------------------------------------------------------*/
FoamFile
{
    version     2.0;
    format      ascii;
    class       volScalarField;
    location    "1.499985";
    object      rho;
}
// * * * * * * * * * * * * * * * * * * * * * * * * * * * * * * * * * * * * * //

dimensions      [1 -3 0 0 0 0 0];

internalField   nonuniform List<scalar> 
6800
(
0.59023
0.590335
0.590394
0.590475
0.590616
0.590813
0.590959
0.591071
0.59115
0.591199
0.590142
0.590289
0.590335
0.590502
0.59074
0.590885
0.590994
0.591087
0.591164
0.591239
0.589709
0.590122
0.590277
0.590557
0.590733
0.590868
0.590985
0.59108
0.591166
0.591231
0.589151
0.589934
0.590224
0.590461
0.590667
0.590823
0.590941
0.591037
0.591124
0.591202
0.588587
0.589729
0.590004
0.590341
0.590572
0.590731
0.590861
0.590975
0.591078
0.591169
0.587975
0.589444
0.589795
0.590183
0.590433
0.590623
0.590776
0.590909
0.591025
0.591127
0.587423
0.589188
0.589534
0.590008
0.590296
0.590514
0.590684
0.590841
0.590976
0.591098
0.586912
0.588905
0.589314
0.589854
0.590169
0.590412
0.590614
0.590793
0.590943
0.591076
0.586528
0.588698
0.589117
0.589728
0.590059
0.590338
0.590562
0.590758
0.590922
0.591066
0.586242
0.588518
0.588996
0.589643
0.589994
0.590298
0.59054
0.59075
0.590922
0.591075
0.590521
0.590412
0.590351
0.59034
0.59035
0.590373
0.590412
0.590462
0.590525
0.590596
0.590488
0.590392
0.590337
0.590325
0.590334
0.590358
0.590397
0.59045
0.590518
0.590597
0.590425
0.590349
0.590308
0.590301
0.590311
0.590338
0.590383
0.590446
0.590527
0.59062
0.590345
0.590297
0.590275
0.590278
0.590297
0.590332
0.59039
0.590474
0.590572
0.590678
0.590268
0.590255
0.590256
0.590274
0.590309
0.590366
0.590445
0.590532
0.590636
0.590739
0.590217
0.59023
0.590262
0.590308
0.590373
0.590454
0.590527
0.590601
0.590694
0.59078
0.590168
0.590229
0.590305
0.590396
0.590484
0.590541
0.590594
0.590656
0.590738
0.590824
0.590146
0.590257
0.590381
0.590505
0.590551
0.590587
0.590637
0.590703
0.590792
0.590934
0.590113
0.590274
0.590479
0.590532
0.590563
0.590605
0.590682
0.5908
0.590939
0.591111
0.590122
0.590314
0.590463
0.590508
0.59056
0.590658
0.590821
0.590973
0.591113
0.591219
0.590685
0.590784
0.590867
0.590939
0.591005
0.591066
0.591123
0.591177
0.591226
0.591273
0.591316
0.591357
0.591395
0.591431
0.591464
0.591495
0.591523
0.591549
0.591572
0.591593
0.591612
0.591629
0.591643
0.591655
0.591665
0.591673
0.59168
0.591684
0.591685
0.591687
0.591688
0.591688
0.591687
0.591686
0.591685
0.591683
0.59168
0.591677
0.591672
0.591669
0.591667
0.591664
0.591661
0.591657
0.591653
0.591648
0.591648
0.59165
0.591655
0.591661
0.591669
0.591679
0.591689
0.591699
0.59171
0.591721
0.591731
0.591741
0.59175
0.591758
0.591766
0.591772
0.591778
0.591783
0.591787
0.59179
0.591792
0.591794
0.591795
0.591796
0.591796
0.591797
0.591796
0.591796
0.591796
0.591796
0.591795
0.591795
0.591794
0.591794
0.591794
0.591794
0.591794
0.591794
0.591794
0.591794
0.591794
0.591795
0.591794
0.591794
0.591793
0.591792
0.591792
0.591792
0.591791
0.59179
0.591789
0.591788
0.591787
0.591788
0.590683
0.590782
0.590863
0.590934
0.590999
0.591059
0.591115
0.591168
0.591218
0.591264
0.591307
0.591349
0.591387
0.591424
0.591458
0.591489
0.591518
0.591544
0.591568
0.591589
0.591608
0.591624
0.591638
0.591649
0.591659
0.591667
0.591673
0.591677
0.591679
0.591682
0.591683
0.591683
0.591682
0.591682
0.59168
0.591679
0.591676
0.591674
0.59167
0.591665
0.591664
0.591662
0.591658
0.591655
0.59165
0.591648
0.591648
0.591652
0.591657
0.591664
0.591672
0.591681
0.591691
0.591701
0.591712
0.591722
0.591732
0.591741
0.59175
0.591757
0.591764
0.59177
0.591776
0.59178
0.591784
0.591786
0.591789
0.59179
0.591791
0.591792
0.591792
0.591792
0.591792
0.591792
0.591792
0.591791
0.591791
0.591791
0.59179
0.59179
0.59179
0.59179
0.59179
0.59179
0.59179
0.59179
0.59179
0.591791
0.59179
0.591789
0.591789
0.591788
0.591788
0.591789
0.591788
0.591787
0.591786
0.591785
0.591785
0.591787
0.590699
0.590792
0.590869
0.590936
0.590997
0.591054
0.591108
0.591159
0.591208
0.591253
0.591296
0.591338
0.591377
0.591413
0.591448
0.591479
0.591508
0.591535
0.591558
0.59158
0.591598
0.591614
0.591628
0.591639
0.591649
0.591657
0.591663
0.591668
0.591672
0.591674
0.591678
0.591678
0.591679
0.591679
0.591678
0.591677
0.591674
0.591672
0.591669
0.591666
0.591662
0.591663
0.59166
0.591657
0.591652
0.591651
0.591653
0.591656
0.591662
0.591669
0.591677
0.591686
0.591696
0.591705
0.591715
0.591724
0.591733
0.591741
0.591749
0.591756
0.591762
0.591767
0.591772
0.591775
0.591778
0.591781
0.591783
0.591784
0.591785
0.591785
0.591786
0.591786
0.591785
0.591785
0.591785
0.591785
0.591784
0.591784
0.591784
0.591784
0.591783
0.591783
0.591783
0.591783
0.591783
0.591783
0.591783
0.591783
0.591783
0.591783
0.591783
0.591783
0.591783
0.591785
0.591784
0.591783
0.591782
0.591781
0.591783
0.591784
0.59073
0.590808
0.59088
0.590942
0.591
0.591054
0.591106
0.591156
0.591202
0.591247
0.59129
0.591331
0.591369
0.591406
0.59144
0.591471
0.5915
0.591527
0.591551
0.591572
0.59159
0.591606
0.59162
0.591632
0.591642
0.59165
0.591657
0.591663
0.591668
0.591671
0.591675
0.591679
0.591682
0.591682
0.591682
0.591681
0.591678
0.591673
0.591671
0.591672
0.591671
0.591671
0.591669
0.591665
0.591661
0.591661
0.591663
0.591667
0.591672
0.591679
0.591686
0.591694
0.591702
0.591711
0.591719
0.591727
0.591734
0.591742
0.591748
0.591754
0.591759
0.591764
0.591767
0.591771
0.591773
0.591775
0.591776
0.591778
0.591778
0.591779
0.591779
0.591779
0.591779
0.591779
0.591778
0.591778
0.591778
0.591777
0.591777
0.591777
0.591777
0.591777
0.591777
0.591777
0.591777
0.591777
0.591777
0.591778
0.591778
0.591778
0.591779
0.591779
0.59178
0.591781
0.591781
0.591779
0.591779
0.591779
0.591781
0.591783
0.590751
0.590815
0.590889
0.590953
0.59101
0.591065
0.591118
0.591168
0.591214
0.591259
0.591302
0.591343
0.591381
0.591417
0.59145
0.591481
0.591509
0.591535
0.591558
0.591578
0.591596
0.591612
0.591626
0.591638
0.591648
0.591657
0.591664
0.591671
0.591676
0.591682
0.591687
0.591691
0.591696
0.591697
0.591698
0.591697
0.591693
0.591689
0.591688
0.591689
0.591689
0.591692
0.59169
0.591686
0.591683
0.591683
0.591685
0.591688
0.591693
0.591699
0.591705
0.591711
0.591718
0.591724
0.591731
0.591737
0.591743
0.591748
0.591753
0.591758
0.591762
0.591765
0.591768
0.59177
0.591772
0.591774
0.591775
0.591775
0.591776
0.591776
0.591776
0.591776
0.591776
0.591776
0.591775
0.591775
0.591775
0.591774
0.591774
0.591774
0.591774
0.591774
0.591774
0.591774
0.591774
0.591774
0.591775
0.591775
0.591776
0.591777
0.591777
0.591778
0.59178
0.591779
0.591778
0.591778
0.591778
0.591779
0.591782
0.591784
0.590763
0.590829
0.590916
0.59099
0.591053
0.591111
0.591167
0.59122
0.59127
0.591316
0.591358
0.591398
0.591435
0.591469
0.591501
0.59153
0.591557
0.591581
0.591602
0.591621
0.591638
0.591653
0.591667
0.591678
0.591688
0.591697
0.591704
0.591711
0.591716
0.591721
0.591728
0.591731
0.591735
0.591734
0.591737
0.591734
0.591732
0.591731
0.59173
0.59173
0.59173
0.591733
0.591731
0.591729
0.591725
0.591723
0.591724
0.591725
0.591728
0.591732
0.591736
0.59174
0.591744
0.591749
0.591753
0.591757
0.591761
0.591765
0.591768
0.591771
0.591774
0.591776
0.591778
0.591779
0.591781
0.591781
0.591782
0.591782
0.591783
0.591782
0.591782
0.591782
0.591782
0.591781
0.591781
0.59178
0.59178
0.59178
0.591779
0.591779
0.591779
0.591779
0.591779
0.591779
0.591779
0.591779
0.59178
0.59178
0.591781
0.591782
0.591783
0.591783
0.591784
0.591783
0.591783
0.591783
0.591784
0.591785
0.591787
0.591789
0.590798
0.590876
0.590982
0.591073
0.591148
0.591218
0.591283
0.591343
0.591397
0.591447
0.591492
0.591533
0.591569
0.591602
0.591631
0.591657
0.591681
0.591702
0.59172
0.591735
0.591748
0.59176
0.591771
0.59178
0.591788
0.591795
0.5918
0.591805
0.591809
0.591811
0.591814
0.591816
0.591817
0.591818
0.591817
0.591816
0.591813
0.591812
0.591809
0.591808
0.591806
0.591806
0.591803
0.5918
0.591796
0.591794
0.591792
0.591791
0.591791
0.591792
0.591793
0.591793
0.591795
0.591796
0.591797
0.591799
0.5918
0.591802
0.591803
0.591804
0.591804
0.591805
0.591805
0.591806
0.591806
0.591806
0.591805
0.591805
0.591804
0.591804
0.591803
0.591802
0.591802
0.591801
0.5918
0.5918
0.591799
0.591798
0.591798
0.591797
0.591797
0.591796
0.591796
0.591796
0.591796
0.591796
0.591796
0.591796
0.591796
0.591797
0.591797
0.591797
0.591797
0.591796
0.591797
0.591797
0.591798
0.591799
0.591801
0.591802
0.590909
0.590985
0.591101
0.591204
0.591289
0.591364
0.591433
0.591495
0.591552
0.591604
0.59165
0.591692
0.59173
0.591763
0.591793
0.59182
0.591844
0.591864
0.591882
0.591898
0.591911
0.591923
0.591933
0.591941
0.591948
0.591954
0.591959
0.591962
0.591964
0.591965
0.591965
0.591964
0.591963
0.59196
0.591956
0.591953
0.591949
0.591945
0.591943
0.59194
0.591935
0.59193
0.591924
0.591918
0.591912
0.591906
0.591901
0.591896
0.591892
0.591888
0.591885
0.591881
0.591878
0.591876
0.591874
0.591872
0.59187
0.591868
0.591867
0.591865
0.591864
0.591862
0.591861
0.591859
0.591858
0.591856
0.591855
0.591853
0.591852
0.59185
0.591848
0.591847
0.591845
0.591844
0.591842
0.591841
0.591839
0.591838
0.591837
0.591835
0.591834
0.591833
0.591832
0.591831
0.59183
0.591829
0.591828
0.591828
0.591827
0.591827
0.591827
0.591826
0.591825
0.591824
0.591824
0.591824
0.591824
0.591825
0.591826
0.591826
0.591089
0.591153
0.591256
0.591352
0.591434
0.591507
0.591572
0.591632
0.591686
0.591734
0.591778
0.591817
0.591853
0.591884
0.591913
0.591938
0.591961
0.591981
0.592
0.592016
0.592031
0.592044
0.592056
0.592067
0.592076
0.592084
0.592091
0.592096
0.592101
0.592104
0.592106
0.592108
0.592108
0.592108
0.592107
0.592106
0.592103
0.592101
0.5921
0.592097
0.592094
0.592089
0.592084
0.592079
0.592073
0.592066
0.59206
0.592054
0.592047
0.59204
0.592034
0.592027
0.59202
0.592014
0.592007
0.592
0.591994
0.591988
0.591982
0.591977
0.591971
0.591966
0.591962
0.591957
0.591952
0.591948
0.591944
0.59194
0.591935
0.591931
0.591928
0.591924
0.59192
0.591917
0.591914
0.591911
0.591908
0.591905
0.591902
0.591899
0.591897
0.591894
0.591892
0.59189
0.591887
0.591885
0.591883
0.591882
0.59188
0.591878
0.591876
0.591875
0.591873
0.591872
0.59187
0.591869
0.591869
0.591868
0.591868
0.591867
0.591216
0.591271
0.591352
0.591435
0.591511
0.591579
0.591641
0.591698
0.591749
0.591797
0.591839
0.591878
0.591913
0.591944
0.591972
0.591998
0.592021
0.592041
0.59206
0.592077
0.592091
0.592105
0.592117
0.592128
0.592137
0.592146
0.592153
0.592159
0.592164
0.592168
0.592171
0.592175
0.592177
0.592179
0.59218
0.59218
0.592181
0.592181
0.59218
0.59218
0.592178
0.592177
0.592175
0.592172
0.59217
0.592167
0.592163
0.59216
0.592156
0.592152
0.592148
0.592144
0.59214
0.592136
0.592131
0.592126
0.592121
0.592116
0.592112
0.592107
0.592102
0.592097
0.592092
0.592087
0.592083
0.592078
0.592073
0.592068
0.592063
0.592057
0.592052
0.592047
0.592042
0.592036
0.592031
0.592026
0.592021
0.592015
0.59201
0.592005
0.592
0.591995
0.591991
0.591986
0.591982
0.591978
0.591974
0.59197
0.591966
0.591962
0.591958
0.591955
0.591951
0.591948
0.591945
0.591942
0.59194
0.591937
0.591935
0.591931
0.591316
0.591379
0.59145
0.591523
0.591591
0.591654
0.591712
0.591765
0.591813
0.591857
0.591896
0.591932
0.591964
0.591993
0.592019
0.592043
0.592064
0.592084
0.592101
0.592117
0.592131
0.592144
0.592156
0.592166
0.592175
0.592183
0.59219
0.592196
0.592201
0.592205
0.592208
0.592211
0.592213
0.592215
0.592216
0.592216
0.592217
0.592217
0.592216
0.592216
0.592216
0.592214
0.592213
0.592211
0.592208
0.592205
0.592204
0.592202
0.5922
0.592198
0.592195
0.592193
0.592191
0.592188
0.592186
0.592184
0.592181
0.592179
0.592176
0.592173
0.592171
0.592168
0.592165
0.592162
0.592159
0.592157
0.592154
0.592151
0.592148
0.592146
0.592143
0.59214
0.592137
0.592134
0.592131
0.592127
0.592124
0.59212
0.592116
0.592112
0.592107
0.592105
0.592103
0.592099
0.592096
0.592092
0.592088
0.592083
0.592079
0.592074
0.59207
0.592065
0.592061
0.592056
0.592052
0.592047
0.592043
0.592037
0.592034
0.592026
0.591384
0.591452
0.591523
0.591592
0.591656
0.591715
0.591768
0.591818
0.591862
0.591903
0.59194
0.591973
0.592003
0.59203
0.592054
0.592076
0.592095
0.592113
0.592129
0.592143
0.592156
0.592168
0.592178
0.592187
0.592195
0.592202
0.592209
0.592214
0.592218
0.592221
0.592224
0.592227
0.592229
0.59223
0.59223
0.592231
0.592231
0.59223
0.59223
0.592229
0.592229
0.592228
0.592227
0.592226
0.592224
0.592222
0.59222
0.592219
0.592216
0.592215
0.592212
0.592209
0.592207
0.592205
0.592204
0.592202
0.5922
0.592199
0.592198
0.592196
0.592195
0.592193
0.592192
0.59219
0.592189
0.592187
0.592185
0.592183
0.592181
0.59218
0.592178
0.592176
0.592175
0.592173
0.592172
0.59217
0.592168
0.592166
0.592164
0.592162
0.592161
0.592159
0.592157
0.592156
0.592155
0.592153
0.592152
0.59215
0.592147
0.592145
0.592144
0.592143
0.592141
0.592139
0.592136
0.592133
0.592131
0.592127
0.592124
0.592119
0.591438
0.591501
0.591567
0.591631
0.591689
0.591744
0.591794
0.591841
0.591883
0.591922
0.591957
0.591989
0.592018
0.592044
0.592067
0.592088
0.592106
0.592123
0.592139
0.592153
0.592165
0.592176
0.592187
0.592196
0.592203
0.59221
0.592216
0.592221
0.592226
0.592229
0.592232
0.592234
0.592236
0.592237
0.592238
0.592239
0.592239
0.592238
0.592238
0.592237
0.592237
0.592236
0.592235
0.592233
0.592232
0.592231
0.592229
0.592228
0.592225
0.592223
0.592221
0.592219
0.592217
0.592215
0.592214
0.592212
0.592211
0.592209
0.592208
0.592207
0.592205
0.592204
0.592203
0.592202
0.5922
0.592199
0.592198
0.592196
0.592195
0.592194
0.592192
0.592191
0.59219
0.592189
0.592188
0.592187
0.592186
0.592185
0.592183
0.592182
0.59218
0.592179
0.592178
0.592177
0.592176
0.592175
0.592175
0.592174
0.592174
0.592173
0.592172
0.592172
0.592171
0.59217
0.592169
0.592168
0.592167
0.592165
0.592164
0.592162
0.591489
0.591546
0.59161
0.591669
0.591724
0.591775
0.591822
0.591866
0.591907
0.591943
0.591977
0.592007
0.592033
0.592058
0.59208
0.592099
0.592117
0.592133
0.592147
0.592161
0.592172
0.592183
0.592193
0.592201
0.592209
0.592215
0.592221
0.592226
0.59223
0.592234
0.592237
0.592239
0.59224
0.592242
0.592242
0.592243
0.592243
0.592243
0.592243
0.592242
0.592241
0.59224
0.592238
0.592237
0.592236
0.592235
0.592234
0.592233
0.592231
0.59223
0.592227
0.592225
0.592224
0.592222
0.59222
0.592219
0.592218
0.592216
0.592215
0.592214
0.592213
0.592211
0.592211
0.592209
0.592209
0.592207
0.592206
0.592206
0.592204
0.592203
0.592201
0.5922
0.592199
0.592198
0.592197
0.592196
0.592195
0.592194
0.592194
0.592193
0.592191
0.592189
0.592189
0.592187
0.592186
0.592185
0.592184
0.592184
0.592183
0.592183
0.592182
0.592182
0.592182
0.592181
0.59218
0.59218
0.592179
0.592178
0.592178
0.592177
0.591539
0.591591
0.59165
0.591706
0.591755
0.591802
0.591846
0.591887
0.591924
0.591958
0.59199
0.592018
0.592044
0.592067
0.592088
0.592107
0.592124
0.592139
0.592153
0.592166
0.592178
0.592188
0.592197
0.592205
0.592213
0.592219
0.592224
0.592229
0.592233
0.592236
0.592239
0.592241
0.592243
0.592244
0.592245
0.592245
0.592245
0.592245
0.592245
0.592244
0.592244
0.592243
0.592242
0.592242
0.59224
0.592239
0.592237
0.592235
0.592234
0.592232
0.592231
0.592229
0.592228
0.592226
0.592225
0.592224
0.592223
0.592222
0.59222
0.592219
0.592218
0.592217
0.592215
0.592214
0.592213
0.592212
0.59221
0.592209
0.592208
0.592207
0.592206
0.592205
0.592204
0.592203
0.592202
0.592202
0.592201
0.5922
0.592199
0.592198
0.592197
0.592196
0.592195
0.592193
0.592193
0.592192
0.592191
0.592191
0.59219
0.59219
0.592189
0.592189
0.592188
0.592188
0.592187
0.592187
0.592186
0.592186
0.592185
0.592184
0.591589
0.591634
0.591689
0.59174
0.591786
0.591828
0.591869
0.591907
0.591942
0.591974
0.592004
0.59203
0.592055
0.592077
0.592096
0.592114
0.592131
0.592145
0.592158
0.59217
0.592181
0.592191
0.5922
0.592208
0.592215
0.592221
0.592226
0.59223
0.592234
0.592238
0.59224
0.592242
0.592244
0.592245
0.592246
0.592246
0.592247
0.592247
0.592246
0.592246
0.592245
0.592244
0.592244
0.592243
0.592242
0.59224
0.592238
0.592237
0.592236
0.592234
0.592233
0.592232
0.59223
0.592229
0.592228
0.592227
0.592226
0.592225
0.592224
0.592223
0.592222
0.592221
0.592219
0.592218
0.592218
0.592216
0.592215
0.592214
0.592214
0.592212
0.592211
0.59221
0.592208
0.592207
0.592207
0.592206
0.592205
0.592204
0.592204
0.592203
0.592202
0.592201
0.592201
0.5922
0.592198
0.592197
0.592196
0.592195
0.592195
0.592194
0.592194
0.592193
0.592193
0.592192
0.592192
0.592191
0.592191
0.59219
0.59219
0.592189
0.591639
0.591679
0.591728
0.591774
0.591816
0.591855
0.591892
0.591926
0.591958
0.591988
0.592016
0.592041
0.592063
0.592084
0.592103
0.59212
0.592135
0.592149
0.592162
0.592173
0.592184
0.592193
0.592202
0.592209
0.592216
0.592222
0.592227
0.592231
0.592235
0.592238
0.59224
0.592242
0.592244
0.592245
0.592246
0.592246
0.592246
0.592246
0.592246
0.592245
0.592245
0.592244
0.592243
0.592243
0.592242
0.592241
0.59224
0.592239
0.592237
0.592235
0.592234
0.592232
0.592231
0.59223
0.592229
0.592228
0.592227
0.592226
0.592225
0.592224
0.592223
0.592222
0.592221
0.59222
0.592219
0.592218
0.592216
0.592215
0.592214
0.592213
0.592212
0.592212
0.592211
0.59221
0.592209
0.592208
0.592207
0.592207
0.592206
0.592205
0.592204
0.592204
0.592203
0.592202
0.592202
0.592201
0.5922
0.5922
0.592199
0.592199
0.592198
0.592197
0.592197
0.592196
0.592196
0.592195
0.592195
0.592194
0.592193
0.592193
0.59169
0.591724
0.591768
0.591809
0.591846
0.591881
0.591915
0.591947
0.591976
0.592004
0.592029
0.592052
0.592073
0.592093
0.59211
0.592126
0.592141
0.592154
0.592166
0.592176
0.592186
0.592195
0.592203
0.59221
0.592216
0.592222
0.592226
0.592231
0.592234
0.592237
0.59224
0.592241
0.592243
0.592244
0.592245
0.592245
0.592246
0.592245
0.592246
0.592245
0.592244
0.592244
0.592243
0.592242
0.592242
0.592241
0.592239
0.592238
0.592237
0.592235
0.592234
0.592233
0.592232
0.592231
0.59223
0.592228
0.592228
0.592227
0.592226
0.592225
0.592224
0.592223
0.592223
0.592222
0.592221
0.59222
0.592219
0.592218
0.592218
0.592217
0.592216
0.592215
0.592214
0.592214
0.592213
0.592212
0.592211
0.592211
0.59221
0.592209
0.592209
0.592207
0.592207
0.592206
0.592205
0.592204
0.592204
0.592203
0.592203
0.592202
0.592201
0.592201
0.5922
0.5922
0.592199
0.592199
0.592198
0.592198
0.592197
0.592196
0.591738
0.591768
0.591807
0.591844
0.591877
0.591908
0.591939
0.591967
0.591994
0.592019
0.592042
0.592063
0.592083
0.5921
0.592117
0.592132
0.592145
0.592157
0.592168
0.592179
0.592188
0.592196
0.592204
0.59221
0.592216
0.592222
0.592226
0.59223
0.592233
0.592236
0.592239
0.59224
0.592242
0.592243
0.592243
0.592244
0.592244
0.592245
0.592244
0.592244
0.592244
0.592243
0.592242
0.592241
0.59224
0.59224
0.592239
0.592238
0.592237
0.592235
0.592234
0.592232
0.592231
0.59223
0.592229
0.592229
0.592228
0.592227
0.592226
0.592225
0.592224
0.592224
0.592223
0.592222
0.592221
0.59222
0.59222
0.592219
0.592218
0.592217
0.592216
0.592216
0.592215
0.592214
0.592214
0.592213
0.592212
0.592212
0.592211
0.59221
0.59221
0.592209
0.592209
0.592208
0.592208
0.592207
0.592206
0.592206
0.592205
0.592205
0.592204
0.592204
0.592203
0.592203
0.592202
0.592202
0.592201
0.5922
0.5922
0.592199
0.591786
0.591811
0.591845
0.591878
0.591907
0.591935
0.591962
0.591988
0.592012
0.592035
0.592056
0.592075
0.592093
0.592109
0.592124
0.592137
0.59215
0.592161
0.592171
0.592181
0.592189
0.592197
0.592204
0.59221
0.592216
0.592221
0.592225
0.592229
0.592232
0.592234
0.592237
0.592238
0.59224
0.592241
0.592241
0.592242
0.592242
0.592242
0.592242
0.592242
0.592242
0.592241
0.59224
0.59224
0.592239
0.592238
0.592237
0.592236
0.592235
0.592234
0.592233
0.592232
0.592231
0.59223
0.592229
0.592228
0.592227
0.592227
0.592226
0.592225
0.592224
0.592224
0.592223
0.592222
0.592222
0.592221
0.59222
0.592219
0.592219
0.592218
0.592217
0.592217
0.592216
0.592215
0.592215
0.592214
0.592213
0.592213
0.592212
0.592212
0.592211
0.592211
0.59221
0.59221
0.592209
0.592209
0.592208
0.592208
0.592207
0.592207
0.592206
0.592206
0.592205
0.592205
0.592204
0.592204
0.592203
0.592203
0.592202
0.592202
0.591832
0.591853
0.591883
0.591911
0.591937
0.591962
0.591986
0.592009
0.59203
0.59205
0.592069
0.592086
0.592102
0.592117
0.592131
0.592143
0.592154
0.592165
0.592174
0.592183
0.592191
0.592198
0.592204
0.59221
0.592215
0.59222
0.592224
0.592227
0.59223
0.592233
0.592235
0.592236
0.592237
0.592238
0.592239
0.59224
0.59224
0.59224
0.59224
0.59224
0.592239
0.592239
0.592238
0.592237
0.592237
0.592236
0.592235
0.592235
0.592234
0.592233
0.592232
0.59223
0.592229
0.592229
0.592228
0.592227
0.592226
0.592226
0.592225
0.592225
0.592224
0.592224
0.592223
0.592222
0.592222
0.592221
0.592221
0.59222
0.592219
0.592219
0.592218
0.592217
0.592217
0.592216
0.592215
0.592215
0.592214
0.592214
0.592213
0.592213
0.592212
0.592212
0.592211
0.592211
0.59221
0.59221
0.592209
0.592209
0.592208
0.592208
0.592207
0.592207
0.592206
0.592206
0.592205
0.592205
0.592205
0.592204
0.592204
0.592203
0.591876
0.591894
0.591919
0.591944
0.591967
0.591988
0.592009
0.592029
0.592048
0.592066
0.592083
0.592098
0.592113
0.592126
0.592138
0.592149
0.592159
0.592168
0.592177
0.592185
0.592192
0.592198
0.592204
0.592209
0.592214
0.592218
0.592222
0.592225
0.592228
0.59223
0.592232
0.592233
0.592235
0.592235
0.592236
0.592236
0.592237
0.592237
0.592237
0.592237
0.592236
0.592236
0.592235
0.592235
0.592234
0.592233
0.592233
0.592232
0.592231
0.592231
0.592229
0.592228
0.592228
0.592227
0.592226
0.592226
0.592225
0.592225
0.592224
0.592224
0.592223
0.592223
0.592222
0.592222
0.592221
0.592221
0.59222
0.592219
0.592219
0.592218
0.592218
0.592217
0.592217
0.592216
0.592216
0.592215
0.592214
0.592214
0.592213
0.592213
0.592213
0.592212
0.592212
0.592211
0.592211
0.59221
0.59221
0.59221
0.592209
0.592209
0.592208
0.592208
0.592207
0.592207
0.592207
0.592206
0.592206
0.592205
0.592205
0.592205
0.591919
0.591934
0.591955
0.591976
0.591996
0.592014
0.592032
0.59205
0.592066
0.592082
0.592097
0.59211
0.592123
0.592134
0.592145
0.592155
0.592164
0.592172
0.59218
0.592187
0.592193
0.592199
0.592204
0.592209
0.592213
0.592217
0.59222
0.592223
0.592225
0.592227
0.592229
0.59223
0.592232
0.592232
0.592233
0.592233
0.592234
0.592234
0.592234
0.592233
0.592233
0.592233
0.592233
0.592232
0.592231
0.592231
0.59223
0.59223
0.592229
0.592228
0.592228
0.592227
0.592226
0.592225
0.592224
0.592224
0.592223
0.592223
0.592222
0.592222
0.592222
0.592221
0.592221
0.59222
0.59222
0.59222
0.592219
0.592219
0.592218
0.592218
0.592217
0.592217
0.592216
0.592216
0.592215
0.592215
0.592214
0.592214
0.592214
0.592213
0.592213
0.592212
0.592212
0.592212
0.592211
0.592211
0.592211
0.59221
0.59221
0.59221
0.592209
0.592209
0.592208
0.592208
0.592208
0.592207
0.592207
0.592207
0.592206
0.592206
0.59196
0.591972
0.59199
0.592008
0.592024
0.59204
0.592055
0.59207
0.592085
0.592098
0.59211
0.592122
0.592133
0.592143
0.592152
0.592161
0.592169
0.592176
0.592182
0.592188
0.592194
0.592199
0.592204
0.592208
0.592212
0.592215
0.592218
0.59222
0.592222
0.592224
0.592226
0.592227
0.592228
0.592229
0.592229
0.59223
0.59223
0.59223
0.59223
0.59223
0.59223
0.592229
0.592229
0.592228
0.592228
0.592228
0.592227
0.592227
0.592226
0.592225
0.592224
0.592224
0.592223
0.592223
0.592222
0.592222
0.592221
0.592221
0.592221
0.59222
0.59222
0.59222
0.59222
0.592219
0.592219
0.592219
0.592218
0.592218
0.592218
0.592217
0.592217
0.592216
0.592216
0.592216
0.592215
0.592215
0.592214
0.592214
0.592214
0.592213
0.592213
0.592212
0.592212
0.592212
0.592212
0.592211
0.592211
0.592211
0.59221
0.59221
0.59221
0.592209
0.592209
0.592209
0.592208
0.592208
0.592208
0.592208
0.592207
0.592207
0.592
0.59201
0.592025
0.592039
0.592053
0.592066
0.592078
0.592091
0.592103
0.592114
0.592124
0.592134
0.592143
0.592152
0.59216
0.592167
0.592174
0.59218
0.592185
0.592191
0.592195
0.5922
0.592204
0.592207
0.59221
0.592213
0.592216
0.592218
0.59222
0.592221
0.592223
0.592224
0.592224
0.592225
0.592226
0.592226
0.592226
0.592226
0.592226
0.592226
0.592226
0.592226
0.592226
0.592225
0.592225
0.592225
0.592224
0.592224
0.592223
0.592223
0.592222
0.592222
0.592221
0.592221
0.59222
0.59222
0.592219
0.592219
0.592219
0.592218
0.592218
0.592218
0.592218
0.592218
0.592218
0.592217
0.592217
0.592217
0.592217
0.592216
0.592216
0.592216
0.592216
0.592215
0.592215
0.592215
0.592215
0.592214
0.592214
0.592214
0.592213
0.592213
0.592213
0.592213
0.592212
0.592212
0.592212
0.592212
0.592211
0.592211
0.592211
0.59221
0.59221
0.59221
0.592209
0.592209
0.592209
0.592209
0.592208
0.592208
0.592039
0.592047
0.592058
0.59207
0.59208
0.592091
0.592101
0.592111
0.592121
0.59213
0.592138
0.592146
0.592154
0.592161
0.592167
0.592173
0.592178
0.592183
0.592188
0.592192
0.592196
0.5922
0.592203
0.592206
0.592209
0.592211
0.592213
0.592215
0.592217
0.592218
0.592219
0.59222
0.592221
0.592222
0.592222
0.592222
0.592223
0.592223
0.592223
0.592223
0.592223
0.592223
0.592222
0.592222
0.592222
0.592222
0.592221
0.592221
0.59222
0.59222
0.59222
0.592219
0.592219
0.592219
0.592218
0.592218
0.592217
0.592217
0.592217
0.592217
0.592217
0.592217
0.592217
0.592216
0.592216
0.592216
0.592216
0.592216
0.592216
0.592216
0.592215
0.592215
0.592215
0.592215
0.592215
0.592214
0.592214
0.592214
0.592214
0.592213
0.592213
0.592213
0.592213
0.592212
0.592212
0.592212
0.592212
0.592211
0.592211
0.592211
0.592211
0.59221
0.59221
0.59221
0.59221
0.592209
0.592209
0.592209
0.592209
0.592209
0.592078
0.592083
0.592092
0.592101
0.592109
0.592116
0.592124
0.592131
0.592139
0.592146
0.592152
0.592158
0.592164
0.592169
0.592174
0.592179
0.592183
0.592187
0.592191
0.592195
0.592198
0.592201
0.592203
0.592206
0.592208
0.59221
0.592211
0.592213
0.592214
0.592215
0.592216
0.592217
0.592218
0.592218
0.592219
0.592219
0.59222
0.59222
0.59222
0.59222
0.59222
0.59222
0.59222
0.59222
0.592219
0.592219
0.592219
0.592219
0.592218
0.592218
0.592218
0.592218
0.592217
0.592217
0.592217
0.592216
0.592216
0.592216
0.592215
0.592215
0.592215
0.592214
0.592214
0.592214
0.592214
0.592214
0.592214
0.592214
0.592214
0.592214
0.592214
0.592214
0.592213
0.592213
0.592213
0.592213
0.592213
0.592212
0.592212
0.592212
0.592212
0.592212
0.592211
0.592211
0.592211
0.592211
0.592211
0.592211
0.59221
0.59221
0.59221
0.59221
0.59221
0.592209
0.592209
0.592209
0.592209
0.592209
0.592208
0.592208
0.592114
0.592118
0.592125
0.59213
0.592136
0.592141
0.592146
0.592151
0.592156
0.592161
0.592166
0.59217
0.592175
0.592178
0.592182
0.592186
0.592189
0.592192
0.592195
0.592197
0.5922
0.592202
0.592204
0.592205
0.592207
0.592208
0.59221
0.592211
0.592212
0.592213
0.592214
0.592214
0.592215
0.592215
0.592216
0.592216
0.592217
0.592217
0.592217
0.592217
0.592217
0.592217
0.592217
0.592217
0.592216
0.592216
0.592216
0.592216
0.592215
0.592215
0.592215
0.592215
0.592214
0.592214
0.592214
0.592213
0.592213
0.592213
0.592213
0.592212
0.592212
0.592212
0.592212
0.592211
0.592211
0.592211
0.592211
0.592211
0.592211
0.592211
0.592211
0.592211
0.592211
0.592211
0.592211
0.592211
0.59221
0.59221
0.59221
0.59221
0.59221
0.59221
0.592209
0.592209
0.592209
0.592209
0.592209
0.592209
0.592209
0.592208
0.592208
0.592208
0.592208
0.592208
0.592208
0.592208
0.592207
0.592207
0.592207
0.592207
0.592151
0.592153
0.592157
0.59216
0.592163
0.592166
0.592169
0.592172
0.592175
0.592178
0.592181
0.592184
0.592186
0.592189
0.592191
0.592193
0.592195
0.592197
0.592199
0.592201
0.592202
0.592204
0.592205
0.592206
0.592207
0.592207
0.592208
0.592209
0.59221
0.59221
0.59221
0.592211
0.592211
0.592211
0.592211
0.592212
0.592212
0.592212
0.592212
0.592212
0.592212
0.592212
0.592212
0.592212
0.592212
0.592212
0.592212
0.592211
0.592211
0.592211
0.592211
0.592211
0.59221
0.59221
0.59221
0.59221
0.59221
0.592209
0.592209
0.592209
0.592209
0.592209
0.592209
0.592209
0.592209
0.592209
0.592209
0.592209
0.592209
0.592209
0.592209
0.592209
0.592209
0.592209
0.592209
0.592208
0.592208
0.592208
0.592208
0.592208
0.592208
0.592208
0.592208
0.592208
0.592207
0.592207
0.592207
0.592207
0.592207
0.592207
0.592207
0.592207
0.592206
0.592206
0.592206
0.592206
0.592206
0.592206
0.592206
0.592206
0.592188
0.592189
0.592191
0.592192
0.592193
0.592194
0.592195
0.592196
0.592197
0.592197
0.592198
0.592199
0.5922
0.592201
0.592201
0.592202
0.592203
0.592203
0.592204
0.592204
0.592205
0.592205
0.592205
0.592206
0.592206
0.592206
0.592206
0.592206
0.592207
0.592207
0.592207
0.592207
0.592207
0.592207
0.592207
0.592207
0.592207
0.592207
0.592208
0.592208
0.592208
0.592208
0.592208
0.592208
0.592208
0.592208
0.592207
0.592207
0.592207
0.592207
0.592207
0.592207
0.592207
0.592206
0.592206
0.592206
0.592206
0.592206
0.592206
0.592206
0.592206
0.592206
0.592206
0.592206
0.592206
0.592206
0.592206
0.592206
0.592206
0.592206
0.592206
0.592206
0.592206
0.592206
0.592206
0.592206
0.592206
0.592206
0.592206
0.592206
0.592206
0.592206
0.592206
0.592206
0.592206
0.592206
0.592206
0.592206
0.592206
0.592206
0.592206
0.592206
0.592205
0.592205
0.592205
0.592205
0.592205
0.592205
0.592205
0.592205
0.591199
0.591189
0.591195
0.591213
0.591233
0.591261
0.591288
0.591312
0.591321
0.591268
0.5913
0.591287
0.591286
0.591296
0.591312
0.591329
0.591346
0.591363
0.591372
0.59134
0.591395
0.591379
0.591373
0.591375
0.591384
0.591395
0.591402
0.591412
0.591422
0.591405
0.591478
0.591461
0.591452
0.59145
0.591453
0.59146
0.591465
0.591469
0.591474
0.591464
0.591554
0.591536
0.591525
0.59152
0.591519
0.591522
0.591525
0.591527
0.591527
0.591522
0.591621
0.591604
0.591592
0.591586
0.591582
0.591582
0.591583
0.591584
0.591583
0.591577
0.591682
0.591666
0.591654
0.591646
0.591641
0.591639
0.591638
0.591638
0.591637
0.591631
0.591737
0.591722
0.591711
0.591703
0.591697
0.591694
0.591692
0.591691
0.59169
0.591685
0.591789
0.591774
0.591763
0.591755
0.591749
0.591745
0.591742
0.591741
0.59174
0.591736
0.591835
0.591822
0.591812
0.591804
0.591799