/*--------------------------------*- C++ -*----------------------------------*\
  =========                 |
  \\      /  F ield         | OpenFOAM: The Open Source CFD Toolbox
   \\    /   O peration     | Website:  https://openfoam.org
    \\  /    A nd           | Version:  8
     \\/     M anipulation  |
\*---------------------------------------------------------------------------*/
FoamFile
{
    version     2.0;
    format      ascii;
    class       volVectorField;
    location    "1.499985";
    object      U;
}
// * * * * * * * * * * * * * * * * * * * * * * * * * * * * * * * * * * * * * //

dimensions      [0 1 -1 0 0 0 0];

internalField   nonuniform List<vector> 
6800
(
(0.755616 4.15016 -1.0471e-14)
(20.9702 -3.2116 2.89086e-15)
(31.6965 -4.46648 2.83363e-15)
(38.6757 -4.41884 -2.86625e-15)
(43.4134 -4.03123 1.93285e-15)
(46.623 -3.54729 2.57048e-15)
(48.8069 -3.06677 -4.07362e-15)
(50.3008 -2.62744 3.69038e-15)
(51.3426 -2.21763 -2.64152e-15)
(52.0441 -1.88046 5.1893e-16)
(10.9561 1.43871 1.48911e-14)
(27.9258 -5.37009 -4.03792e-15)
(37.8231 -5.26575 -9.40536e-16)
(43.8168 -4.62909 2.00323e-15)
(47.5906 -3.91371 -1.91666e-15)
(49.9924 -3.21722 -4.61561e-17)
(51.5218 -2.61724 5.80173e-18)
(52.4848 -2.1313 -1.12807e-15)
(53.0904 -1.74571 1.97464e-16)
(53.4247 -1.52705 2.62159e-15)
(18.1437 -0.777894 2.61917e-15)
(34.2274 -7.46811 -7.25778e-16)
(43.175 -5.79458 1.95342e-15)
(48.1216 -4.63055 -4.49915e-15)
(50.9571 -3.63149 9.18085e-16)
(52.612 -2.77055 -2.87255e-15)
(53.5502 -2.08764 2.63189e-15)
(54.0464 -1.57448 -3.15677e-16)
(54.283 -1.19113 3.43701e-15)
(54.337 -0.962542 -5.42779e-15)
(25.805 -2.29879 4.29217e-15)
(40.4523 -9.0769 -9.91589e-16)
(48.0386 -5.88044 -1.87222e-16)
(51.8113 -4.37475 5.98477e-16)
(53.7311 -3.15687 -1.8902e-15)
(54.6892 -2.18348 1.83813e-15)
(55.0989 -1.4625 -3.11447e-15)
(55.2088 -0.941125 4.58052e-15)
(55.1657 -0.557852 -3.22741e-15)
(55.0213 -0.314958 4.00132e-15)
(33.4279 -2.68517 4.18711e-18)
(46.4233 -9.90595 1.94191e-15)
(52.4352 -5.38528 7.79543e-16)
(55.0003 -3.79115 3.56717e-15)
(56.0462 -2.43631 -1.93268e-15)
(56.3666 -1.42563 6.19753e-16)
(56.3273 -0.708501 7.83734e-16)
(56.1317 -0.198131 2.42947e-15)
(55.8776 0.173168 -3.36045e-15)
(55.5862 0.416401 1.45826e-15)
(40.6564 -1.90553 -1.96263e-15)
(51.9862 -9.84856 -9.60033e-16)
(56.3377 -4.25922 -4.9669e-17)
(57.751 -2.8377 -1.30637e-15)
(57.9813 -1.42444 -1.70543e-16)
(57.7442 -0.461191 9.9988e-16)
(57.3385 0.210382 -1.3781e-15)
(56.9016 0.684975 1.60172e-15)
(56.4814 1.02551 -1.80636e-15)
(56.0704 1.25365 -3.72175e-16)
(47.203 -0.0435174 2.78947e-16)
(56.9918 -8.88682 1.04048e-15)
(59.6991 -2.50066 7.69722e-16)
(60.0747 -1.49455 -1.13562e-15)
(59.5727 -0.0992669 -1.59527e-16)
(58.8742 0.733643 1.49639e-15)
(58.1744 1.32091 -6.26042e-16)
(57.5444 1.73153 9.76023e-16)
(56.9875 2.01559 -2.00404e-15)
(56.4719 2.21207 3.62184e-20)
(52.8594 2.75693 6.999e-16)
(61.3263 -7.06109 -1.78054e-16)
(62.4662 -0.168182 -8.33605e-16)
(61.949 0.2336 -1.42962e-15)
(60.826 1.53767 2.51678e-15)
(59.7673 2.16367 -1.76942e-15)
(58.8347 2.63196 3.57954e-16)
(58.0482 2.94584 -1.40117e-15)
(57.3769 3.14289 -6.18926e-16)
(56.768 3.29223 -7.97135e-16)
(57.4733 6.3157 8.42624e-17)
(64.8765 -4.44874 1.3202e-16)
(64.5814 2.63981 -6.99145e-16)
(63.3433 2.30665 5.46298e-16)
(61.7345 3.45813 4.52355e-16)
(60.4037 3.81618 -6.3279e-16)
(59.2915 4.12954 3.02131e-16)
(58.3803 4.31354 5.17108e-16)
(57.6185 4.39239 5.31301e-16)
(56.9279 4.48183 6.24067e-16)
(60.9607 10.4212 -2.32599e-16)
(67.5575 -1.15941 -7.26506e-17)
(65.9998 5.79447 -1.64786e-16)
(64.2315 4.6708 1.66803e-16)
(62.2658 5.61636 -5.16401e-16)
(60.7504 5.65361 -9.84999e-17)
(59.5064 5.78212 -4.55377e-17)
(58.5038 5.8023 4.53603e-16)
(57.6786 5.73833 2.14768e-16)
(56.9208 5.75681 -9.85565e-16)
(-3.34189 1.69269 1.72826e-15)
(-5.33095 1.19179 -4.89605e-16)
(-7.19954 0.880511 -2.28294e-16)
(-8.61948 0.647626 3.65701e-16)
(-9.52378 0.428407 -7.62807e-17)
(-9.9855 0.201563 5.1929e-16)
(-10.042 -0.0369328 1.75101e-16)
(-9.72502 -0.275696 -2.84853e-16)
(-9.07458 -0.492809 5.69973e-16)
(-8.14195 -0.647177 -1.95163e-16)
(-3.36017 4.30105 -8.83509e-16)
(-4.99669 3.28625 8.03555e-16)
(-6.55206 2.48029 1.63375e-16)
(-7.65998 1.83373 8.54406e-16)
(-8.26123 1.21383 -3.32023e-16)
(-8.40877 0.557123 -9.94346e-17)
(-8.11741 -0.1563 -1.01826e-15)
(-7.39255 -0.882871 7.14319e-16)
(-6.30392 -1.52566 2.30872e-16)
(-4.9348 -1.95078 1.03907e-15)
(-3.48702 6.55174 -2.09495e-15)
(-4.55933 5.08616 -1.01507e-16)
(-5.51595 3.85055 1.74089e-15)
(-6.00118 2.82099 -2.76917e-15)
(-5.95945 1.82577 7.09645e-18)
(-5.4039 0.758068 -3.45895e-16)
(-4.27666 -0.42997 2.91106e-15)
(-2.62901 -1.64464 -1.86352e-15)
(-0.809499 -2.65432 4.50137e-15)
(1.33885 -3.25532 -1.92864e-15)
(-3.72829 8.19681 -2.3286e-15)
(-4.10175 6.38599 2.22874e-15)
(-4.21845 4.80549 -3.74859e-15)
(-3.77783 3.43731 4.44899e-15)
(-2.6741 2.09096 1.06306e-15)
(-0.795005 0.58617 -5.44845e-16)
(1.96967 -1.09181 -1.99727e-15)
(4.56248 -2.50294 1.34097e-15)
(7.03769 -3.56871 9.78997e-16)
(9.71673 -4.06195 -3.82696e-15)
(-4.0304 9.11423 9.20836e-15)
(-3.64917 7.04449 5.89876e-17)
(-2.66075 5.16894 1.71393e-15)
(-0.798542 3.39867 -9.71176e-15)
(2.18315 1.58212 5.42527e-15)
(6.08592 -0.2947 9.95915e-16)
(9.76328 -1.90088 7.74169e-16)
(13.0776 -3.12961 1.22763e-15)
(16.0404 -4.04281 3.06465e-16)
(19.1744 -4.34602 5.48641e-15)
(-4.34596 9.34896 7.03668e-15)
(-3.10955 6.92895 2.3142e-15)
(-0.51171 4.68256 2.18098e-15)
(3.59583 2.48918 -8.76816e-15)
(8.94847 0.325059 7.42277e-15)
(13.9046 -1.39944 -4.75146e-15)
(18.2887 -2.72094 -7.25926e-15)
(22.1107 -3.63868 1.84214e-15)
(25.348 -4.22186 -4.8594e-15)
(28.566 -4.25153 1.73362e-15)
(-4.66676 8.97943 5.84931e-15)
(-2.26815 5.9751 4.58725e-15)
(2.89038 3.32064 -6.91564e-15)
(10.1222 0.687366 1.53299e-14)
(16.6471 -1.2228 2.7359e-15)
(22.2157 -2.53124 -7.51765e-15)
(26.8526 -3.36215 4.33179e-15)
(30.6409 -3.86125 -6.61788e-16)
(33.6612 -4.12064 2.68763e-15)
(36.4849 -3.9303 1.24567e-15)
(-5.11189 8.22658 -9.84165e-15)
(-0.598079 4.39202 -2.11699e-14)
(9.31055 0.827895 6.3176e-15)
(17.8524 -1.3266 5.2693e-16)
(24.7279 -2.57366 -3.24964e-15)
(30.1598 -3.29059 -2.69426e-15)
(34.3818 -3.67168 4.15253e-16)
(37.6633 -3.81508 -1.65519e-15)
(40.1982 -3.8088 -1.75826e-15)
(42.4643 -3.47469 5.0084e-15)
(-5.22073 6.89716 1.10928e-14)
(5.77694 1.3678 6.95229e-15)
(17.1221 -1.55882 2.90319e-15)
(25.6653 -2.88209 -1.13075e-15)
(32.0664 -3.46468 2.98265e-17)
(36.8472 -3.66496 2.04873e-15)
(40.4166 -3.65778 4.61238e-15)
(43.0937 -3.52916 -2.86638e-15)
(45.0926 -3.33858 -3.1229e-15)
(46.7912 -2.93004 3.31383e-15)
(-4.14393 5.43594 -8.90052e-15)
(13.7327 -1.15978 -3.06813e-16)
(24.7901 -3.30002 -3.67208e-15)
(32.6302 -3.87965 -9.68391e-17)
(38.2612 -3.91073 4.85677e-16)
(42.2858 -3.71907 -3.32379e-16)
(45.1628 -3.43322 -2.27289e-16)
(47.2278 -3.11321 -2.16514e-15)
(48.7013 -2.78549 -3.20392e-15)
(49.8404 -2.35677 9.39135e-16)
(-6.93121 -0.707023 1.24691e-16)
(-5.39986 -0.676038 2.01221e-17)
(-3.98137 -0.618985 -1.9761e-16)
(-2.683 -0.568094 1.48086e-16)
(-1.47757 -0.530701 6.64852e-17)
(-0.344594 -0.503772 -3.19677e-16)
(0.755708 -0.475126 -1.6531e-16)
(1.76881 -0.446735 2.45098e-16)
(2.74123 -0.424725 -1.48732e-16)
(3.67254 -0.406769 -4.40582e-17)
(4.56856 -0.391348 1.50711e-16)
(5.43374 -0.377654 -6.08762e-17)
(6.27117 -0.365198 3.73663e-16)
(7.08303 -0.353647 -1.90966e-16)
(7.87093 -0.342746 -4.36458e-16)
(8.6361 -0.332338 5.77144e-16)
(9.37944 -0.322304 -2.4549e-16)
(10.1016 -0.312515 -1.28949e-16)
(10.8029 -0.302894 1.32172e-16)
(11.4835 -0.293409 -3.09783e-17)
(12.1437 -0.284051 -3.20611e-17)
(12.7835 -0.274826 9.1299e-17)
(13.4033 -0.265747 -1.54142e-16)
(14.0034 -0.256832 4.11493e-16)
(14.5839 -0.248106 2.04097e-17)
(15.1455 -0.239587 -4.38853e-16)
(15.6884 -0.231297 3.21616e-16)
(16.2132 -0.223257 7.16689e-17)
(16.7205 -0.21549 -1.51796e-18)
(17.2107 -0.208015 -2.47314e-16)
(17.6844 -0.200844 1.50739e-16)
(18.1424 -0.193989 -2.4616e-16)
(18.5853 -0.187451 2.2378e-16)
(19.0139 -0.181217 -2.94474e-16)
(19.4287 -0.175258 4.29179e-16)
(19.8306 -0.169531 -2.66789e-16)
(20.2198 -0.163999 -1.16334e-16)
(20.5968 -0.15864 3.78938e-16)
(20.9621 -0.153456 -9.37196e-17)
(21.3157 -0.148455 -7.62763e-18)
(21.6582 -0.143631 -1.84341e-16)
(21.99 -0.138997 6.75342e-17)
(22.3115 -0.134552 -3.59858e-17)
(22.6231 -0.130292 -1.91823e-17)
(22.9252 -0.12622 2.30658e-16)
(23.2182 -0.122333 -9.92045e-17)
(23.5025 -0.118624 1.56429e-16)
(23.7783 -0.115072 -2.70317e-16)
(24.0462 -0.111669 4.07188e-17)
(24.3064 -0.108404 3.11392e-17)
(24.5593 -0.105267 -1.78905e-18)
(24.8051 -0.102251 -6.76492e-17)
(25.0442 -0.099349 8.01417e-17)
(25.2767 -0.0965554 3.36612e-17)
(25.503 -0.0938643 -1.69855e-17)
(25.7232 -0.0912703 -6.82864e-17)
(25.9376 -0.0887696 1.34441e-17)
(26.1464 -0.0863584 -7.0335e-17)
(26.3499 -0.0840331 4.4233e-17)
(26.5481 -0.0817906 1.07576e-16)
(26.7413 -0.0796282 -9.79706e-17)
(26.9297 -0.0775441 3.53574e-18)
(27.1134 -0.0755368 -3.45479e-17)
(27.2927 -0.0736039 1.01022e-17)
(27.4676 -0.0717442 6.22466e-17)
(27.6383 -0.0699554 5.86263e-17)
(27.8051 -0.0682339 -1.47328e-16)
(27.968 -0.0665777 4.36978e-17)
(28.1271 -0.0649848 1.11142e-17)
(28.2827 -0.0634531 -3.72592e-17)
(28.4348 -0.0619803 -6.93937e-17)
(28.5837 -0.0605632 1.46877e-16)
(28.7293 -0.0591997 -4.28584e-17)
(28.8718 -0.0578873 3.24373e-17)
(29.0114 -0.0566241 -2.93226e-17)
(29.1481 -0.0554077 -4.55855e-17)
(29.282 -0.0542361 1.31579e-17)
(29.4133 -0.0531092 4.5426e-17)
(29.542 -0.0520253 -6.7829e-17)
(29.6683 -0.0509813 8.44406e-17)
(29.7921 -0.0499751 2.4098e-18)
(29.9137 -0.049006 -1.34152e-17)
(30.0331 -0.0480746 -3.19042e-17)
(30.1504 -0.0471793 4.8853e-17)
(30.2657 -0.0463176 -4.06291e-17)
(30.379 -0.0454885 3.48854e-17)
(30.4904 -0.0446923 -5.08849e-17)
(30.6 -0.0439215 -6.12006e-18)
(30.7079 -0.0431738 3.34158e-17)
(30.8141 -0.0424529 2.12162e-18)
(30.9186 -0.0417535 -1.23307e-17)
(31.0216 -0.0410703 -5.28074e-19)
(31.123 -0.0403917 -1.93462e-18)
(31.2228 -0.0397112 -4.49418e-18)
(31.3211 -0.0390159 2.52416e-18)
(31.4177 -0.0382931 -1.58374e-18)
(31.5126 -0.0375176 5.8869e-18)
(31.6054 -0.0366736 4.09228e-18)
(31.6962 -0.0357378 -7.54603e-19)
(31.8059 -0.0338119 1.22086e-18)
(-3.58126 -2.04659 -4.98708e-16)
(-2.31299 -1.90917 -3.53783e-16)
(-1.07905 -1.74984 -1.55896e-15)
(0.0740527 -1.61408 1.29976e-15)
(1.16046 -1.50616 -1.87488e-15)
(2.16743 -1.42398 1.3661e-15)
(3.13359 -1.34934 -9.08376e-16)
(4.05821 -1.27951 -6.51959e-16)
(4.95239 -1.22159 1.434e-15)
(5.81582 -1.17249 4.90504e-16)
(6.65034 -1.12954 2.67728e-16)
(7.45836 -1.09112 -1.01586e-15)
(8.24188 -1.05612 3.66927e-16)
(9.00254 -1.02375 -4.07919e-16)
(9.74148 -0.993239 -1.04595e-15)
(10.4594 -0.963993 2.39902e-15)
(11.1571 -0.935815 1.64303e-16)
(11.8349 -0.908421 -1.53267e-16)
(12.4933 -0.881407 -4.95141e-16)
(13.1323 -0.854592 -1.54376e-16)
(13.7522 -0.827964 -1.03072e-15)
(14.353 -0.801593 1.00119e-15)
(14.9349 -0.775555 -1.26185e-15)
(15.4982 -0.749929 2.40603e-15)
(16.0432 -0.724806 -1.1266e-15)
(16.5703 -0.700247 3.27183e-16)
(17.08 -0.676307 -4.07594e-16)
(17.5728 -0.653043 4.52835e-16)
(18.0491 -0.63052 4.15915e-16)
(18.5094 -0.608745 -9.60185e-17)
(18.9542 -0.587756 -8.48228e-16)
(19.3841 -0.567638 -1.20219e-16)
(19.7996 -0.54845 4.11773e-16)
(20.2014 -0.53022 1.55367e-16)
(20.5902 -0.512923 -9.06792e-16)
(20.9669 -0.496422 7.56985e-16)
(21.3318 -0.480499 2.06475e-16)
(21.6855 -0.465004 -3.15417e-16)
(22.0281 -0.449927 1.45698e-16)
(22.3599 -0.435301 -2.31168e-16)
(22.681 -0.421139 -2.27583e-16)
(22.9919 -0.407517 7.37542e-16)
(23.2931 -0.394462 -3.82245e-16)
(23.585 -0.381943 1.36946e-16)
(23.868 -0.369955 -8.02078e-16)
(24.1423 -0.358536 6.00867e-16)
(24.4084 -0.347671 2.41363e-16)
(24.6666 -0.33729 -5.31454e-16)
(24.9172 -0.327353 -3.34339e-16)
(25.1607 -0.317824 2.88708e-16)
(25.3972 -0.308675 1.82372e-16)
(25.6271 -0.299881 1.16739e-18)
(25.8507 -0.291421 5.59312e-16)
(26.0681 -0.283276 -7.66197e-16)
(26.2797 -0.27543 5.20907e-16)
(26.4857 -0.267868 -3.96974e-16)
(26.6862 -0.260578 -1.96638e-16)
(26.8815 -0.25355 8.58985e-16)
(27.0718 -0.246774 -1.46364e-16)
(27.2572 -0.240239 -2.35354e-16)
(27.438 -0.233934 2.07681e-16)
(27.6143 -0.227853 -2.8237e-16)
(27.7863 -0.221993 -2.12091e-16)
(27.9541 -0.216352 1.98696e-16)
(28.1179 -0.210924 -1.05726e-16)
(28.2779 -0.205702 -2.36732e-16)
(28.4341 -0.200677 4.45815e-16)
(28.5868 -0.195842 -8.13407e-17)
(28.736 -0.191192 -1.43306e-16)
(28.8819 -0.186721 -1.99433e-16)
(29.0246 -0.182418 2.72199e-17)
(29.1643 -0.178278 1.80585e-16)
(29.301 -0.174293 1.53619e-16)
(29.4348 -0.170454 7.4136e-17)
(29.5658 -0.166758 -2.10707e-17)
(29.6942 -0.163197 -3.24375e-16)
(29.8201 -0.159769 2.60909e-16)
(29.9435 -0.156467 1.87458e-16)
(30.0645 -0.153289 -1.62757e-16)
(30.1832 -0.150237 -2.3672e-16)
(30.2997 -0.147292 1.01235e-17)
(30.4141 -0.144455 8.01602e-17)
(30.5264 -0.141733 -3.95578e-17)
(30.6368 -0.139113 5.68803e-18)
(30.7453 -0.136589 -9.42621e-18)
(30.852 -0.134164 9.88113e-18)
(30.957 -0.131837 -9.15175e-17)
(31.0602 -0.129583 2.10543e-16)
(31.1619 -0.127388 -9.35461e-17)
(31.2621 -0.125273 -7.30011e-17)
(31.3607 -0.12323 4.16883e-17)
(31.4579 -0.121239 2.31246e-17)
(31.5536 -0.119264 1.80298e-17)
(31.6479 -0.117292 -2.41416e-17)
(31.7408 -0.115269 1.38455e-17)
(31.8322 -0.113151 -8.68389e-17)
(31.922 -0.110862 3.71248e-17)
(32.0098 -0.108326 -1.24934e-17)
(32.0964 -0.105395 2.49732e-18)
(32.1997 -0.101013 -1.94019e-17)
(2.52045 -3.18279 -4.93597e-15)
(3.2998 -2.90497 1.05437e-15)
(4.17118 -2.68801 2.00963e-15)
(5.03435 -2.51055 1.97017e-15)
(5.87568 -2.35729 -1.44708e-15)
(6.69203 -2.23065 -4.11418e-15)
(7.48902 -2.12421 4.25822e-15)
(8.26802 -2.03022 7.20526e-16)
(9.03069 -1.94801 -1.28426e-15)
(9.77514 -1.87522 -6.45011e-16)
(10.5007 -1.80973 7.59e-16)
(11.2072 -1.75013 3.18127e-15)
(11.8955 -1.69523 -1.2161e-15)
(12.5656 -1.64391 -2.52615e-15)
(13.2178 -1.59518 3.42043e-15)
(13.8521 -1.54817 -1.51167e-15)
(14.469 -1.50278 -1.182e-15)
(15.0682 -1.45868 3.98646e-16)
(15.6498 -1.41512 -6.05813e-16)
(16.2138 -1.37185 1.40365e-15)
(16.7602 -1.3289 -2.0163e-15)
(17.2892 -1.28642 1.96941e-16)
(17.8011 -1.24451 -7.47169e-16)
(18.2962 -1.20331 1.65225e-15)
(18.7751 -1.16297 -3.92232e-16)
(19.238 -1.12355 1.18487e-15)
(19.6855 -1.08516 -4.37965e-16)
(20.1181 -1.04791 -1.12038e-15)
(20.5363 -1.0118 -5.48226e-16)
(20.9403 -0.976823 -8.46661e-17)
(21.3308 -0.943043 5.6767e-16)
(21.7081 -0.910594 7.94635e-16)
(22.0727 -0.879613 -1.37195e-15)
(22.4254 -0.850219 9.84574e-16)
(22.7667 -0.822449 3.83176e-16)
(23.0973 -0.796059 -7.54164e-16)
(23.4178 -0.770602 1.56792e-15)
(23.7282 -0.745753 -1.36759e-15)
(24.0287 -0.72145 2.53059e-16)
(24.3194 -0.697847 -5.0749e-16)
(24.6006 -0.675056 2.39182e-16)
(24.8728 -0.653157 -2.29286e-16)
(25.1365 -0.632197 3.60524e-16)
(25.392 -0.612127 1.6255e-16)
(25.6398 -0.59293 -2.9879e-16)
(25.88 -0.574619 8.99704e-16)
(26.1131 -0.557155 -5.60976e-16)
(26.3392 -0.540476 -5.5722e-16)
(26.5588 -0.524514 8.47606e-16)
(26.772 -0.509214 -9.16489e-16)
(26.9792 -0.494528 -1.50223e-17)
(27.1806 -0.480419 1.58021e-15)
(27.3764 -0.466851 -2.06369e-15)
(27.5669 -0.453797 1.69006e-15)
(27.7522 -0.441233 -1.13697e-15)
(27.9326 -0.429135 1.5508e-16)
(28.1082 -0.417482 7.19922e-16)
(28.2792 -0.406255 -3.79304e-16)
(28.4459 -0.395437 -1.79461e-16)
(28.6083 -0.385012 2.57278e-16)
(28.7667 -0.374962 -8.40947e-18)
(28.9212 -0.365275 -2.11765e-16)
(29.0719 -0.355948 -2.44512e-16)
(29.219 -0.346974 3.04731e-17)
(29.3627 -0.338344 2.94388e-16)
(29.503 -0.33004 -1.47645e-16)
(29.6402 -0.32205 3.88208e-16)
(29.7742 -0.314363 -1.94405e-16)
(29.9053 -0.30697 -2.25305e-17)
(30.0335 -0.299858 -4.70254e-16)
(30.1589 -0.293013 4.37259e-16)
(30.2817 -0.286422 2.26838e-16)
(30.4018 -0.280074 5.68721e-17)
(30.5196 -0.27396 -3.016e-16)
(30.6349 -0.268072 2.3701e-16)
(30.7479 -0.262401 -8.76748e-17)
(30.8587 -0.256939 -2.01743e-17)
(30.9674 -0.251681 -3.23491e-16)
(31.074 -0.246621 2.54054e-16)
(31.1786 -0.241752 7.31924e-17)
(31.2814 -0.237066 -2.38713e-16)
(31.3823 -0.232557 8.43396e-17)
(31.4815 -0.228222 8.25693e-17)
(31.579 -0.224053 -1.77602e-16)
(31.675 -0.220043 -3.45806e-18)
(31.7694 -0.216187 3.24134e-16)
(31.8623 -0.21248 6.71268e-17)
(31.9538 -0.2089 -6.66622e-17)
(32.044 -0.205433 -1.7483e-16)
(32.1328 -0.202093 -2.41162e-17)
(32.2204 -0.198858 -6.96257e-17)
(32.3068 -0.195699 3.37199e-17)
(32.392 -0.192577 1.27301e-16)
(32.4759 -0.18946 -5.09969e-17)
(32.5587 -0.186266 4.36298e-17)
(32.6403 -0.182931 -7.17652e-17)
(32.7206 -0.179324 7.33883e-17)
(32.7992 -0.175305 -2.99589e-17)
(32.8768 -0.170509 -1.33244e-17)
(32.9696 -0.164885 1.47234e-17)
(10.4842 -3.82352 1.82028e-15)
(10.7505 -3.51266 -4.70841e-16)
(11.1624 -3.31598 3.80821e-15)
(11.6872 -3.15476 -3.15457e-15)
(12.2522 -3.00157 2.59362e-15)
(12.8305 -2.86546 1.1334e-15)
(13.4164 -2.74822 2.53855e-16)
(14.0056 -2.64435 3.77329e-16)
(14.5941 -2.55036 -8.39873e-16)
(15.1777 -2.46412 -9.61441e-16)
(15.7541 -2.38449 -2.55864e-15)
(16.3211 -2.31058 3.28482e-15)
(16.8779 -2.2414 -3.35888e-15)
(17.423 -2.17582 2.2941e-15)
(17.9553 -2.11268 -1.05702e-15)
(18.474 -2.0512 -2.7966e-16)
(18.98 -1.99131 1.17747e-15)
(19.4712 -1.93245 -2.56394e-16)
(19.9475 -1.87396 -4.52254e-16)
(20.4086 -1.81585 -8.57536e-16)
(20.8547 -1.75835 2.35699e-15)
(21.2862 -1.70167 -5.63889e-16)
(21.7036 -1.64592 1.51448e-16)
(22.1071 -1.59123 1.50265e-15)
(22.4974 -1.5378 -3.99728e-15)
(22.8747 -1.48563 2.85544e-15)
(23.2395 -1.43489 -3.15109e-15)
(23.5923 -1.38572 4.36288e-15)
(23.9334 -1.33806 -2.44808e-15)
(24.2632 -1.29195 1.60259e-15)
(24.5821 -1.24742 1.24363e-15)
(24.8904 -1.20459 -3.43128e-15)
(25.1885 -1.16361 8.69097e-16)
(25.4769 -1.12473 -5.73844e-16)
(25.7562 -1.0881 1.12353e-15)
(26.0268 -1.05332 -1.2979e-16)
(26.2888 -1.01961 -2.29495e-15)
(26.5423 -0.986532 2.01305e-15)
(26.7873 -0.954121 -2.69918e-16)
(27.0239 -0.922667 3.05588e-16)
(27.2527 -0.892396 4.51906e-16)
(27.4742 -0.863426 3.89176e-16)
(27.6887 -0.835758 4.20454e-17)
(27.8967 -0.809297 -9.32142e-16)
(28.0984 -0.784009 2.62586e-17)
(28.294 -0.759878 -1.28324e-16)
(28.4837 -0.736844 -3.95192e-16)
(28.6679 -0.714825 1.73374e-15)
(28.8467 -0.693738 -7.24723e-16)
(29.0203 -0.673508 2.5991e-16)
(29.1889 -0.654084 3.4932e-16)
(29.3527 -0.635418 -5.28763e-16)
(29.5119 -0.617472 -6.0527e-16)
(29.6668 -0.600209 1.27596e-15)
(29.8173 -0.583598 -1.207e-15)
(29.9639 -0.567612 -1.17567e-16)
(30.1065 -0.552226 1.26069e-15)
(30.2454 -0.537413 -8.29161e-16)
(30.3807 -0.523151 2.84405e-16)
(30.5126 -0.509413 1.58446e-16)
(30.6412 -0.496165 -6.16496e-16)
(30.7667 -0.483403 7.958e-16)
(30.889 -0.471131 -2.70547e-16)
(31.0085 -0.459339 -7.56424e-16)
(31.1252 -0.448006 4.26048e-16)
(31.2392 -0.437105 -5.63335e-17)
(31.3507 -0.426614 9.16389e-16)
(31.4596 -0.416517 -1.56846e-15)
(31.5661 -0.406802 1.40789e-15)
(31.6703 -0.397454 -6.6012e-17)
(31.7723 -0.388454 -5.58525e-16)
(31.8721 -0.379787 7.46673e-16)
(31.9698 -0.371442 -4.97917e-16)
(32.0656 -0.363407 2.4414e-16)
(32.1594 -0.355672 -4.17884e-16)
(32.2514 -0.348225 -6.42314e-17)
(32.3417 -0.341059 2.33786e-16)
(32.4302 -0.334164 -8.7208e-17)
(32.5172 -0.327533 -2.92644e-16)
(32.6026 -0.321157 2.82389e-16)
(32.6865 -0.315026 4.12964e-16)
(32.7691 -0.309135 -7.13667e-17)
(32.8503 -0.303476 2.41734e-16)
(32.9302 -0.298037 -2.95827e-16)
(33.0089 -0.292809 -2.13166e-16)
(33.0864 -0.287786 -7.83536e-17)
(33.1628 -0.282956 1.80373e-17)
(33.2382 -0.278305 1.20118e-16)
(33.3125 -0.273814 2.17228e-16)
(33.3859 -0.269488 -4.43217e-16)
(33.4583 -0.265294 3.31975e-16)
(33.5299 -0.261201 -1.73413e-16)
(33.6005 -0.257166 3.58722e-17)
(33.6703 -0.253135 1.42831e-16)
(33.7392 -0.248994 -1.28778e-17)
(33.8073 -0.244676 -1.18535e-16)
(33.8744 -0.240023 9.1893e-17)
(33.9403 -0.234905 -3.78815e-17)
(34.0055 -0.228666 -2.61665e-18)
(34.0837 -0.221624 -1.37986e-17)
(19.6677 -3.99768 -6.5176e-15)
(19.5543 -3.74354 -2.7105e-15)
(19.5497 -3.62128 3.82164e-15)
(19.7293 -3.51534 -1.00032e-15)
(19.9942 -3.39804 -1.1058e-15)
(20.2947 -3.2821 2.74566e-15)
(20.6225 -3.17589 -2.79519e-15)
(20.9738 -3.07846 -1.20301e-15)
(21.3426 -2.98724 1.1715e-15)
(21.7224 -2.90068 1.22534e-15)
(22.1094 -2.81835 -2.52817e-15)
(22.4998 -2.73985 3.85449e-15)
(22.8901 -2.66415 -2.83567e-15)
(23.2771 -2.59077 3.90625e-15)
(23.6588 -2.51916 -2.962e-15)
(24.0333 -2.44752 -2.00162e-15)
(24.3989 -2.37607 1.0347e-15)
(24.7535 -2.30567 2.61472e-15)
(25.0971 -2.23555 1.04063e-15)
(25.4303 -2.16602 -2.36432e-15)
(25.7532 -2.09735 2.14615e-15)
(26.0664 -2.02976 6.79844e-17)
(26.3697 -1.96337 -1.53345e-16)
(26.6638 -1.89833 -1.56143e-15)
(26.9488 -1.83487 1.41941e-15)
(27.2248 -1.77298 -3.27127e-16)
(27.4927 -1.71283 -3.30961e-15)
(27.752 -1.6545 2.03397e-15)
(28.0032 -1.59793 3.83979e-16)
(28.2466 -1.54313 9.44535e-16)
(28.4825 -1.49021 -3.54666e-15)
(28.7112 -1.43928 2.36389e-16)
(28.9328 -1.39044 3.10657e-15)
(29.1474 -1.34402 -1.68102e-16)
(29.3554 -1.30041 -2.45851e-15)
(29.5565 -1.25893 -6.95609e-16)
(29.7506 -1.21835 3.47633e-15)
(29.9376 -1.17831 -9.31141e-16)
(30.1177 -1.13914 -9.78624e-16)
(30.2914 -1.10134 9.17853e-16)
(30.4594 -1.06516 7.91725e-16)
(30.6222 -1.0307 1.2787e-15)
(30.7802 -0.997849 -3.53528e-15)
(30.9335 -0.966455 2.30112e-15)
(31.0823 -0.936456 2.96187e-16)
(31.2266 -0.907791 -1.79e-15)
(31.3666 -0.88039 6.20555e-17)
(31.5024 -0.854157 -3.63563e-16)
(31.6341 -0.828989 1.32433e-15)
(31.762 -0.804815 8.40051e-16)
(31.886 -0.78159 -4.9348e-16)
(32.0065 -0.75927 -6.81093e-16)
(32.1235 -0.737811 -3.24904e-17)
(32.2371 -0.717178 3.04584e-16)
(32.3476 -0.697335 -2.45577e-16)
(32.455 -0.678248 9.57533e-17)
(32.5595 -0.659885 -6.10812e-16)
(32.6612 -0.642215 1.26423e-15)
(32.7603 -0.625209 -1.04844e-15)
(32.8568 -0.60884 1.27452e-15)
(32.9509 -0.593062 -1.82545e-15)
(33.0426 -0.577869 2.78333e-16)
(33.1321 -0.563274 6.26887e-16)
(33.2195 -0.549254 -1.1144e-16)
(33.3048 -0.53578 4.93155e-16)
(33.3881 -0.522817 -1.28515e-15)
(33.4695 -0.51034 7.93821e-16)
(33.5491 -0.498334 -5.66052e-16)
(33.6269 -0.486791 -2.61343e-16)
(33.7029 -0.475684 1.6999e-15)
(33.7774 -0.464988 -1.39657e-15)
(33.8502 -0.454688 6.53441e-16)
(33.9216 -0.444774 -3.00767e-16)
(33.9915 -0.435238 7.87258e-18)
(34.0601 -0.426065 7.00291e-16)
(34.1274 -0.417245 -4.78234e-16)
(34.1935 -0.408767 -2.20195e-16)
(34.2584 -0.40062 1.92428e-16)
(34.3222 -0.392795 4.02648e-16)
(34.3849 -0.385282 -3.5364e-16)
(34.4467 -0.378069 -3.3736e-16)
(34.5076 -0.371147 7.3602e-16)
(34.5675 -0.364508 -5.12174e-16)
(34.6266 -0.358137 9.73047e-17)
(34.685 -0.352021 -2.21311e-16)
(34.7426 -0.346151 1.90461e-16)
(34.7995 -0.340512 2.28435e-16)
(34.8557 -0.33509 -8.45914e-17)
(34.9113 -0.329867 1.33812e-16)
(34.9663 -0.324841 3.04637e-16)
(35.0207 -0.31997 -3.21073e-16)
(35.0746 -0.315222 4.15464e-16)
(35.128 -0.310541 -3.36687e-16)
(35.1808 -0.305863 1.75753e-16)
(35.2333 -0.301077 1.17128e-16)
(35.2852 -0.296118 -3.72255e-17)
(35.3365 -0.290765 4.51327e-17)
(35.3872 -0.28488 -6.73799e-17)
(35.4376 -0.277685 8.0253e-17)
(35.4983 -0.269556 3.84495e-17)
(28.9969 -3.87374 7.22214e-16)
(28.7426 -3.72799 -2.42104e-15)
(28.5095 -3.6875 -7.22217e-16)
(28.4499 -3.63867 7.22428e-15)
(28.4827 -3.56858 2.63479e-18)
(28.5524 -3.48967 -3.41544e-15)
(28.6507 -3.40884 1.82216e-15)
(28.7775 -3.32812 -2.11e-15)
(28.9288 -3.24839 5.22663e-16)
(29.0988 -3.16941 3.852e-15)
(29.2823 -3.09097 -7.4918e-16)
(29.4752 -3.01372 -9.16004e-15)
(29.6735 -2.93753 2.82741e-15)
(29.8748 -2.86159 6.38134e-15)
(30.0769 -2.78585 -1.11922e-16)
(30.2778 -2.71016 -3.29783e-15)
(30.4752 -2.63409 -2.37693e-15)
(30.6694 -2.55822 -4.09357e-16)
(30.8607 -2.48242 1.34007e-15)
(31.0488 -2.40691 2.71727e-16)
(31.2334 -2.33208 2.24234e-15)
(31.4141 -2.25825 -2.65955e-16)
(31.5906 -2.18562 -2.75271e-15)
(31.7631 -2.11434 6.96238e-16)
(31.9313 -2.04491 -6.50529e-16)
(32.0955 -1.9771 3.47376e-16)
(32.2558 -1.91119 -2.91731e-16)
(32.412 -1.84761 -7.6066e-16)
(32.5645 -1.78602 2.48574e-15)
(32.7133 -1.72629 -2.08827e-15)
(32.8585 -1.66832 1.83849e-15)
(33 -1.61229 2.94724e-16)
(33.1379 -1.55836 1.08378e-15)
(33.2724 -1.50679 -1.47323e-15)
(33.4033 -1.4574 -5.32435e-16)
(33.5276 -1.40939 -1.11004e-15)
(33.6454 -1.36229 2.06453e-15)
(33.7571 -1.31646 -1.82478e-15)
(33.8648 -1.27244 -7.47726e-16)
(33.9692 -1.23048 1.71974e-15)
(34.071 -1.19047 5.01919e-16)
(34.1703 -1.15222 4.2133e-16)
(34.267 -1.1156 -1.62298e-16)
(34.3611 -1.08054 -1.33331e-16)
(34.4526 -1.04699 -9.53626e-16)
(34.5413 -1.01487 -2.08949e-15)
(34.6273 -0.984121 3.91736e-15)
(34.7106 -0.954649 -2.66764e-15)
(34.7912 -0.926375 -1.17728e-15)
(34.8694 -0.899242 1.97886e-15)
(34.9451 -0.873199 -1.29507e-15)
(35.0185 -0.848189 1.55913e-15)
(35.0897 -0.824162 -1.41538e-16)
(35.1589 -0.801075 4.92918e-17)
(35.226 -0.778887 -1.33331e-15)
(35.2912 -0.757558 3.04846e-16)
(35.3546 -0.737053 -6.36021e-16)
(35.4162 -0.717336 4.17119e-16)
(35.4761 -0.69838 2.58141e-16)
(35.5344 -0.680156 -4.0158e-16)
(35.5912 -0.66262 6.52461e-16)
(35.6466 -0.645744 -1.18886e-16)
(35.7007 -0.629506 8.91525e-16)
(35.7533 -0.613871 2.79617e-16)
(35.8046 -0.598825 7.43629e-18)
(35.8546 -0.584347 -2.78243e-17)
(35.9033 -0.570423 -8.47305e-16)
(35.9509 -0.557036 1.88799e-16)
(35.9974 -0.544183 -8.62346e-17)
(36.0429 -0.531832 -3.73032e-16)
(36.0874 -0.519943 -2.8051e-16)
(36.131 -0.508503 4.7968e-16)
(36.1737 -0.497508 -7.5861e-16)
(36.2156 -0.486945 -1.52181e-16)
(36.2568 -0.476802 8.27166e-16)
(36.2972 -0.467066 -6.54168e-17)
(36.3371 -0.457724 -5.83833e-16)
(36.3763 -0.448761 -5.77751e-16)
(36.415 -0.440165 1.44022e-15)
(36.4532 -0.431922 -4.46407e-16)
(36.4909 -0.424022 -8.4724e-18)
(36.5281 -0.416453 -8.52805e-17)
(36.565 -0.409203 -2.31095e-16)
(36.6015 -0.402261 3.3084e-16)
(36.6376 -0.395605 -4.07355e-16)
(36.6735 -0.389225 4.08005e-16)
(36.709 -0.383105 -5.58806e-17)
(36.7443 -0.377234 3.33529e-16)
(36.7793 -0.37159 -5.99285e-16)
(36.8142 -0.36616 3.66492e-18)
(36.8488 -0.360906 3.65078e-17)
(36.8833 -0.355799 -5.24048e-17)
(36.9176 -0.350759 -8.93637e-17)
(36.9519 -0.34575 -1.67824e-16)
(36.986 -0.340665 1.96515e-16)
(37.0201 -0.33542 -2.06052e-17)
(37.054 -0.329751 5.83293e-17)
(37.0879 -0.323516 -1.21032e-16)
(37.1219 -0.315833 -4.96433e-17)
(37.1633 -0.307097 4.29979e-18)
(36.8547 -3.62485 -1.06848e-15)
(36.5406 -3.60899 2.95048e-16)
(36.1996 -3.6405 -4.68692e-15)
(36.0163 -3.63041 2.24597e-15)
(35.9308 -3.5931 3.92528e-15)
(35.8856 -3.5453 2.1455e-15)
(35.8665 -3.49133 -5.36978e-16)
(35.873 -3.43197 -8.47695e-15)
(35.9025 -3.36841 1.89133e-16)
(35.9498 -3.30172 5.5146e-15)
(36.009 -3.23203 -2.77956e-16)
(36.0759 -3.15979 -1.61264e-16)
(36.1479 -3.08555 4.3331e-15)
(36.2233 -3.00981 -9.08108e-16)
(36.3 -2.93277 -5.19047e-16)
(36.3779 -2.85451 -6.91886e-16)
(36.4567 -2.77535 -1.62193e-15)
(36.5362 -2.69601 -2.32141e-15)
(36.6162 -2.6169 -9.86784e-16)
(36.6955 -2.53835 6.20086e-15)
(36.7742 -2.46061 7.64407e-16)
(36.8513 -2.3839 -4.61592e-15)
(36.9272 -2.30839 -1.46872e-15)
(37.0018 -2.23441 -3.57304e-15)
(37.0745 -2.16213 6.19143e-15)
(37.1454 -2.09146 -2.53918e-15)
(37.2141 -2.02249 2.30413e-15)
(37.2803 -1.95554 1.34437e-15)
(37.345 -1.89076 -3.12378e-15)
(37.4067 -1.82789 1.23957e-15)
(37.4665 -1.76711 1.85715e-16)
(37.524 -1.70834 -1.18449e-15)
(37.5792 -1.65093 2.66676e-15)
(37.6321 -1.5946 -3.11086e-15)
(37.6816 -1.54146 5.12072e-16)
(37.7283 -1.49197 7.22719e-16)
(37.7727 -1.44407 -1.18211e-16)
(37.816 -1.39705 7.86774e-16)
(37.8582 -1.35115 -1.08077e-15)
(37.8994 -1.30719 1.1633e-15)
(37.9394 -1.26508 -1.53631e-15)
(37.9782 -1.22482 1.66618e-15)
(38.0156 -1.18639 -1.4875e-15)
(38.0518 -1.14948 7.96131e-16)
(38.0867 -1.11408 1.16269e-15)
(38.1202 -1.08014 5.44199e-16)
(38.1522 -1.04759 -1.17036e-15)
(38.1829 -1.01635 1.34388e-15)
(38.2123 -0.986293 -2.45037e-15)
(38.2404 -0.957348 1.49505e-15)
(38.2674 -0.929509 -4.33288e-16)
(38.2931 -0.902734 2.35712e-16)
(38.3178 -0.876983 -1.30877e-15)
(38.3414 -0.852224 2.73583e-15)
(38.3641 -0.828417 -1.36997e-15)
(38.3858 -0.805526 -2.19001e-15)
(38.4066 -0.783517 1.64744e-15)
(38.4267 -0.762361 -5.23374e-17)
(38.4459 -0.742034 -1.15913e-15)
(38.4644 -0.722518 -1.11768e-15)
(38.4822 -0.703669 3.07465e-15)
(38.4994 -0.685505 -1.97335e-15)
(38.5159 -0.668112 1.96899e-15)
(38.5318 -0.651409 -9.92263e-16)
(38.5471 -0.635361 9.6671e-17)
(38.5621 -0.619915 4.41529e-16)
(38.5766 -0.605062 -1.16162e-15)
(38.5907 -0.590805 -1.42984e-16)
(38.6046 -0.577139 8.81969e-16)
(38.618 -0.564039 -6.20242e-16)
(38.6312 -0.551481 5.20505e-16)
(38.6443 -0.539451 5.70822e-17)
(38.6571 -0.527926 -6.94548e-16)
(38.6699 -0.516883 -7.89303e-17)
(38.6825 -0.506299 1.3683e-15)
(38.6951 -0.496161 -5.07246e-16)
(38.7076 -0.486452 -3.48273e-16)
(38.7202 -0.477151 4.9672e-16)
(38.7327 -0.468242 -2.47998e-16)
(38.7452 -0.459712 3.95971e-16)
(38.7578 -0.451545 4.09966e-16)
(38.7704 -0.443732 -1.1113e-15)
(38.7831 -0.43626 9.99342e-17)
(38.7959 -0.429118 4.39948e-16)
(38.8087 -0.422281 -7.1129e-16)
(38.8217 -0.415734 8.96651e-16)
(38.8348 -0.409462 -3.25206e-16)
(38.848 -0.40346 -4.7024e-16)
(38.8614 -0.397701 7.74062e-17)
(38.875 -0.392163 5.32035e-17)
(38.8887 -0.386811 1.05979e-16)
(38.9028 -0.381632 -1.28365e-16)
(38.917 -0.376532 8.73614e-17)
(38.9316 -0.371494 4.20745e-18)
(38.9464 -0.366408 5.81458e-17)
(38.9616 -0.361195 -2.05442e-17)
(38.9772 -0.355582 3.58031e-17)
(38.9932 -0.349446 -2.69207e-17)
(39.01 -0.34185 -4.75824e-17)
(39.0314 -0.333103 -4.07066e-17)
(42.6831 -3.27957 1.77934e-15)
(42.3066 -3.38231 -2.67779e-15)
(41.8782 -3.48264 4.40772e-15)
(41.5845 -3.5159 -3.04318e-15)
(41.3934 -3.51629 -4.90682e-15)
(41.2546 -3.504 4.20272e-15)
(41.1493 -3.48112 1.81657e-15)
(41.0742 -3.44744 5.33719e-17)
(41.0261 -3.40437 -7.53782e-17)
(41.0007 -3.35357 2.83416e-15)
(40.9933 -3.29623 -2.89562e-15)
(41.0001 -3.23339 -1.92637e-15)
(41.0181 -3.16621 -4.41504e-15)
(41.0451 -3.09549 3.41629e-15)
(41.0787 -3.02187 -5.41404e-16)
(41.1176 -2.9459 -1.33005e-15)
(41.1603 -2.86838 5.44314e-16)
(41.2058 -2.79008 6.78577e-15)
(41.2529 -2.71131 -6.22534e-15)
(41.3011 -2.63226 -1.13522e-15)
(41.3496 -2.55326 2.16888e-15)
(41.398 -2.4748 6.38258e-16)