/*--------------------------------*- C++ -*----------------------------------*\
  =========                 |
  \\      /  F ield         | OpenFOAM: The Open Source CFD Toolbox
   \\    /   O peration     | Website:  https://openfoam.org
    \\  /    A nd           | Version:  8
     \\/     M anipulation  |
\*---------------------------------------------------------------------------*/
FoamFile
{
    version     2.0;
    format      ascii;
    class       volVectorField;
    location    "0.6";
    object      U;
}
// * * * * * * * * * * * * * * * * * * * * * * * * * * * * * * * * * * * * * //

dimensions      [0 1 -1 0 0 0 0];

internalField   nonuniform List<vector> 
2000
(
(-2.0690278e-06 -0.00049246063 -4.0822863e-06)
(-3.91186e-07 -0.00049246982 -4.0853848e-06)
(-8.3321097e-08 -0.00049246926 -4.0854118e-06)
(9.850934e-08 -0.00049246794 -4.0854286e-06)
(-1.8391978e-07 -0.00049246826 -4.0854244e-06)
(1.8390368e-07 -0.00049246826 -4.0854244e-06)
(-9.8456677e-08 -0.00049246795 -4.0854288e-06)
(8.3450574e-08 -0.00049246926 -4.0854116e-06)
(3.9131656e-07 -0.00049246982 -4.0853848e-06)
(2.0690875e-06 -0.00049246063 -4.0822865e-06)
(-2.9690111e-06 -0.00085479717 -5.7524123e-06)
(-7.6060011e-07 -0.00085489118 -5.7579808e-06)
(-1.69939e-07 -0.00085485861 -5.7580019e-06)
(1.6652686e-07 -0.00085484606 -5.7580013e-06)
(-3.3549455e-07 -0.00085484954 -5.7580042e-06)
(3.35479e-07 -0.00085484954 -5.758004e-06)
(-1.664768e-07 -0.00085484606 -5.7580014e-06)
(1.7006686e-07 -0.00085485861 -5.7580018e-06)
(7.6072678e-07 -0.00085489118 -5.7579807e-06)
(2.9690703e-06 -0.00085479717 -5.7524125e-06)
(-1.4154745e-06 -0.00084749041 -2.5812337e-06)
(-9.0378079e-07 -0.00084764806 -2.5850066e-06)
(-2.0583311e-07 -0.00084760471 -2.5850159e-06)
(1.8600983e-07 -0.00084757716 -2.585009e-06)
(-3.8966783e-07 -0.00084758492 -2.5850143e-06)
(3.8965228e-07 -0.00084758492 -2.5850141e-06)
(-1.8596002e-07 -0.00084757716 -2.585009e-06)
(2.0596052e-07 -0.00084760471 -2.5850157e-06)
(9.0390787e-07 -0.00084764806 -2.5850066e-06)
(1.4155328e-06 -0.00084749041 -2.5812339e-06)
(-6.2337276e-07 -0.00089286409 -9.9114933e-07)
(-9.4269021e-07 -0.00089304531 -9.9303655e-07)
(-2.1872193e-07 -0.00089301002 -9.9305306e-07)
(1.9054734e-07 -0.00089296672 -9.930439e-07)
(-4.0672387e-07 -0.00089297898 -9.9305011e-07)
(4.0670757e-07 -0.00089297898 -9.9305005e-07)
(-1.9049583e-07 -0.00089296672 -9.9304398e-07)
(2.188472e-07 -0.00089301001 -9.9305289e-07)
(9.4281814e-07 -0.00089304531 -9.9303658e-07)
(6.2342985e-07 -0.00089286409 -9.9114935e-07)
(-2.3593439e-07 -0.00085998492 -2.3604314e-07)
(-9.4278126e-07 -0.00086018599 -2.3689745e-07)
(-2.21957e-07 -0.00086016197 -2.3690405e-07)
(1.9160897e-07 -0.00086010212 -2.3689409e-07)
(-4.115637e-07 -0.0008601192 -2.3690042e-07)
(4.1154698e-07 -0.0008601192 -2.3690038e-07)
(-1.915567e-07 -0.00086010212 -2.3689427e-07)
(2.2208076e-07 -0.00086016197 -2.3690387e-07)
(9.4290963e-07 -0.00086018599 -2.3689746e-07)
(2.3599061e-07 -0.00085998492 -2.3604322e-07)
(-1.5631583e-07 -0.00088707242 -1.0993282e-07)
(-9.2881085e-07 -0.00088728452 -1.1039166e-07)
(-2.2230106e-07 -0.00088727681 -1.1040585e-07)
(1.9220667e-07 -0.00088720077 -1.1039548e-07)
(-4.1293699e-07 -0.00088722258 -1.1040182e-07)
(4.1291996e-07 -0.00088722258 -1.1040177e-07)
(-1.9215403e-07 -0.00088720077 -1.1039545e-07)
(2.224241e-07 -0.00088727681 -1.1040568e-07)
(9.2893945e-07 -0.00088728452 -1.1039165e-07)
(1.5637152e-07 -0.00088707242 -1.0993288e-07)
(-7.6827178e-08 -0.00086497354 1.3662418e-08)
(-9.1160329e-07 -0.00086519718 1.3360071e-08)
(-2.2140571e-07 -0.00086520411 1.335306e-08)
(1.9291901e-07 -0.00086511126 1.3363297e-08)
(-4.1348193e-07 -0.00086513813 1.3357211e-08)
(4.1346486e-07 -0.00086513813 1.3357188e-08)
(-1.9286626e-07 -0.00086511125 1.3363331e-08)
(2.2152866e-07 -0.00086520411 1.3353347e-08)
(9.1173173e-07 -0.00086519717 1.336005e-08)
(7.6882699e-08 -0.00086497354 1.3662289e-08)
(-7.8256414e-08 -0.00088312374 -2.7126078e-08)
(-8.930553e-07 -0.00088335808 -2.7387543e-08)
(-2.2050341e-07 -0.00088338193 -2.7401637e-08)
(1.9381536e-07 -0.00088327302 -2.7390499e-08)
(-4.1390424e-07 -0.00088330472 -2.7396948e-08)
(4.1388714e-07 -0.00088330472 -2.7396974e-08)
(-1.9376256e-07 -0.00088327301 -2.7390615e-08)
(2.2062594e-07 -0.00088338193 -2.7401326e-08)
(8.9318393e-07 -0.00088335808 -2.7387555e-08)
(7.8311904e-08 -0.00088312374 -2.7126189e-08)
(-3.5730159e-08 -0.00086818524 2.05415e-08)
(-8.7466862e-07 -0.00086842807 2.0318891e-08)
(-2.1929415e-07 -0.00086846772 2.0311055e-08)
(1.9486774e-07 -0.00086834167 2.0321393e-08)
(-4.1434566e-07 -0.00086837875 2.0315444e-08)
(4.1432866e-07 -0.00086837874 2.0315201e-08)
(-1.9481487e-07 -0.00086834167 2.0321341e-08)
(2.1941661e-07 -0.00086846771 2.0311125e-08)
(8.7479704e-07 -0.00086842807 2.0318734e-08)
(3.5785736e-08 -0.00086818524 2.0541395e-08)
(-3.4505455e-08 -0.00088059333 -1.5629341e-08)
(-8.560846e-07 -0.00088084732 -1.5839091e-08)
(-2.1827088e-07 -0.00088090357 -1.5853467e-08)
(1.9610845e-07 -0.00088076186 -1.5841789e-08)
(-4.1487245e-07 -0.00088080375 -1.5848406e-08)
(4.1485545e-07 -0.00088080375 -1.5848523e-08)
(-1.9605566e-07 -0.00088076186 -1.5841696e-08)
(2.1839331e-07 -0.00088090357 -1.5853193e-08)
(8.56213e-07 -0.00088084731 -1.5838906e-08)
(3.4561115e-08 -0.00088059333 -1.5629489e-08)
(-3.5074409e-10 -0.00087024559 1.4555884e-08)
(-8.3773909e-07 -0.00087050531 1.4374037e-08)
(-2.1703306e-07 -0.00087057872 1.4365885e-08)
(1.9748013e-07 -0.00087041923 1.4375755e-08)
(-4.154447e-07 -0.00087046696 1.4369884e-08)
(4.1542791e-07 -0.00087046696 1.4369801e-08)
(-1.9742743e-07 -0.00087041922 1.4375791e-08)
(2.171554e-07 -0.00087057872 1.4366146e-08)
(8.3786746e-07 -0.00087050531 1.4374342e-08)
(4.0638862e-10 -0.00087024559 1.455595e-08)
(6.9562991e-09 -0.00087901758 -1.0070488e-08)
(-8.193309e-07 -0.0008792893 -1.0235757e-08)
(-2.159669e-07 -0.00087937845 -1.0251327e-08)
(1.9907633e-07 -0.00087920421 -1.0238527e-08)
(-4.1614157e-07 -0.00087925653 -1.0245832e-08)
(4.1612481e-07 -0.00087925653 -1.0245841e-08)
(-1.990236e-07 -0.0008792042 -1.0238423e-08)
(2.1608921e-07 -0.00087937845 -1.0251052e-08)
(8.1945937e-07 -0.0008792893 -1.0235467e-08)
(-6.9008168e-09 -0.00087901758 -1.0070417e-08)
(3.6299737e-08 -0.00087150273 9.9029284e-09)
(-8.0112759e-07 -0.00087177648 9.7595412e-09)
(-2.147155e-07 -0.00087188495 9.7518917e-09)
(2.0076207e-07 -0.00087169154 9.760799e-09)
(-4.1685409e-07 -0.00087175052 9.755248e-09)
(4.1683757e-07 -0.00087175052 9.7551891e-09)
(-2.0070958e-07 -0.00087169153 9.7608033e-09)
(2.1483809e-07 -0.00087188495 9.7519496e-09)
(8.012554e-07 -0.00087177648 9.7596846e-09)
(-3.6244002e-08 -0.00087150274 9.9029744e-09)
(4.8339045e-08 -0.00087814729 -6.1252667e-09)
(-7.8286089e-07 -0.00087843528 -6.2443974e-09)
(-2.1362774e-07 -0.00087855757 -6.2622785e-09)
(2.0274812e-07 -0.00087835131 -6.2473724e-09)
(-4.1775417e-07 -0.00087841424 -6.2556128e-09)
(4.177377e-07 -0.00087841423 -6.2556228e-09)
(-2.0269541e-07 -0.0008783513 -6.2471944e-09)
(2.1374967e-07 -0.00087855756 -6.2621638e-09)
(7.8298923e-07 -0.00087843528 -6.2443987e-09)
(-4.8283522e-08 -0.0008781473 -6.1254844e-09)
(7.4129826e-08 -0.00087211749 6.3217819e-09)
(-7.6485404e-07 -0.00087240147 6.2147994e-09)
(-2.1236388e-07 -0.00087254686 6.2095611e-09)
(2.0472861e-07 -0.00087231862 6.2157883e-09)
(-4.1859578e-07 -0.00087238967 6.2113477e-09)
(4.1857964e-07 -0.00087238967 6.2112365e-09)
(-2.0467583e-07 -0.00087231861 6.2156609e-09)
(2.1248472e-07 -0.00087254686 6.2095876e-09)
(7.6498308e-07 -0.00087240147 6.2149322e-09)
(-7.4074633e-08 -0.0008721175 6.3215818e-09)
(9.0209509e-08 -0.00087790523 -2.8895109e-09)
(-7.4666992e-07 -0.00087820885 -2.9589328e-09)
(-2.1128084e-07 -0.00087836391 -2.9810341e-09)
(2.0716437e-07 -0.00087812676 -2.9620494e-09)
(-4.1975275e-07 -0.00087820022 -2.9721744e-09)
(4.1973675e-07 -0.00087820022 -2.9721956e-09)
(-2.0711174e-07 -0.00087812675 -2.9620557e-09)
(2.1140256e-07 -0.00087836391 -2.9811257e-09)
(7.4679786e-07 -0.00087820885 -2.958938e-09)
(-9.0154154e-08 -0.00087790524 -2.8896856e-09)
(1.127933e-07 -0.00087208267 3.0727687e-09)
(-7.2893898e-07 -0.00087237145 2.9983942e-09)
(-2.0999763e-07 -0.00087255668 2.9984387e-09)
(2.0938439e-07 -0.00087229185 2.999195e-09)
(-4.2068499e-07 -0.00087237622 2.9972737e-09)
(4.2066903e-07 -0.00087237622 2.9971653e-09)
(-2.0933185e-07 -0.00087229184 2.9993454e-09)
(2.1011977e-07 -0.00087255668 2.9986243e-09)
(7.2906639e-07 -0.00087237145 2.9984791e-09)
(-1.1273823e-07 -0.00087208268 3.0726418e-09)
(1.3312461e-07 -0.00087838979 4.0096177e-10)
(-7.1073501e-07 -0.00087871 3.8799981e-10)
(-2.0896036e-07 -0.00087889636 3.5697786e-10)
(2.1238117e-07 -0.00087863052 3.8343127e-10)
(-4.2219505e-07 -0.00087871401 3.6999673e-10)
(4.2217938e-07 -0.00087871401 3.6998517e-10)
(-2.1232852e-07 -0.00087863051 3.8362762e-10)
(2.0908189e-07 -0.00087889636 3.5694915e-10)
(7.1086239e-07 -0.00087871 3.8786401e-10)
(-1.3306927e-07 -0.00087838979 4.0051158e-10)
(1.5185529e-07 -0.00087119682 -6.5945607e-10)
(-6.9341255e-07 -0.00087148222 -7.0958223e-10)
(-2.0764062e-07 -0.00087171214 -6.9833752e-10)
(2.1471381e-07 -0.00087140729 -7.0814701e-10)
(-4.2312275e-07 -0.00087150702 -7.0534987e-10)
(4.2310708e-07 -0.00087150702 -7.0538276e-10)
(-2.1466125e-07 -0.00087140728 -7.0790394e-10)
(2.0776116e-07 -0.00087171213 -6.9804593e-10)
(6.9354138e-07 -0.00087148222 -7.0958931e-10)
(-1.5180065e-07 -0.00087119682 -6.599019e-10)
(1.7782077e-07 -0.00087992511 4.6719164e-09)
(-6.7499997e-07 -0.00088026597 4.7277355e-09)
(-2.0671473e-07 -0.00088048001 4.6802417e-09)
(2.1848524e-07 -0.0008801896 4.7217506e-09)
(-4.2516869e-07 -0.00088028179 4.7015028e-09)
(4.2515342e-07 -0.00088028178 4.7014338e-09)
(-2.1843257e-07 -0.00088018959 4.7215593e-09)
(2.0683552e-07 -0.00088048001 4.6800863e-09)
(6.7512767e-07 -0.00088026597 4.7276883e-09)
(-1.7776592e-07 -0.00087992512 4.6717961e-09)
(1.9063805e-07 -0.00086898462 -5.9774896e-09)
(-6.5833935e-07 -0.0008692537 -6.0185413e-09)
(-2.0530787e-07 -0.00086953656 -5.9846779e-09)
(2.2066241e-07 -0.00086918527 -6.0144049e-09)
(-4.2588346e-07 -0.00086930377 -6.0028592e-09)
(4.2586828e-07 -0.00086930377 -6.002776e-09)
(-2.2060982e-07 -0.00086918526 -6.0144658e-09)
(2.0542837e-07 -0.00086953656 -5.9846271e-09)
(6.5846741e-07 -0.0008692537 -6.0186848e-09)
(-1.9058343e-07 -0.00086898463 -5.9777777e-09)
(2.2542497e-07 -0.00088317526 1.1276168e-08)
(-6.3936604e-07 -0.00088354645 1.1422738e-08)
(-2.0460678e-07 -0.00088378048 1.1344193e-08)
(2.2562285e-07 -0.00088347336 1.1413188e-08)
(-4.2881156e-07 -0.00088357124 1.1380724e-08)
(4.2879662e-07 -0.00088357124 1.1380632e-08)
(-2.2556996e-07 -0.00088347335 1.141324e-08)
(2.0472688e-07 -0.00088378048 1.1344158e-08)
(6.3949401e-07 -0.00088354645 1.1422623e-08)
(-2.2537062e-07 -0.00088317527 1.1276048e-08)
(2.2797313e-07 -0.00086454578 -1.4570447e-08)
(-6.238344e-07 -0.0008647774 -1.4630211e-08)
(-2.0300515e-07 -0.00086512732 -1.4554131e-08)
(2.2710031e-07 -0.00086471806 -1.462137e-08)
(-4.2888195e-07 -0.00086486105 -1.4592772e-08)
(4.2886704e-07 -0.00086486105 -1.4592716e-08)
(-2.2704747e-07 -0.00086471805 -1.4620954e-08)
(2.0312576e-07 -0.00086512732 -1.4553947e-08)
(6.2396144e-07 -0.00086477739 -1.4630204e-08)
(-2.2791871e-07 -0.00086454578 -1.4570713e-08)
(2.7775367e-07 -0.00088933583 2.2337498e-08)
(-6.0364707e-07 -0.00088975689 2.2613114e-08)
(-2.0273118e-07 -0.00088999603 2.2477627e-08)
(2.3404251e-07 -0.00088968657 2.2597133e-08)
(-4.3335001e-07 -0.0008897842 2.2541792e-08)
(4.3333562e-07 -0.00088978419 2.2541732e-08)
(-2.339897e-07 -0.00088968656 2.259719e-08)
(2.0285182e-07 -0.00088999602 2.2477486e-08)
(6.0377371e-07 -0.00088975689 2.2613325e-08)
(-2.7769945e-07 -0.00088933584 2.2337196e-08)
(2.6184245e-07 -0.00085631914 -2.9107417e-08)
(-5.9010342e-07 -0.00085647879 -2.9233889e-08)
(-2.0071638e-07 -0.00085691962 -2.9081592e-08)
(2.3376229e-07 -0.00085643229 -2.921626e-08)
(-4.319239e-07 -0.00085660934 -2.9157531e-08)
(4.319097e-07 -0.00085660934 -2.91575e-08)
(-2.3370972e-07 -0.00085643227 -2.9216175e-08)
(2.0083695e-07 -0.00085691961 -2.9081834e-08)
(5.9022951e-07 -0.00085647879 -2.923354e-08)
(-2.6178806e-07 -0.00085631915 -2.910756e-08)
(3.3774824e-07 -0.0009004159 4.119051e-08)
(-5.6752581e-07 -0.00090092252 4.1659171e-08)
(-2.0123004e-07 -0.00090113998 4.1423056e-08)
(2.4417859e-07 -0.0009008533 4.1631379e-08)
(-4.3916311e-07 -0.00090093982 4.1536213e-08)
(4.3914921e-07 -0.00090093982 4.1536223e-08)
(-2.4412586e-07 -0.00090085329 4.1631583e-08)
(2.0135036e-07 -0.00090113998 4.1422908e-08)
(5.6765189e-07 -0.00090092252 4.1659388e-08)
(-3.3769416e-07 -0.00090041592 4.119038e-08)
(2.8888272e-07 -0.0008417577 -5.3711574e-08)
(-5.5750524e-07 -0.0008417901 -5.3982678e-08)
(-1.9838004e-07 -0.0008423609 -5.369985e-08)
(2.4015332e-07 -0.0008417619 -5.3950795e-08)
(-4.3462502e-07 -0.00084198864 -5.3839683e-08)
(4.3461124e-07 -0.00084198864 -5.3839599e-08)
(-2.4010082e-07 -0.00084176189 -5.3950619e-08)
(1.9849989e-07 -0.00084236089 -5.3699765e-08)
(5.5763166e-07 -0.00084179009 -5.3982696e-08)
(-2.8882923e-07 -0.00084175771 -5.3711916e-08)
(4.1002652e-07 -0.00091959662 7.2857675e-08)
(-5.304763e-07 -0.00092024891 7.3618684e-08)
(-2.0032017e-07 -0.00092039977 7.3213977e-08)
(2.5676775e-07 -0.00092017726 7.3572192e-08)
(-4.4687838e-07 -0.00092023435 7.3409415e-08)
(4.4686509e-07 -0.00092023434 7.3409477e-08)
(-2.5671491e-07 -0.00092017725 7.357208e-08)
(2.0044023e-07 -0.00092039977 7.3214004e-08)
(5.3060183e-07 -0.00092024891 7.3618591e-08)
(-4.0997324e-07 -0.00091959664 7.2857378e-08)
(3.0380611e-07 -0.00081695481 -9.4389233e-08)
(-5.2663286e-07 -0.00081677504 -9.4923742e-08)
(-1.9586048e-07 -0.00081753672 -9.4427735e-08)
(2.4541071e-07 -0.00081677319 -9.486792e-08)
(-4.362932e-07 -0.0008170739 -9.4671318e-08)
(4.3627992e-07 -0.0008170739 -9.4671282e-08)
(-2.4535823e-07 -0.00081677317 -9.486801e-08)
(1.9598107e-07 -0.00081753671 -9.4427681e-08)
(5.2675694e-07 -0.00081677503 -9.4923938e-08)
(-3.0375252e-07 -0.00081695482 -9.4389667e-08)
(5.0146095e-07 -0.00095159144 1.2436707e-07)
(-4.9167062e-07 -0.00095248282 1.2556271e-07)
(-2.003313e-07 -0.00095249737 1.2489279e-07)
(2.7300389e-07 -0.00095240255 1.2548717e-07)
(-4.5750012e-07 -0.00095240169 1.2521802e-07)
(4.5748733e-07 -0.00095240168 1.2521795e-07)
(-2.7295085e-07 -0.00095240254 1.2548688e-07)
(2.0045118e-07 -0.00095249736 1.2489288e-07)
(4.9179575e-07 -0.00095248283 1.255631e-07)
(-5.0140845e-07 -0.00095159146 1.2436711e-07)
(2.9889026e-07 -0.00077633518 -1.5915961e-07)
(-4.9840904e-07 -0.00077582067 -1.6012025e-07)
(-1.9290791e-07 -0.0007768618 -1.5929886e-07)
(2.4813862e-07 -0.00077585654 -1.6002742e-07)
(-4.3578593e-07 -0.00077626654 -1.5970042e-07)
(4.3577307e-07 -0.00077626654 -1.5970067e-07)
(-2.4808634e-07 -0.00077585652 -1.6002749e-07)
(1.9302757e-07 -0.0007768618 -1.5929868e-07)
(4.9853328e-07 -0.00077582067 -1.6011977e-07)
(-2.9883718e-07 -0.00077633519 -1.5915961e-07)
(6.2155269e-07 -0.0010028604 2.0461073e-07)
(-4.4987987e-07 -0.0010041242 2.0642786e-07)
(-2.017502e-07 -0.0010039032 2.0536873e-07)
(2.9470069e-07 -0.0010040257 2.0630814e-07)
(-4.7254672e-07 -0.0010039263 2.058825e-07)
(4.7253487e-07 -0.0010039263 2.0588222e-07)
(-2.9464778e-07 -0.0010040257 2.063078e-07)
(2.0186935e-07 -0.0010039032 2.0536851e-07)
(4.5000435e-07 -0.0010041242 2.0642831e-07)
(-6.2150039e-07 -0.0010028604 2.046108e-07)
(2.637915e-07 -0.00071257745 -2.575834e-07)
(-4.7417942e-07 -0.00071156293 -2.5917124e-07)
(-1.8911356e-07 -0.00071300274 -2.5789063e-07)
(2.4625622e-07 -0.00071165228 -2.5902546e-07)
(-4.3137733e-07 -0.00071221891 -2.5851484e-07)
(4.313653e-07 -0.00071221891 -2.5851494e-07)
(-2.4620411e-07 -0.00071165226 -2.5902589e-07)
(1.8923269e-07 -0.00071300273 -2.5789129e-07)
(4.7430241e-07 -0.00071156292 -2.5917155e-07)
(-2.6373901e-07 -0.00071257746 -2.5758361e-07)
(7.8242232e-07 -0.0010815217 3.2353077e-07)
(-4.033682e-07 -0.0010833329 3.261881e-07)
(-2.0528411e-07 -0.0010827474 3.2459939e-07)
(3.2441717e-07 -0.0010832028 3.2600605e-07)
(-4.9416586e-07 -0.0010829521 3.2536845e-07)
(4.941546e-07 -0.0010829521 3.2536834e-07)
(-3.2436422e-07 -0.0010832028 3.2600625e-07)
(2.054026e-07 -0.0010827474 3.2459975e-07)
(4.0349234e-07 -0.0010833329 3.2618836e-07)
(-7.8237069e-07 -0.0010815217 3.2353056e-07)
(1.8581903e-07 -0.00061687686 -3.9964443e-07)
(-4.5578122e-07 -0.00061515639 -4.020814e-07)
(-1.8386829e-07 -0.00061714213 -4.0020332e-07)
(2.3690859e-07 -0.00061531948 -4.0186518e-07)
(-4.2067828e-07 -0.00061610112 -4.0111454e-07)
(4.2066677e-07 -0.00061610112 -4.011147e-07)
(-2.3685681e-07 -0.00061531945 -4.0186559e-07)
(1.8398682e-07 -0.00061714213 -4.0020395e-07)
(4.5590307e-07 -0.00061515639 -4.0208178e-07)
(-1.8576688e-07 -0.00061687688 -3.9964469e-07)
(9.9832381e-07 -0.0011969306 4.907943e-07)
(-3.4984474e-07 -0.0011995012 4.9452079e-07)
(-2.1189274e-07 -0.0011983971 4.9226917e-07)
(3.654935e-07 -0.001199322 4.9425997e-07)
(-5.2518005e-07 -0.0011988574 4.9335536e-07)
(5.2517e-07 -0.0011988574 4.9335507e-07)
(-3.6544037e-07 -0.001199322 4.9425968e-07)
(2.1201053e-07 -0.0011983971 4.922691e-07)
(3.4996809e-07 -0.0011995012 4.9452096e-07)
(-9.9827293e-07 -0.0011969306 4.907942e-07)
(5.0537168e-08 -0.00047948475 -5.9436147e-07)
(-4.4558749e-07 -0.00047681765 -5.9787005e-07)
(-1.7632555e-07 -0.00047951836 -5.9526983e-07)
(2.1646054e-07 -0.00047707932 -5.9756588e-07)
(-4.006226e-07 -0.00047814276 -5.9652467e-07)
(4.0061133e-07 -0.00047814276 -5.9652477e-07)
(-2.1640915e-07 -0.00047707929 -5.9756576e-07)
(1.7644334e-07 -0.00047951836 -5.9526969e-07)
(4.4570834e-07 -0.00047681764 -5.9787029e-07)
(-5.0485269e-08 -0.00047948476 -5.9436176e-07)
(1.2850198e-06 -0.0013590787 7.1449869e-07)
(-2.8641913e-07 -0.0013626509 7.195147e-07)
(-2.2282845e-07 -0.0013608561 7.1648761e-07)
(4.2200973e-07 -0.001362401 7.1915757e-07)
(-5.690755e-07 -0.0013616533 7.179416e-07)
(5.6906639e-07 -0.0013616532 7.1794151e-07)
(-4.2195604e-07 -0.001362401 7.1915742e-07)
(2.2294524e-07 -0.0013608561 7.1648754e-07)
(2.8654193e-07 -0.0013626509 7.1951514e-07)
(-1.2849698e-06 -0.0013590787 7.1449858e-07)
(-1.5765612e-07 -0.00029031026 -8.4872096e-07)
(-4.4653241e-07 -0.00028642842 -8.5350787e-07)
(-1.6536865e-07 -0.00029002761 -8.5008819e-07)
(1.8055713e-07 -0.00028681803 -8.5309993e-07)
(-3.6751207e-07 -0.00028823536 -8.5173009e-07)
(3.6750127e-07 -0.00028823536 -8.5173016e-07)
(-1.8050622e-07 -0.00028681799 -8.5310004e-07)
(1.6548579e-07 -0.00029002761 -8.5008821e-07)
(4.4665152e-07 -0.00028642841 -8.5350793e-07)
(1.5770778e-07 -0.00029031027 -8.4872126e-07)
(1.6593457e-06 -0.0015780411 1.0004164e-06)
(-2.0957685e-07 -0.00158288 1.0069232e-06)
(-2.3967022e-07 -0.0015802119 1.0030409e-06)
(4.9870784e-07 -0.0015825339 1.0064561e-06)
(-6.2995713e-07 -0.0015814304 1.0048966e-06)
(6.2994915e-07 -0.0015814303 1.0048965e-06)
(-4.986541e-07 -0.0015825339 1.0064559e-06)
(2.3978641e-07 -0.0015802119 1.0030406e-06)
(2.0969913e-07 -0.0015828801 1.0069233e-06)
(-1.6592968e-06 -0.0015780412 1.0004163e-06)
(-4.5524711e-07 -3.939009e-05 -1.1672616e-06)
(-4.621393e-07 -3.4003722e-05 -1.1735113e-06)
(-1.4957219e-07 -3.8693422e-05 -1.1692102e-06)
(1.2420437e-07 -3.4555051e-05 -1.1729879e-06)
(-3.1708045e-07 -3.6401056e-05 -1.171264e-06)
(3.1707031e-07 -3.6401061e-05 -1.1712637e-06)
(-1.241541e-07 -3.4555015e-05 -1.1729883e-06)
(1.4968822e-07 -3.8693424e-05 -1.1692107e-06)
(4.6225668e-07 -3.4003713e-05 -1.1735114e-06)
(4.5529855e-07 -3.9390107e-05 -1.167262e-06)
(2.1391209e-06 -0.0018636067 1.3518941e-06)
(-1.1514523e-07 -0.001869996 1.3600708e-06)
(-2.6436288e-07 -0.0018662662 1.3552883e-06)
(6.0092806e-07 -0.0018695236 1.3594842e-06)
(-7.1250779e-07 -0.0018679906 1.3575626e-06)
(7.1250093e-07 -0.0018679906 1.3575627e-06)
(-6.0087414e-07 -0.0018695236 1.3594842e-06)
(2.6447812e-07 -0.0018662662 1.3552884e-06)
(1.1526706e-07 -0.001869996 1.3600713e-06)
(-2.1390731e-06 -0.0018636067 1.351894e-06)
(-8.5966947e-07 0.00028284202 -1.5522292e-06)
(-4.9656391e-07 0.00029004126 -1.5601057e-06)
(-1.2715049e-07 0.00028406407 -1.5548944e-06)
(4.1832423e-08 0.00028928986 -1.5594601e-06)
(-2.4453412e-07 0.00028693953 -1.557369e-06)
(2.4452421e-07 0.00028693952 -1.557369e-06)
(-4.1783197e-08 0.0002892899 -1.5594605e-06)
(1.2726579e-07 0.00028406406 -1.5548946e-06)
(4.966793e-07 0.00029004127 -1.5601057e-06)
(8.5972077e-07 0.000282842 -1.5522297e-06)
(2.7433566e-06 -0.0022250988 1.7701944e-06)
(1.7504628e-09 -0.0022333387 1.7802023e-06)
(-2.992656e-07 -0.0022283561 1.7745065e-06)
(7.345758e-07 -0.0022327054 1.7794924e-06)
(-8.2196064e-07 -0.0022306695 1.777201e-06)
(8.2195547e-07 -0.0022306695 1.777201e-06)
(-7.3452147e-07 -0.0022327054 1.779492e-06)
(2.993797e-07 -0.0022283561 1.7745057e-06)
(-1.6290752e-09 -0.0022333388 1.7802022e-06)
(-2.7433103e-06 -0.0022250988 1.7701943e-06)
(-1.3895973e-06 0.00068545219 -2.0040346e-06)
(-5.5464872e-07 0.00069479044 -2.0136869e-06)
(-9.5899711e-08 0.00068732536 -2.0075637e-06)
(-7.2664579e-08 0.00069379556 -2.0129162e-06)
(-1.4456438e-07 0.00069086563 -2.0104553e-06)
(1.4455448e-07 0.00069086562 -2.0104553e-06)
(7.2712881e-08 0.0006937956 -2.012916e-06)
(9.6013339e-08 0.00068732536 -2.0075634e-06)
(5.5476263e-07 0.00069479045 -2.0136865e-06)
(1.3896484e-06 0.00068545217 -2.0040344e-06)
(3.4926281e-06 -0.0026713311 2.255004e-06)
(1.4674946e-07 -0.0026817387 2.2669922e-06)
(-3.472222e-07 -0.00267531 2.2603947e-06)
(9.0612328e-07 -0.0026809043 2.2661596e-06)
(-9.6408842e-07 -0.0026782928 2.2635014e-06)
(9.6408486e-07 -0.0026782928 2.2635013e-06)
(-9.0606861e-07 -0.0026809043 2.2661593e-06)
(3.4733507e-07 -0.00267531 2.2603942e-06)
(-1.4662796e-07 -0.0026817387 2.2669921e-06)
(-3.4925834e-06 -0.0026713312 2.2550038e-06)
(-2.0653467e-06 0.0011770051 -2.5217627e-06)
(-6.4199726e-07 0.0011888272 -2.5333309e-06)
(-5.3116265e-08 0.0011796707 -2.5263155e-06)
(-2.2591193e-07 0.0011875396 -2.5324357e-06)
(-1.1333201e-08 0.0011839559 -2.5296125e-06)
(1.1323681e-08 0.0011839559 -2.5296124e-06)
(2.2595918e-07 0.0011875396 -2.5324359e-06)
(5.3228464e-08 0.0011796707 -2.5263157e-06)
(6.4210805e-07 0.0011888272 -2.5333302e-06)
(2.0653981e-06 0.001177005 -2.5217624e-06)
(4.4095011e-06 -0.0032106363 2.8049088e-06)
(3.2633427e-07 -0.0032235469 2.81902e-06)
(-4.1165251e-07 -0.0032154763 2.8115533e-06)
(1.1226279e-06 -0.0032224651 2.81807e-06)
(-1.1451988e-06 -0.0032192061 2.8150559e-06)
(1.1451967e-06 -0.0032192061 2.8150558e-06)
(-1.1225727e-06 -0.0032224651 2.8180702e-06)
(4.1176395e-07 -0.0032154763 2.8115534e-06)
(-3.2621266e-07 -0.0032235469 2.8190199e-06)
(-4.409458e-06 -0.0032106364 2.8049086e-06)
(-2.9092944e-06 0.0017656126 -3.1035841e-06)
(-7.6505029e-07 0.0017802843 -3.1172051e-06)
(4.4916369e-09 0.0017692291 -3.1093355e-06)
(-4.2506529e-07 0.0017786475 -3.1161928e-06)
(1.6155493e-07 0.0017743377 -3.1130181e-06)
(-1.6156466e-07 0.0017743376 -3.1130179e-06)
(4.2511178e-07 0.0017786476 -3.116193e-06)
(-4.381148e-09 0.0017692291 -3.1093355e-06)
(7.6515849e-07 0.0017802843 -3.1172044e-06)
(2.9093453e-06 0.0017656126 -3.103584e-06)
(5.5189472e-06 -0.0038509261 3.4177282e-06)
(5.4793959e-07 -0.0038666964 3.4341024e-06)
(-4.9667057e-07 -0.0038567841 3.4258193e-06)
(1.3917483e-06 -0.003865314 3.4330481e-06)
(-1.372141e-06 -0.0038613358 3.4296939e-06)
(1.3721408e-06 -0.0038613358 3.4296936e-06)
(-1.3916927e-06 -0.003865314 3.4330484e-06)
(4.9678078e-07 -0.0038567841 3.4258195e-06)
(-5.4781839e-07 -0.0038666965 3.4341021e-06)
(-5.5189061e-06 -0.0038509262 3.4177275e-06)
(-3.9462898e-06 0.0024590009 -3.747022e-06)
(-9.3118054e-07 0.0024769119 -3.7628328e-06)
(8.0917121e-08 0.0024637455 -3.7541592e-06)
(-6.7785216e-07 0.0024748611 -3.761715e-06)
(3.810934e-07 0.0024697538 -3.758205e-06)
(-3.8110343e-07 0.0024697538 -3.7582048e-06)
(6.7789726e-07 0.0024748611 -3.7617151e-06)
(-8.0808257e-08 0.0024637455 -3.7541593e-06)
(9.3128559e-07 0.0024769119 -3.7628321e-06)
(3.9463405e-06 0.0024590009 -3.7470218e-06)
(6.8487706e-06 -0.0045997611 4.0907318e-06)
(8.2007672e-07 -0.0046187728 4.1095172e-06)
(-6.0723254e-07 -0.0046068123 4.1004731e-06)
(1.7217554e-06 -0.0046170278 4.1083742e-06)
(-1.6523428e-06 -0.0046122594 4.1046961e-06)
(1.6523449e-06 -0.0046122594 4.1046957e-06)
(-1.7216995e-06 -0.0046170278 4.1083743e-06)
(6.0734129e-07 -0.0046068123 4.1004731e-06)
(-8.1995569e-07 -0.0046187728 4.1095172e-06)
(-6.8487318e-06 -0.0045997612 4.0907316e-06)
(-5.2040916e-06 0.0032645794 -4.4491417e-06)
(-1.1487964e-06 0.0032861489 -4.4672833e-06)
(1.8099472e-07 0.0032706487 -4.4578692e-06)
(-9.9263127e-07 0.0032836077 -4.466078e-06)
(6.5490293e-07 0.003277632 -4.4622521e-06)
(-6.5491353e-07 0.003277632 -4.4622514e-06)
(9.9267446e-07 0.0032836078 -4.4660781e-06)
(-1.8088736e-07 0.0032706487 -4.4578689e-06)
(1.1488985e-06 0.0032861489 -4.4672827e-06)
(5.2041418e-06 0.0032645794 -4.4491416e-06)
(8.4301645e-06 -0.0054644178 4.8208275e-06)
(1.1524042e-06 -0.0054870812 4.8421773e-06)
(-7.49369e-07 -0.0054728578 4.8324394e-06)
(2.1215988e-06 -0.005484902 4.8409677e-06)
(-1.9939026e-06 -0.0054792728 4.8369855e-06)
(1.9939072e-06 -0.0054792728 4.836985e-06)
(-2.1215421e-06 -0.005484902 4.8409679e-06)
(7.4947628e-07 -0.0054728578 4.832439e-06)
(-1.1522844e-06 -0.0054870813 4.8421769e-06)
(-8.430127e-06 -0.0054644178 4.8208272e-06)
(-6.7138534e-06 0.0041895049 -5.2067404e-06)
(-1.4274827e-06 0.004215185 -5.2273608e-06)
(3.1057361e-07 0.0041971186 -5.2172801e-06)
(-1.3784477e-06 0.0042120648 -5.2260925e-06)
(9.9125624e-07 0.00420515 -5.2219718e-06)
(-9.9126762e-07 0.00420515 -5.2219712e-06)
(1.3784891e-06 0.0042120648 -5.2260927e-06)
(-3.1046865e-07 0.0041971186 -5.2172798e-06)
(1.4275805e-06 0.004215185 -5.2273604e-06)
(6.7139044e-06 0.0041895049 -5.20674e-06)
(1.0298201e-05 -0.00645195 5.6047372e-06)
(1.5559828e-06 -0.0064787092 5.6288128e-06)
(-9.3034802e-07 -0.0064619971 5.6184612e-06)
(2.6008839e-06 -0.0064760117 5.6275678e-06)
(-2.4055946e-06 -0.0064694519 5.6233024e-06)
(2.405602e-06 -0.0064694519 5.623302e-06)
(-2.6008271e-06 -0.0064760118 5.627568e-06)
(9.3045389e-07 -0.0064619971 5.6184606e-06)
(-1.5558631e-06 -0.0064787092 5.6288129e-06)
(-1.0298166e-05 -0.0064519501 5.6047372e-06)
(-8.5106524e-06 0.0052407385 -6.0164892e-06)
(-1.7781654e-06 0.0052710205 -6.0397474e-06)
(4.7673711e-07 0.0052501425 -6.0290806e-06)
(-1.8450728e-06 0.0052672178 -6.0384471e-06)
(1.3991146e-06 0.0052592936 -6.0340547e-06)
(-1.3991267e-06 0.0052592936 -6.0340538e-06)
(1.8451117e-06 0.0052672179 -6.0384479e-06)
(-4.7663408e-07 0.0052501425 -6.0290812e-06)
(1.7782589e-06 0.0052710205 -6.0397474e-06)
(8.5107033e-06 0.0052407384 -6.0164893e-06)
(1.2492457e-05 -0.0075692425 6.4390702e-06)
(2.0434954e-06 -0.0076005797 6.4660442e-06)
(-1.1589352e-06 -0.0075811396 6.455168e-06)
(3.1699318e-06 -0.0075972657 6.4648039e-06)
(-2.8969232e-06 -0.0075897052 6.4602781e-06)
(2.8969334e-06 -0.0075897052 6.4602776e-06)
(-3.1698741e-06 -0.0075972657 6.4648041e-06)
(1.1590393e-06 -0.0075811397 6.455168e-06)
(-2.0433748e-06 -0.0076005798 6.4660445e-06)
(-1.2492425e-05 -0.0075692426 6.4390705e-06)
(-1.0634006e-05 0.006425094 -6.8748995e-06)
(-2.2133045e-06 0.0064605155 -6.9009655e-06)
(6.8806231e-07 0.0064365638 -6.8898044e-06)
(-2.4030277e-06 0.0064559095 -6.899675e-06)
(1.8881775e-06 0.0064469055 -6.8950322e-06)
(-1.8881912e-06 0.0064469055 -6.8950316e-06)
(2.4030647e-06 0.0064559096 -6.8996753e-06)
(-6.8796234e-07 0.0064365638 -6.8898044e-06)
(2.2133934e-06 0.0064605155 -6.9009658e-06)
(1.0634057e-05 0.006425094 -6.8748999e-06)
(1.5057637e-05 -0.0088230553 7.320176e-06)
(2.6295363e-06 -0.0088594975 7.3502329e-06)
(-1.445702e-06 -0.0088370734 7.3389327e-06)
(3.8398394e-06 -0.0088554513 7.3490471e-06)
(-3.4781546e-06 -0.00884682 7.344284e-06)
(3.4781683e-06 -0.00884682 7.3442834e-06)
(-3.8397805e-06 -0.0088554513 7.3490476e-06)
(1.4458043e-06 -0.0088370734 7.3389327e-06)
(-2.6294154e-06 -0.0088594976 7.3502333e-06)
(-1.5057608e-05 -0.0088230554 7.3201762e-06)
(-1.3128411e-05 0.00774928 -7.7781017e-06)
(-2.7471423e-06 0.0077904322 -7.8071581e-06)
(9.5493433e-07 0.0077631246 -7.7956022e-06)
(-3.0636204e-06 0.0077848813 -7.8059273e-06)
(2.4689466e-06 0.0077747274 -7.8010575e-06)
(-2.4689621e-06 0.0077747274 -7.8010569e-06)
(3.0636545e-06 0.0077848813 -7.8059278e-06)
(-9.5483731e-07 0.0077631246 -7.795602e-06)
(2.7472258e-06 0.0077904322 -7.8071582e-06)
(1.3128463e-05 0.00774928 -7.7781021e-06)
(1.8044271e-05 -0.010220061 8.2439252e-06)
(3.3309562e-06 -0.010262188 8.2772623e-06)
(-1.8034022e-06 -0.010236502 8.2656494e-06)
(4.6225284e-06 -0.010257273 8.2761947e-06)
(-4.1603599e-06 -0.0102475 8.2712162e-06)
(4.1603772e-06 -0.0102475 8.2712155e-06)
(-4.6224682e-06 -0.010257273 8.2761949e-06)
(1.8035029e-06 -0.010236502 8.2656493e-06)
(-3.3308349e-06 -0.010262188 8.2772626e-06)
(-1.8044245e-05 -0.010220061 8.2439255e-06)
(-1.60441e-05 0.0092199342 -8.7217028e-06)
(-3.3960416e-06 0.0092674694 -8.7539448e-06)
(1.2899138e-06 0.0092364999 -8.7421043e-06)
(-3.838998e-06 0.0092608075 -8.7528365e-06)
(3.152779e-06 0.0092494334 -8.747762e-06)
(-3.1527966e-06 0.0092494334 -8.7477611e-06)
(3.8390293e-06 0.0092608075 -8.7528371e-06)
(-1.2898201e-06 0.0092364999 -8.742104e-06)
(3.3961193e-06 0.0092674694 -8.7539451e-06)
(1.6044151e-05 0.0092199341 -8.7217032e-06)
(2.1509581e-05 -0.011766872 9.2056594e-06)
(4.1672367e-06 -0.011815325 9.2424869e-06)
(-2.2474215e-06 -0.011786077 9.2306853e-06)
(5.5307675e-06 -0.011809382 9.2416156e-06)
(-4.9554598e-06 -0.011798396 9.2364433e-06)
(4.9554812e-06 -0.011798396 9.2364423e-06)
(-5.5307063e-06 -0.011809382 9.2416157e-06)
(2.2475203e-06 -0.011786077 9.2306855e-06)
(-4.1671148e-06 -0.011815325 9.2424881e-06)
(-2.1509558e-05 -0.011766872 9.2056603e-06)
(-1.9438038e-05 0.01084365 -9.7007859e-06)
(-4.1789409e-06 0.01089829 -9.7364223e-06)
(1.7081853e-06 0.010863324 -9.7244187e-06)
(-4.7422124e-06 0.010890322 -9.7355138e-06)
(3.9519327e-06 0.010877657 -9.7302553e-06)
(-3.9519528e-06 0.010877657 -9.7302542e-06)
(4.7422409e-06 0.010890322 -9.7355141e-06)
(-1.708095e-06 0.010863324 -9.7244188e-06)
(4.1790121e-06 0.01089829 -9.736423e-06)
(1.943809e-05 0.01084365 -9.7007869e-06)