/*--------------------------------*- C++ -*----------------------------------*\
  =========                 |
  \\      /  F ield         | OpenFOAM: The Open Source CFD Toolbox
   \\    /   O peration     | Website:  https://openfoam.org
    \\  /    A nd           | Version:  8
     \\/     M anipulation  |
\*---------------------------------------------------------------------------*/
FoamFile
{
    version     2.0;
    format      ascii;
    class       volScalarField;
    location    "1.500023";
    object      alphat;
}
// * * * * * * * * * * * * * * * * * * * * * * * * * * * * * * * * * * * * * //

dimensions      [1 -1 -1 0 0 0 0];

internalField   nonuniform List<scalar> 
6800
(
0.0327959
0.10256
0.104256
0.0971249
0.0810691
0.0582084
0.0505987
0.0443483
0.0351983
0.0374155
0.0313735
0.0832206
0.0750518
0.0515677
0.0525315
0.0536423
0.0495187
0.0432347
0.0359413
0.0211017
0.0293617
0.0518093
0.0479676
0.05218
0.057705
0.0611737
0.0490217
0.0288341
0.0160835
0.0119153
0.0256409
0.0437152
0.0468572
0.0587031
0.0652918
0.0444234
0.0223544
0.0146186
0.0116034
0.0106138
0.0292294
0.0439631
0.0503213
0.0679821
0.0544375
0.0269434
0.0163091
0.0128556
0.0113587
0.0105983
0.0278733
0.0422809
0.060351
0.0795131
0.0372558
0.0201856
0.0144029
0.0126732
0.0111372
0.0101908
0.0313682
0.0481699
0.0769219
0.0540672
0.0240295
0.0139371
0.0123108
0.0110312
0.00972013
0.00926152
0.0305076
0.0566887
0.082501
0.0414748
0.0189274
0.015174
0.0134348
0.0115148
0.00999904
0.00943939
0.0311595
0.0674738
0.0781935
0.0287836
0.0171419
0.0139591
0.0111498
0.00972451
0.00897003
0.00874444
0.0313638
0.0803761
0.0689606
0.0274431
0.0154638
0.0134443
0.0120081
0.0103148
0.00923993
0.00896561
0.0309941
0.263072
0.435987
0.522138
0.566106
0.58715
0.598827
0.608246
0.617864
0.628284
0.0306891
0.257678
0.426407
0.509436
0.551591
0.569531
0.578238
0.584348
0.590255
0.597074
0.030165
0.246632
0.40606
0.484969
0.521731
0.534569
0.537418
0.536891
0.536222
0.53795
0.0293832
0.231075
0.377559
0.449693
0.478143
0.483248
0.477573
0.467596
0.457256
0.451207
0.0283404
0.212041
0.342286
0.403412
0.421791
0.417431
0.402008
0.380936
0.358615
0.336769
0.0271788
0.193921
0.304535
0.349438
0.352401
0.334578
0.310323
0.285081
0.265051
0.225293
0.0263558
0.18135
0.266365
0.281795
0.264969
0.237515
0.217266
0.197419
0.185993
0.177492
0.0253244
0.178468
0.213739
0.206074
0.183644
0.163122
0.153445
0.158682
0.155449
0.126254
0.026396
0.147346
0.161314
0.150704
0.131839
0.137399
0.133043
0.11745
0.0983338
0.0545633
0.0248756
0.134594
0.124911
0.113185
0.115191
0.103647
0.0784301
0.058112
0.0444175
0.0350947
0.644146
0.665593
0.685962
0.705619
0.724446
0.742282
0.758974
0.774447
0.788671
0.80169
0.813433
0.823785
0.832601
0.839773
0.845429
0.849636
0.852427
0.853801
0.853859
0.852688
0.850424
0.847176
0.843061
0.838215
0.832825
0.827099
0.821232
0.815398
0.809697
0.804237
0.799138
0.794523
0.790152
0.785894
0.781705
0.777685
0.773881
0.7703
0.766919
0.763703
0.760606
0.757584
0.754585
0.751567
0.748492
0.745332
0.742067
0.738684
0.735174
0.731536
0.727778
0.72391
0.719947
0.715909
0.711817
0.707694
0.703562
0.699447
0.695374
0.691366
0.687446
0.683633
0.679945
0.676395
0.672994
0.669747
0.666658
0.663726
0.660946
0.658311
0.655812
0.653436
0.651171
0.649003
0.646915
0.644894
0.642924
0.640993
0.639087
0.637198
0.635316
0.633434
0.631547
0.629653
0.627748
0.625834
0.623906
0.621974
0.620024
0.618088
0.616113
0.614198
0.612184
0.610341
0.608241
0.606558
0.604303
0.602821
0.600564
0.59891
0.610095
0.631655
0.651635
0.671149
0.690043
0.708063
0.724999
0.740738
0.755208
0.768547
0.780622
0.791349
0.800539
0.807943
0.813641
0.817798
0.820517
0.8217
0.821616
0.820362
0.818133
0.815046
0.811173
0.806616
0.801592
0.796322
0.791009
0.785835
0.780836
0.77614
0.771731
0.767561
0.763459
0.759494
0.75569
0.752084
0.748701
0.745541
0.742577
0.739771
0.737085
0.734475
0.731892
0.729292
0.726638
0.723904
0.721071
0.718117
0.715032
0.711815
0.708472
0.705012
0.701451
0.697809
0.694105
0.690359
0.686596
0.682842
0.679125
0.675466
0.671888
0.668412
0.665053
0.661828
0.658744
0.655808
0.653023
0.650386
0.647892
0.645534
0.643302
0.641183
0.639165
0.637233
0.635372
0.633566
0.631801
0.630065
0.628345
0.626632
0.624919
0.623199
0.621467
0.619723
0.617962
0.616188
0.614397
0.6126
0.61078
0.608974
0.607126
0.605339
0.603447
0.601731
0.59975
0.59819
0.59606
0.594682
0.592568
0.591055
0.550698
0.574975
0.596795
0.618016
0.638534
0.658138
0.676605
0.693827
0.709789
0.724312
0.737416
0.749073
0.759194
0.767082
0.772872
0.776881
0.779365
0.780066
0.779533
0.777655
0.775022
0.77165
0.76752
0.762696
0.757528
0.752277
0.747179
0.742461
0.737994
0.733563
0.729296
0.725244
0.721387
0.717736
0.714306
0.711117
0.708179
0.705485
0.702988
0.700637
0.698399
0.696235
0.694096
0.691945
0.689749
0.687477
0.685109
0.682641
0.680069
0.67739
0.674607
0.671728
0.668761
0.665724
0.662627
0.659481
0.656313
0.653149
0.650011
0.646923
0.643907
0.640984
0.63817
0.635477
0.632916
0.63049
0.628201
0.626045
0.624018
0.622111
0.620315
0.618617
0.617004
0.615461
0.613972
0.612523
0.6111
0.609689
0.608281
0.606867
0.60544
0.603996
0.602531
0.601045
0.599535
0.598007
0.596454
0.594895
0.593306
0.591734
0.590109
0.588553
0.586879
0.585392
0.583626
0.582283
0.580386
0.579186
0.577341
0.576082
0.470614
0.50161
0.528322
0.553395
0.577188
0.5996
0.620524
0.6399
0.657679
0.673494
0.687655
0.700062
0.710341
0.717682
0.722387
0.725286
0.726168
0.725234
0.722361
0.718237
0.713824
0.708924
0.70378
0.699395
0.695113
0.690783
0.686491
0.682341
0.678339
0.674443
0.670661
0.667043
0.663617
0.66044
0.657544
0.654977
0.652746
0.650826
0.649151
0.647634
0.646206
0.644815
0.643408
0.641946
0.640405
0.638767
0.637022
0.635169
0.633211
0.631154
0.629004
0.626771
0.624467
0.622104
0.6197
0.617279
0.614854
0.612436
0.610043
0.607693
0.605406
0.603198
0.601087
0.599083
0.597195
0.595426
0.593774
0.592237
0.590809
0.589483
0.58825
0.587097
0.58601
0.584974
0.583972
0.582989
0.58201
0.581025
0.580027
0.579007
0.577958
0.576878
0.575765
0.574621
0.573443
0.572243
0.57101
0.56977
0.568491
0.567233
0.565911
0.564667
0.563288
0.56211
0.560639
0.559588
0.558014
0.557048
0.555575
0.55466
0.3696
0.409915
0.44318
0.472261
0.498326
0.521654
0.542766
0.561906
0.579709
0.595902
0.61051
0.623454
0.634706
0.643835
0.650504
0.656387
0.660107
0.66116
0.660627
0.658762
0.654906
0.649682
0.643926
0.638116
0.632509
0.627296
0.622474
0.618041
0.613867
0.609936
0.606158
0.602588
0.59924
0.596203
0.593491
0.591191
0.589275
0.587735
0.58648
0.585349
0.584285
0.583264
0.582235
0.581179
0.580096
0.578982
0.577832
0.576645
0.575418
0.574149
0.572834
0.571472
0.570067
0.56862
0.567133
0.565622
0.5641
0.562579
0.561074
0.559599
0.558169
0.556802
0.555512
0.55431
0.553204
0.552193
0.551273
0.550444
0.5497
0.549039
0.548452
0.547926
0.547445
0.54699
0.546545
0.546093
0.545621
0.545115
0.544566
0.543974
0.543336
0.542654
0.541928
0.541166
0.540363
0.539536
0.538671
0.5378
0.536883
0.535994
0.535027
0.534154
0.533125
0.532315
0.531199
0.530495
0.529306
0.528639
0.527558
0.527116
0.261555
0.303535
0.339588
0.371331
0.399619
0.426225
0.451328
0.47464
0.49565
0.514353
0.529015
0.540949
0.550615
0.558024
0.563741
0.566518
0.565975
0.56297
0.558087
0.551962
0.545281
0.53881
0.532755
0.527429
0.522754
0.518893
0.515549
0.512638
0.509812
0.507105
0.504283
0.501571
0.498953
0.496731
0.494835
0.493543
0.49273
0.492446
0.492649
0.493002
0.493392
0.493827
0.494235
0.494619
0.494996
0.495374
0.495744
0.496095
0.496425
0.49672
0.496958
0.497126
0.497222
0.497232
0.497144
0.496991
0.496785
0.496554
0.496309
0.496058
0.495816
0.495606
0.495443
0.495343
0.495315
0.495348
0.495435
0.495583
0.495793
0.496066
0.496392
0.496757
0.497138
0.497512
0.497859
0.498159
0.498404
0.498584
0.498697
0.49874
0.498717
0.498634
0.49849
0.498298
0.49805
0.497772
0.497441
0.497104
0.496703
0.496336
0.49587
0.495509
0.49497
0.49466
0.49403
0.493804
0.493103
0.49293
0.49211
0.492566
0.19653
0.221018
0.24633
0.272014
0.296278
0.319464
0.34106
0.36032
0.377542
0.39176
0.40187
0.411094
0.419982
0.427419
0.430586
0.430639
0.427747
0.422426
0.415479
0.40779
0.400178
0.393422
0.387668
0.383444
0.380125
0.37819
0.3767
0.375604
0.374142
0.372688
0.370495
0.368438
0.366167
0.364783
0.363665
0.363773
0.364511
0.366185
0.368925
0.37176
0.374533
0.377381
0.380114
0.382783
0.385436
0.388103
0.390768
0.393385
0.395995
0.398526
0.400895
0.40311
0.405148
0.406983
0.408576
0.410101
0.411497
0.412927
0.414309
0.415636
0.416921
0.4182
0.419493
0.420824
0.422202
0.423588
0.42497
0.426382
0.427831
0.429326
0.430851
0.432384
0.433893
0.435342
0.43671
0.437973
0.439141
0.440188
0.441138
0.441986
0.44275
0.443444
0.444061
0.444616
0.445093
0.44553
0.44589
0.446243
0.446506
0.446809
0.446985
0.447278
0.447365
0.447693
0.44768
0.448073
0.447968
0.448456
0.447989
0.449479
0.132294
0.143284
0.154484
0.167743
0.180775
0.196019
0.210418
0.223715
0.238502
0.244949
0.252682
0.261822
0.268006
0.270401
0.269257
0.265019
0.258271
0.249742
0.240497
0.231595
0.223915
0.218277
0.213884
0.211987
0.210171
0.210693
0.210964
0.211179
0.209922
0.208951
0.205319
0.202935
0.199006
0.198486
0.197137
0.199317
0.201751
0.207711
0.216262
0.222619
0.228806
0.235522
0.241714
0.247552
0.253123
0.258658
0.264153
0.269472
0.274907
0.279916
0.284324
0.288459
0.292217
0.295679
0.298541
0.302179
0.305132
0.309183
0.31277
0.316185
0.319463
0.322686
0.325866
0.329056
0.332248
0.335354
0.338336
0.341331
0.344302
0.347281
0.350285
0.353234
0.356126
0.358827
0.36139
0.363775
0.366053
0.368131
0.370126
0.371968
0.373755
0.375491
0.377116
0.378642
0.380042
0.381381
0.382603
0.383811
0.384894
0.386023
0.386993
0.388092
0.388954
0.390068
0.390814
0.391982
0.392597
0.393911
0.393966
0.396561
0.0582822
0.0629388
0.0680766
0.0745945
0.0795969
0.0862931
0.0915047
0.0936134
0.0996821
0.100677
0.105634
0.107726
0.107956
0.105964
0.102178
0.0970215
0.0910182
0.0846216
0.078576
0.0732618
0.0689933
0.0660599
0.0637007
0.0628151
0.0615975
0.061859
0.0618466
0.0616014
0.0610924
0.0596853
0.0581417
0.0560713
0.054577
0.0543574
0.05501
0.0560635
0.0579992
0.0618814
0.0660888
0.0703944
0.074088
0.078831
0.0835732
0.088825
0.09404
0.0998983
0.105856
0.112293
0.118783
0.12572
0.133341
0.141217
0.149505
0.157514
0.165171
0.172486
0.179535
0.186362
0.192916
0.199178
0.205126
0.210854
0.216336
0.221728
0.226932
0.23209
0.236716
0.241359
0.245565
0.249878
0.254735
0.25894
0.263569
0.267053
0.270774
0.274318
0.277902
0.281134
0.284479
0.287485
0.290743
0.294013
0.296927
0.299573
0.301999
0.304365
0.306561
0.308752
0.310772
0.312858
0.314751
0.316787
0.318552
0.320585
0.322222
0.324325
0.325789
0.328104
0.328931
0.332598
0.035178
0.0354076
0.0364172
0.0370326
0.0376409
0.0383011
0.0389037
0.0393556
0.0394235
0.0393132
0.0388144
0.0378973
0.0365659
0.0347209
0.0325329
0.0301482
0.0277681
0.025498
0.0235373
0.0218646
0.0205356
0.0195065
0.018628
0.0180019
0.0173226
0.0169022
0.016427
0.015906
0.0154129
0.014743
0.0141538
0.0135636
0.0130038
0.0127073
0.0123557
0.0125574
0.0122627
0.0124649
0.0128986
0.0134046
0.0139886
0.0147835
0.0154785
0.0165437
0.0176104
0.0190141
0.0205701
0.0223848
0.0244979
0.026798
0.0295382
0.0325212
0.0360219
0.0398531
0.0441478
0.0486676
0.0535878
0.0587372
0.0641285
0.0696769
0.0753073
0.081067
0.0868793
0.0928267
0.0988009
0.104901
0.1111
0.117705
0.124321
0.131168
0.137946
0.144692
0.151245
0.157504
0.163495
0.169146
0.174599
0.179669
0.184576
0.18921
0.193731
0.198138
0.202334
0.206343
0.210017
0.213616
0.216898
0.220213
0.223267
0.226458
0.229434
0.23237
0.235068
0.238172
0.240955
0.244221
0.246821
0.250312
0.252404
0.256967
0.0240283
0.0240148
0.0238017
0.023893
0.0239148
0.0236576
0.023333
0.022923
0.0223908
0.0217591
0.021015
0.0201553
0.0192205
0.0182175
0.0172083
0.0162186
0.0153044
0.0144691
0.0137521
0.0131224
0.0125954
0.0121321
0.0117251
0.0113575
0.0110181
0.0107166
0.0104226
0.0101487
0.0098891
0.00964725
0.00942807
0.00924098
0.00906879
0.00894119
0.00881764
0.00874438
0.00865714
0.00862411
0.00857273
0.00856943
0.00853484
0.00854087
0.00853725
0.0085287
0.00857637
0.00854612
0.00865439
0.00861114
0.00872151
0.00879607
0.00893539
0.00903984
0.00926537
0.00947818
0.00981804
0.0101935
0.0107031
0.0113111
0.0120443
0.0129383
0.0139368
0.0151612
0.0164796
0.0180934
0.0197915
0.0218581
0.0239869
0.026599
0.0293132
0.0325472
0.0359351
0.039822
0.0438449
0.0482631
0.0527363
0.0574967
0.0622258
0.0671824
0.0720259
0.0770815
0.0819855
0.0871437
0.0920485
0.0972692
0.10228
0.107629
0.112651
0.118032
0.122902
0.128141
0.132757
0.137858
0.142152
0.14715
0.151066
0.156096
0.159557
0.164737
0.167771
0.173536
0.014981
0.0151503
0.0152256
0.0153252
0.0153515
0.0152359
0.0150532
0.0148106
0.0145045
0.0141443
0.0137352
0.0132827
0.0128117
0.0123294
0.0118669
0.0114252
0.0110302
0.0106691
0.010358
0.0100758
0.00983632
0.00961844
0.00943025
0.00925862
0.00910755
0.00897089
0.00884821
0.00873747
0.00864158
0.00855971
0.00849259
0.00844049
0.00839923
0.0083716
0.00834741
0.00833467
0.0083176
0.00831164
0.00829923
0.00829228
0.00827809
0.00827405
0.0082583
0.00825195
0.00823829
0.0082311
0.00822106
0.00821441
0.00820832
0.00820109
0.00820057
0.00819251
0.0081981
0.00818949
0.00820089
0.00819287
0.00821027
0.00820572
0.00823023
0.00823254
0.00826671
0.00828051
0.00832888
0.00838296
0.00842273
0.00850842
0.0085808
0.00872448
0.00884758
0.00905743
0.00925227
0.00960639
0.00986523
0.01045
0.0108026
0.0116567
0.0121585
0.013295
0.0139897
0.0154653
0.0163401
0.0182648
0.0193605
0.0217056
0.0231299
0.0259548
0.0277392
0.031134
0.0333201
0.037287
0.0398635
0.044402
0.047309
0.0524198
0.0555502
0.0612307
0.0644541
0.0705209
0.0741501
0.080925
0.0105357
0.0105794
0.0106176
0.0106665
0.0106654
0.0106198
0.0105526
0.0104615
0.0103518
0.0102214
0.0100774
0.00991881
0.0097575
0.00959139
0.00943626
0.00928306
0.00914948
0.00901678
0.00891228
0.0088096
0.00872715
0.0086446
0.00857967
0.00851509
0.00846167
0.00841225
0.00837255
0.00833806
0.00831444
0.00829735
0.00829263
0.00829044
0.00829436
0.00829531
0.00829722
0.00829385
0.00828813
0.0082805
0.00826976
0.00825689
0.00824456
0.00823302
0.00822006
0.00820911
0.00819675
0.00818837
0.00817657
0.00817059
0.00815869
0.00815464
0.00814166
0.00813846
0.00812394
0.00812049
0.00810467
0.0081
0.00808345
0.00807708
0.00806043
0.00805213
0.00803573
0.00802591
0.00800986
0.00799842
0.00797991
0.00796568
0.00794872
0.00793741
0.00792212
0.00791466
0.00790154
0.00789881
0.00788911
0.00789182
0.00788774
0.00789642
0.00790175
0.00791679
0.00793589
0.00796533
0.00801042
0.00808052
0.00809865
0.00820081
0.00824004
0.00841221
0.00848562
0.00875558
0.00886617
0.00927882
0.00945035
0.0100585
0.0103163
0.0111823
0.0116207
0.0127199
0.0135513
0.0146997
0.0165264
0.0174666
0.00888372
0.0088972
0.00890372
0.00891843
0.00891014
0.00889052
0.0088681
0.00883803
0.0088068
0.00876874
0.00873064
0.00868793
0.00864744
0.00860467
0.00856764
0.00852816
0.00849953
0.00846973
0.0084469
0.00841833
0.0083997
0.00837121
0.00835305
0.0083255
0.00831217
0.00829071
0.00828432
0.00827062
0.00826992
0.00826052
0.00825727
0.00824392
0.00823335
0.00821281
0.00819625
0.00817051
0.00815061
0.00812389
0.00810442
0.00807815
0.00806047
0.00803921
0.0080236
0.00800294
0.00798858
0.00796903
0.00795518
0.00793508
0.00792087
0.00789975
0.00788485
0.00786315
0.0078476
0.0078262
0.00781017
0.00778994
0.00777362
0.00775526
0.0077388
0.00772254
0.00770606
0.00769197
0.00767571
0.00766364
0.00764784
0.00763745
0.00762245
0.00761322
0.0075994
0.00759088
0.0075786
0.00757051
0.00755999
0.00755208
0.00754328
0.00753537
0.00752799
0.00752005
0.00751368
0.00750623
0.00750071
0.00749463
0.00748955
0.00748525
0.00748017
0.00747842
0.00747362
0.00747512
0.00747121
0.00747648
0.00747516
0.00748437
0.00748888
0.00750219
0.00751762
0.00753552
0.00756309
0.00758643
0.00763451
0.00774272
0.00842195
0.00842703
0.00842618
0.00842697
0.00842566
0.00841943
0.00841181
0.00840187
0.0083942
0.00838557
0.00838148
0.00837827
0.0083797
0.00838343
0.00838962
0.00839427
0.00839406
0.00838578
0.00837286
0.00835238
0.00833024
0.00830296
0.00827832
0.00825136
0.00822873
0.00820386
0.00818385
0.00815878
0.00813808
0.00810948
0.00808518
0.0080526
0.00802478
0.00798906
0.00795975
0.00792255
0.00789372
0.00785762
0.00783165
0.0077969
0.00777538
0.00774603
0.00772695
0.00770028
0.00768376
0.00765937
0.0076442
0.00762134
0.00760778
0.00758633
0.00757442
0.00755425
0.00754392
0.00752498
0.00751612
0.00749841
0.00749088
0.00747437
0.00746791
0.00745248
0.00744683
0.00743245
0.00742742
0.0074141
0.00740952
0.00739718
0.00739292
0.00738146
0.00737752
0.00736693
0.00736337
0.00735368
0.00735055
0.00734168
0.00733895
0.00733072
0.00732828
0.00732041
0.00731817
0.00731043
0.00730828
0.00730063
0.0072985
0.00729092
0.00728874
0.00728134
0.00727906
0.00727192
0.00726951
0.00726268
0.0072601
0.00725362
0.00725082
0.00724475
0.00724173
0.00723623
0.00723223
0.00723158
0.00720896
0.00724124
0.00819835
0.00820674
0.00821577
0.00822401
0.00823495
0.00823732
0.00824077
0.00824003
0.0082417
0.00824075
0.00824331
0.00824105
0.00824281
0.0082342
0.00822682
0.00820659
0.00818758
0.00815679
0.00813032
0.00809404
0.00806574
0.00802969
0.00800248
0.0079683
0.00794223
0.00790947
0.00788286
0.00784971
0.00782103
0.00778749
0.00775708
0.00772359
0.00769336
0.00766036
0.00763283
0.00760177
0.00757788
0.00755111
0.00753072
0.0075073
0.00749306
0.00747374
0.00746198
0.00744513
0.00743529
0.00741961
0.00741122
0.00739624
0.00738893
0.00737455
0.00736837
0.00735464
0.00734936
0.0073362
0.00733163
0.00731904
0.00731508
0.00730305
0.00729958
0.00728812
0.00728502
0.00727409
0.00727127
0.00726086
0.00725824
0.00724831
0.00724584
0.0072364
0.00723415
0.00722526
0.0072233
0.00721501
0.00721335
0.00720562
0.00720424
0.00719691
0.00719572
0.00718866
0.00718761
0.00718067
0.00717969
0.00717295
0.007172
0.00716535
0.00716436
0.00715779
0.00715661
0.0071503
0.007149
0.00714279
0.00714126
0.00713516
0.00713332
0.00712733
0.00712524
0.00711923
0.00711758
0.00710796
0.0071237
0.00708221
0.00796062
0.00797941
0.00799801
0.00800791
0.00802039
0.00802388
0.00803007
0.00802869
0.00803048
0.00802593
0.00802292
0.0080136
0.00800347
0.00798657
0.00796911
0.00794503
0.00792263
0.00789362
0.00786904
0.00783775
0.00781278
0.00778128
0.00775685
0.00772521
0.00770216
0.00767173
0.00765038
0.00762173
0.00760267
0.00757633
0.00755918
0.00753523
0.00751983
0.00749769
0.007484
0.00746388
0.00745099
0.00743253
0.00742095
0.007404
0.00739483
0.00737866
0.00737034
0.00735545
0.00734816
0.00733382
0.00732754
0.00731417
0.00730872
0.00729615
0.00729157
0.00727965
0.00727555
0.00726386
0.00725984
0.0072482
0.00724421
0.00723268
0.00722882
0.00721757
0.00721388
0.0072029
0.00719921
0.00718843
0.00718483
0.00717448
0.00717115
0.0071613
0.00715831
0.00714899
0.00714637
0.00713757
0.00713527
0.00712692
0.00712484
0.00711682
0.00711489
0.00710709
0.00710527
0.00709762
0.00709586
0.00708837
0.00708661
0.00707934
0.00707756
0.00707056
0.00706874
0.00706212
0.00706024
0.00705395
0.00705199
0.00704605
0.00704395
0.00703836
0.00703599
0.00703082
0.00702729
0.00702636
0.00700441
0.00703353
0.00772837
0.00774875
0.00776761
0.00777943
0.00779304
0.00779822
0.0078046
0.00780308
0.00780424
0.0077982
0.00779482
0.00778394
0.00777437
0.00775783
0.00774282
0.0077221
0.00770371
0.00768006
0.0076598
0.00763439
0.00761388
0.00758792
0.00756852
0.00754391
0.00752608
0.00750344
0.0074875
0.00746684
0.00745222
0.00743284
0.00741866
0.00739979
0.00738587
0.0073664
0.00735332
0.00733334
0.00732087
0.00730219
0.00728962
0.00727358
0.00726328
0.007248
0.00724006
0.00722563
0.00721843
0.00720507
0.00719884
0.00718581
0.00717983
0.00716707
0.00716152
0.00714906
0.00714387
0.0071316
0.00712662
0.00711454
0.0071098
0.00709804
0.00709361
0.00708224
0.00707812
0.00706727
0.00706372
0.00705365
0.00705061
0.00704116
0.0070385
0.00702954
0.00702717
0.0070186
0.00701647
0.0070083
0.00700641
0.00699864
0.00699698
0.00698955
0.00698808
0.00698092
0.00697964
0.00697265
0.00697143
0.00696465
0.00696346
0.00695699
0.00695582
0.00694961
0.00694841
0.00694253
0.00694124
0.00693568
0.00693425
0.00692903
0.00692741
0.00692253
0.00692079
0.00691609
0.00691493
0.00690666
0.00692341
0.00688287
0.00752538
0.00754521
0.00756367
0.00757471
0.00758807
0.00759352
0.00759998
0.00759969
0.00760181
0.00759785
0.00759651
0.00758774
0.0075807
0.00756582
0.00755408
0.00753595
0.00752192
0.00750208
0.00748701
0.00746609
0.00745088
0.00742965
0.00741472
0.00739408
0.00737961
0.0073598
0.00734628
0.0073276
0.00731471
0.00729719
0.00728433
0.00726773
0.00725506
0.00723848
0.0072273
0.00721052
0.00720082
0.00718498
0.007176
0.00716283
0.0071547
0.00714186
0.00713555
0.00712315
0.00711792
0.00710637
0.00710176
0.00709075
0.00708684
0.00707648
0.00707347
0.0070637
0.00706119
0.00705165
0.00704925
0.00703976
0.00703738
0.00702793
0.00702552
0.00701618
0.00701379
0.00700458
0.00700225
0.00699326
0.00699103
0.00698234
0.00698026
0.00697187
0.00696997
0.00696188
0.00696013
0.00695232
0.00695074
0.0069432
0.00694177
0.00693443
0.00693315
0.00692598
0.00692477
0.00691778
0.00691666
0.00690986
0.00690874
0.00690221
0.00690103
0.00689482
0.00689369
0.00688771
0.00688653
0.00688094
0.00687976
0.00687445
0.00687309
0.00686818
0.00686659
0.00686219
0.00685955
0.00685926
0.00683848
0.00686761
0.00736737
0.00738581
0.00740303
0.00741486
0.00742702
0.00743254
0.00743868
0.00743862
0.00744129
0.00743811
0.00743883
0.00743188
0.00742707
0.00741413
0.00740503
0.00738976
0.00737906
0.0073629
0.007351
0.00733408
0.0073214
0.00730387
0.00729105
0.0072733
0.00726117
0.00724393
0.00723292
0.00721677
0.00720694
0.00719192
0.00718269
0.00716859
0.00715972
0.00714597
0.00713798
0.00712408
0.007117
0.00710337
0.00709683
0.00708456
0.00707789
0.00706643
0.00706142
0.00705028
0.00704581
0.00703498
0.00703101
0.00702052
0.00701724
0.00700715
0.00700431
0.0069947
0.00699235
0.00698313
0.00698104
0.00697202
0.00696998
0.00696106
0.00695905
0.00695026
0.00694836
0.00693974
0.00693799
0.00692967
0.00692809
0.00692013
0.00691871
0.00691107
0.00690975
0.0069023
0.00690101
0.00689367
0.00689232
0.00688504
0.00688361
0.00687635
0.00687483
0.00686762
0.00686607
0.00685898
0.00685745
0.00685058
0.00684907
0.00684251
0.00684102
0.00683478
0.00683329
0.00682749
0.00682599
0.00682064
0.00681913
0.00681426
0.00681266
0.00680829
0.00680659
0.00680268
0.00680086
0.00679723
0.00679582
0.00678983
0.00724333
0.00725762
0.00727201
0.00728394
0.00729631
0.00730094
0.00730712
0.00730705
0.00730906
0.00730649
0.00730804
0.00730314
0.0072996
0.00728848
0.00728171
0.00726925
0.00726184
0.00724871
0.00724018
0.0072259
0.00721654
0.00720141
0.00719175
0.00717641
0.00716715
0.00715225
0.00714411
0.00713019
0.00712323
0.00711018
0.00710382
0.00709151
0.00708531
0.00707316
0.00706753
0.00705488
0.00704987
0.00703743
0.00703214
0.00702119
0.00701555
0.00700477
0.00700057
0.00698987
0.00698564
0.0069753
0.00697177
0.0069618
0.00695842
0.00694878
0.0069459
0.00693671
0.00693427
0.00692546
0.00692335
0.00691484
0.00691311
0.00690486
0.00690349
0.00689563
0.00689459
0.00688713
0.00688637
0.00687927
0.00687876
0.00687192
0.00687151
0.00686482
0.00686435
0.00685767
0.00685709
0.00685035
0.00684962
0.00684282
0.00684188
0.00683494
0.00683385
0.00682695
0.00682572
0.00681892
0.00681771
0.00681104
0.00680976
0.00680333
0.00680187
0.00679577
0.00679423
0.00678843
0.0067868
0.00678128
0.00677949
0.00677443
0.00677254
0.0067679
0.00676602
0.00676165
0.00676044
0.00675267
0.00676897
0.00672955
0.00714981
0.0071567
0.00717343
0.00718307
0.00719594
0.00720406
0.00721248
0.00721337
0.00721633
0.00721375
0.00721669
0.00721365
0.00721247
0.0072032
0.00719835
0.00718725
0.00718088
0.00716891
0.0071616
0.00714897
0.00714136
0.00712835
0.00712063
0.00710749
0.00709997
0.00708728
0.00708061
0.00706849
0.0070628
0.00705142
0.00704622
0.00703524
0.00703015
0.00701899
0.00701424
0.00700265
0.00699825
0.00698666
0.00698246
0.00697184
0.00696706
0.00695718
0.00695352
0.00694384
0.0069403
0.0069313
0.00692811
0.00691861
0.00691573
0.00690646
0.00690364
0.00689444
0.00689199
0.00688304
0.00688085
0.00687226
0.00687034
0.00686214
0.00686058
0.00685277
0.00685166
0.00684422
0.0068435
0.00683638
0.00683591
0.00682906
0.00682873
0.00682203
0.00682172
0.00681508
0.00681473
0.00680809
0.00680767
0.0068011
0.00680066
0.00679418
0.00679377
0.00678744
0.00678711
0.00678104
0.00678086
0.0067751
0.00677499
0.0067695
0.00676941
0.00676419
0.00676399
0.00675899
0.00675859
0.00675366
0.00675293
0.00674791
0.00674684
0.00674191
0.00674041
0.00673562
0.00673384
0.00672921
0.00672734
0.00672168
0.00707568
0.00708432
0.00709446
0.00710608
0.00711673
0.00712024
0.00713007
0.00713379
0.0071372
0.00713588
0.00714049
0.00714048
0.00714384
0.00713885
0.00713728
0.00712777
0.00712077
0.0071077
0.00709967
0.00708715
0.00708034
0.00706836
0.00706219
0.00705009
0.00704408
0.00703219
0.00702647
0.00701511
0.00701007
0.00699899
0.0069942
0.00698338
0.00697841
0.00696792
0.00696301
0.00695229
0.00694826
0.00693737
0.00693414
0.00692411
0.00692072
0.00691236
0.00690937
0.00690102
0.00689878
0.00689072
0.0068882
0.00687982
0.00687757
0.00686903
0.00686674
0.00685801
0.00685591
0.0068471
0.00684516
0.00683653
0.00683475
0.00682639
0.00682483
0.00681692
0.00681576
0.00680822
0.00680746
0.00680031
0.00679986
0.00679298
0.0067927
0.00678593
0.00678574
0.00677898
0.00677883
0.00677207
0.00677194
0.00676522
0.00676518
0.00675867
0.00675887
0.00675269
0.00675315
0.00674737
0.00674811
0.00674278
0.00674377
0.00673886
0.00674004
0.00673553
0.00673674
0.00673252
0.00673357
0.00672948
0.00673019
0.00672616
0.00672634
0.00672221
0.00672182
0.00671765
0.00671652
0.00671235
0.0067107
0.00670531
0.00702357
0.00703066
0.00704067
0.00705054
0.00705854
0.00706568
0.00706992
0.00707085
0.007076
0.0070746
0.0070801
0.00708328
0.00708666
0.00708218
0.00708105
0.00707177
0.00706762
0.00705759
0.00705233
0.00704146
0.00703609
0.00702535
0.00701994
0.0070085
0.00700296
0.00699099
0.00698542
0.00697387
0.00696853
0.00695761
0.00695243
0.00694221
0.0069373
0.00692713
0.00692282
0.00691253
0.0069086
0.00689856
0.00689558
0.00688613
0.006883
0.00687506
0.00687276
0.00686445
0.00686277
0.00685482
0.00685292
0.0068447
0.00684272
0.00683452
0.00683252
0.00682471
0.00682329
0.00681571
0.0068145
0.00680725
0.0068062
0.00679896
0.00679813
0.00679099
0.0067904
0.00678349
0.00678306
0.00677642
0.0067762
0.00676977
0.00676971
0.00676343
0.00676351
0.00675731
0.00675743
0.00675127
0.0067514
0.00674526
0.00674535
0.00673923
0.00673923
0.0067332
0.00673312
0.00672724
0.00672715
0.00672148
0.00672144
0.00671608
0.0067161
0.00671114
0.0067112
0.00670667
0.00670673
0.00670265
0.00670256
0.00669884
0.00669846
0.00669502
0.00669421
0.00669119
0.00668899
0.00669
0.00666924
0.00669846
0.0069848
0.00698917
0.0070018
0.00700801
0.00701341
0.0070201
0.00702668
0.00702753
0.00702893
0.00702538
0.00702838
0.00702848
0.00703043
0.00702562
0.00702459
0.00701835
0.0070156
0.00700733
0.00700411
0.00699525
0.00699141
0.00698174
0.00697716
0.00696677
0.00696189
0.00695085
0.00694572
0.00693458
0.00692949
0.00691886
0.00691405
0.0069042
0.00689959
0.00689038
0.00688605
0.00687679
0.0068738
0.00686401
0.00686175
0.00685263
0.00685057
0.00684269
0.00684023
0.00683241
0.00683091
0.00682331
0.00682175
0.00681449
0.00681387
0.00680667
0.0068061
0.00679956
0.0067993
0.00679278
0.00679255
0.00678575
0.0067855
0.00677877
0.00677869
0.00677209
0.0067721
0.00676564
0.00676563
0.00675927
0.00675927
0.006753
0.00675291
0.00674673
0.00674669
0.00674074
0.00674074
0.00673508
0.00673514
0.00672968
0.00672974
0.00672436
0.00672434
0.00671896
0.00671874
0.00671329
0.00671277
0.00670725
0.00670643
0.00670086
0.00669978
0.00669422
0.00669297
0.00668752
0.00668616
0.00668087
0.00667939
0.00667433
0.00667272
0.00666792
0.00666616
0.00666164
0.00665969
0.00665555
0.00665296
0.00664855
0.00694094
0.00695247
0.00696087
0.0069621
0.00697547
0.00697921
0.00698357
0.0069847
0.00698545
0.0069801
0.00698322
0.0069811
0.00698305
0.00697924
0.00697919
0.00697256
0.00696956
0.00696162
0.00695842
0.00694991
0.00694738
0.00693952
0.00693696
0.00692913
0.00692624
0.00691754
0.00691414
0.00690484
0.00690112
0.0068921
0.00688878
0.00687974
0.00687671
0.00686756
0.00686466
0.00685569
0.00685238
0.006844
0.00684085
0.00683217
0.00683029
0.00682176
0.00682042
0.00681332
0.00681264
0.00680586
0.00680533
0.0067993
0.00679937
0.00679283
0.00679316
0.00678704
0.00678732
0.00678089
0.00678111
0.00677475
0.00677432
0.00676779
0.00676728
0.00676023
0.00675972
0.00675247
0.00675178
0.00674476
0.00674389
0.0067371
0.00673632
0.0067295
0.00672873
0.00672224
0.0067217
0.00671546
0.00671503
0.00670914
0.00670869
0.00670317
0.00670276
0.00669738
0.00669684
0.00669152
0.00669077
0.00668546
0.00668445
0.00667915
0.00667793
0.00667265
0.00667124
0.00666602
0.00666444
0.00665928
0.00665752
0.00665242
0.0066505
0.00664553
0.0066434
0.00663877
0.00663575
0.00663487
0.00661548
0.00664225
0.00692586
0.00692967
0.00694058
0.00694832
0.00695581
0.00695955
0.00696624
0.00696537
0.00696846
0.00696392
0.00696623
0.00696335
0.00696347
0.00695721
0.00695347
0.00694502
0.0069413
0.00693196
0.0069293
0.00692121
0.00691875
0.00691086
0.0069081
0.00690005
0.00689724
0.00688891
0.00688614
0.00687758
0.00687472
0.00686623
0.00686291
0.00685416
0.00685072
0.00684145
0.00683792
0.00682869
0.00682593
0.00681702
0.00681497
0.00680735
0.00680628
0.00679916
0.00679915
0.00679263
0.00679261
0.00678667
0.0067868
0.0067802
0.00678004
0.00677344
0.00677311
0.00676648
0.00676644
0.00675964
0.00675897
0.00675213
0.00675137
0.00674435
0.00674355
0.00673657
0.00673567
0.00672862
0.00672779
0.0067207
0.00671989
0.00671289
0.00671209
0.0067053
0.0067046
0.00669796
0.00669734
0.00669095
0.00669046
0.00668421
0.00668378
0.0066778
0.00667742
0.00667157
0.00667113
0.00666549
0.00666497
0.0066595
0.00665892
0.00665364
0.00665298
0.00664788
0.00664714
0.00664223
0.00664137
0.00663663
0.00663563
0.00663108
0.0066299
0.00662553
0.00662415
0.00662
0.00661841
0.00661456
0.00661249
0.00660819
0.00689621
0.00689672
0.00690198
0.00690638