/*--------------------------------*- C++ -*----------------------------------*\
  =========                 |
  \\      /  F ield         | OpenFOAM: The Open Source CFD Toolbox
   \\    /   O peration     | Website:  https://openfoam.org
    \\  /    A nd           | Version:  8
     \\/     M anipulation  |
\*---------------------------------------------------------------------------*/
FoamFile
{
    version     2.0;
    format      ascii;
    class       volScalarField;
    location    "1.500023";
    object      drdt;
}
// * * * * * * * * * * * * * * * * * * * * * * * * * * * * * * * * * * * * * //

dimensions      [0 1 -1 0 0 0 0];

internalField   nonuniform List<scalar> 
6800
(
-2.54596e-09
-2.76149e-09
-2.64688e-09
-2.38052e-09
-1.81435e-09
-6.68072e-10
6.01273e-10
1.17748e-09
1.3649e-09
1.38874e-09
-2.53575e-09
-2.64261e-09
-2.38176e-09
-1.64966e-09
-9.71496e-11
1.02943e-09
1.39965e-09
1.50063e-09
1.46908e-09
1.39316e-09
-2.46442e-09
-2.18241e-09
-1.55654e-09
-2.02315e-11
1.11524e-09
1.48395e-09
1.58369e-09
1.54037e-09
1.4045e-09
1.24562e-09
-2.52434e-09
-1.1228e-09
-3.72848e-10
1.09309e-09
1.61729e-09
1.71556e-09
1.61635e-09
1.47746e-09
1.32676e-09
1.20484e-09
-2.0594e-09
-4.36296e-10
7.61798e-10
1.57112e-09
1.74305e-09
1.70055e-09
1.58828e-09
1.43243e-09
1.28643e-09
1.16212e-09
-2.27038e-09
4.58872e-10
1.09738e-09
1.73e-09
1.77306e-09
1.69475e-09
1.50684e-09
1.31856e-09
1.18822e-09
1.12564e-09
-1.6563e-09
8.63615e-10
1.69507e-09
2.04677e-09
1.85924e-09
1.68599e-09
1.44948e-09
1.29943e-09
1.23649e-09
1.23825e-09
-6.14909e-11
2.2163e-09
2.1906e-09
2.19581e-09
1.90524e-09
1.69415e-09
1.45841e-09
1.34115e-09
1.30096e-09
1.26565e-09
1.20607e-09
2.81186e-09
2.61836e-09
2.32449e-09
2.01883e-09
1.77258e-09
1.51402e-09
1.36312e-09
1.29467e-09
1.27655e-09
2.78689e-09
3.70577e-09
3.11589e-09
2.42094e-09
1.99567e-09
1.7971e-09
1.60663e-09
1.48726e-09
1.36234e-09
1.28931e-09
-2.79009e-09
-2.78683e-09
-2.78701e-09
-2.78106e-09
-2.77232e-09
-2.76117e-09
-2.74851e-09
-2.73563e-09
-2.72372e-09
-2.71311e-09
-2.78333e-09
-2.78294e-09
-2.78357e-09
-2.77887e-09
-2.77048e-09
-2.75962e-09
-2.74697e-09
-2.73378e-09
-2.72157e-09
-2.71126e-09
-2.76735e-09
-2.77447e-09
-2.77694e-09
-2.77403e-09
-2.76751e-09
-2.75952e-09
-2.7503e-09
-2.74323e-09
-2.74072e-09
-2.74441e-09
-2.74436e-09
-2.76261e-09
-2.76971e-09
-2.77059e-09
-2.76966e-09
-2.77156e-09
-2.7765e-09
-2.78419e-09
-2.7916e-09
-2.78655e-09
-2.72152e-09
-2.7527e-09
-2.7648e-09
-2.7722e-09
-2.78034e-09
-2.78683e-09
-2.78879e-09
-2.79459e-09
-2.80454e-09
-2.77549e-09
-2.71037e-09
-2.74737e-09
-2.76472e-09
-2.77709e-09
-2.78389e-09
-2.78143e-09
-2.77954e-09
-2.7657e-09
-2.76764e-09
-2.72481e-09
-2.69961e-09
-2.74532e-09
-2.76762e-09
-2.77762e-09
-2.77993e-09
-2.76085e-09
-2.70878e-09
-2.63415e-09
-2.56971e-09
-2.46963e-09
-2.6872e-09
-2.74691e-09
-2.77433e-09
-2.78163e-09
-2.75428e-09
-2.66994e-09
-2.53713e-09
-2.37102e-09
-2.16497e-09
-1.60038e-09
-2.67777e-09
-2.75289e-09
-2.79002e-09
-2.76428e-09
-2.64056e-09
-2.45828e-09
-2.20159e-09
-1.68154e-09
-1.15919e-09
9.57949e-11
-2.60551e-09
-2.76831e-09
-2.78959e-09
-2.64197e-09
-2.42548e-09
-1.96815e-09
-1.27068e-09
-1.53735e-10
7.13813e-10
1.20225e-09
-2.70188e-09
-2.69559e-09
-2.69467e-09
-2.70291e-09
-2.71729e-09
-2.73775e-09
-2.76438e-09
-2.79528e-09
-2.8316e-09
-2.87054e-09
-2.91402e-09
-2.95898e-09
-3.00618e-09
-3.05349e-09
-3.10202e-09
-3.14989e-09
-3.19484e-09
-3.23625e-09
-3.27328e-09
-3.30607e-09
-3.334e-09
-3.35749e-09
-3.37496e-09
-3.38674e-09
-3.39261e-09
-3.39218e-09
-3.38633e-09
-3.37525e-09
-3.36008e-09
-3.3404e-09
-3.31604e-09
-3.28702e-09
-3.25282e-09
-3.21362e-09
-3.1687e-09
-3.11972e-09
-3.06659e-09
-3.01015e-09
-2.95162e-09
-2.89119e-09
-2.83096e-09
-2.77151e-09
-2.71452e-09
-2.66052e-09
-2.61033e-09
-2.56435e-09
-2.52219e-09
-2.48563e-09
-2.45246e-09
-2.42361e-09
-2.39738e-09
-2.37688e-09
-2.35736e-09
-2.34128e-09
-2.32737e-09
-2.31556e-09
-2.30465e-09
-2.29429e-09
-2.28362e-09
-2.27249e-09
-2.26028e-09
-2.24728e-09
-2.23276e-09
-2.21759e-09
-2.20067e-09
-2.18328e-09
-2.16412e-09
-2.14471e-09
-2.12363e-09
-2.10252e-09
-2.08004e-09
-2.05785e-09
-2.03469e-09
-2.01218e-09
-1.98909e-09
-1.967e-09
-1.94464e-09
-1.92348e-09
-1.90223e-09
-1.88225e-09
-1.86223e-09
-1.84345e-09
-1.82463e-09
-1.807e-09
-1.78935e-09
-1.77286e-09
-1.75639e-09
-1.74109e-09
-1.72586e-09
-1.71183e-09
-1.69785e-09
-1.6852e-09
-1.67232e-09
-1.66119e-09
-1.64907e-09
-1.63975e-09
-1.62787e-09
-1.62047e-09
-1.60976e-09
-1.60063e-09
-2.69999e-09
-2.69361e-09
-2.69256e-09
-2.70258e-09
-2.71672e-09
-2.73709e-09
-2.76197e-09
-2.79171e-09
-2.82476e-09
-2.86182e-09
-2.90132e-09
-2.94109e-09
-2.98429e-09
-3.02738e-09
-3.07086e-09
-3.11527e-09
-3.15881e-09
-3.20192e-09
-3.2432e-09
-3.28083e-09
-3.31598e-09
-3.34488e-09
-3.36797e-09
-3.38444e-09
-3.3951e-09
-3.39792e-09
-3.39471e-09
-3.38434e-09
-3.36857e-09
-3.34872e-09
-3.32424e-09
-3.29471e-09
-3.25952e-09
-3.2188e-09
-3.17221e-09
-3.12118e-09
-3.06637e-09
-3.00836e-09
-2.94887e-09
-2.8889e-09
-2.8297e-09
-2.77227e-09
-2.71749e-09
-2.66602e-09
-2.61833e-09
-2.57461e-09
-2.53518e-09
-2.49985e-09
-2.4684e-09
-2.44126e-09
-2.4173e-09
-2.39702e-09
-2.37971e-09
-2.36422e-09
-2.35067e-09
-2.33915e-09
-2.32714e-09
-2.31447e-09
-2.30133e-09
-2.28845e-09
-2.27463e-09
-2.26067e-09
-2.24508e-09
-2.22917e-09
-2.21136e-09
-2.19322e-09
-2.17328e-09
-2.15318e-09
-2.13151e-09
-2.1099e-09
-2.08705e-09
-2.06458e-09
-2.04125e-09
-2.01867e-09
-1.99559e-09
-1.97357e-09
-1.95132e-09
-1.93029e-09
-1.90917e-09
-1.88929e-09
-1.86935e-09
-1.85063e-09
-1.83183e-09
-1.81422e-09
-1.79656e-09
-1.78009e-09
-1.7636e-09
-1.74834e-09
-1.73311e-09
-1.71916e-09
-1.7052e-09
-1.69263e-09
-1.6798e-09
-1.66874e-09
-1.65671e-09
-1.6474e-09
-1.63573e-09
-1.62816e-09
-1.61782e-09
-1.60846e-09
-2.7422e-09
-2.72976e-09
-2.72704e-09
-2.72576e-09
-2.73243e-09
-2.74517e-09
-2.76331e-09
-2.78676e-09
-2.81257e-09
-2.84079e-09
-2.87613e-09
-2.91076e-09
-2.94651e-09
-2.98456e-09
-3.02397e-09
-3.06781e-09
-3.11412e-09
-3.16318e-09
-3.21195e-09
-3.26039e-09
-3.30471e-09
-3.3439e-09
-3.37815e-09
-3.4041e-09
-3.42375e-09
-3.43272e-09
-3.43551e-09
-3.4291e-09
-3.41694e-09
-3.39909e-09
-3.375e-09
-3.34443e-09
-3.30656e-09
-3.26207e-09
-3.21093e-09
-3.15493e-09
-3.09644e-09
-3.03633e-09
-2.97642e-09
-2.91762e-09
-2.8607e-09
-2.80691e-09
-2.75597e-09
-2.709e-09
-2.66524e-09
-2.62562e-09
-2.58911e-09
-2.55646e-09
-2.52674e-09
-2.50066e-09
-2.47713e-09
-2.45667e-09
-2.43785e-09
-2.42153e-09
-2.40584e-09
-2.39183e-09
-2.37756e-09
-2.36415e-09
-2.34972e-09
-2.33549e-09
-2.31979e-09
-2.30395e-09
-2.28645e-09
-2.2687e-09
-2.24928e-09
-2.22966e-09
-2.20851e-09
-2.18731e-09
-2.16478e-09
-2.14241e-09
-2.119e-09
-2.09607e-09
-2.07247e-09
-2.04968e-09
-2.02656e-09
-2.00451e-09
-1.98232e-09
-1.96129e-09
-1.94018e-09
-1.92024e-09
-1.90023e-09
-1.88135e-09
-1.8624e-09
-1.84457e-09
-1.82671e-09
-1.81002e-09
-1.79334e-09
-1.77791e-09
-1.76252e-09
-1.74847e-09
-1.73439e-09
-1.72179e-09
-1.70889e-09
-1.6978e-09
-1.68579e-09
-1.67636e-09
-1.66491e-09
-1.65698e-09
-1.64689e-09
-1.63731e-09
-2.76627e-09
-2.73987e-09
-2.71226e-09
-2.7049e-09
-2.70083e-09
-2.71125e-09
-2.72478e-09
-2.74513e-09
-2.768e-09
-2.79191e-09
-2.82135e-09
-2.84795e-09
-2.87467e-09
-2.90607e-09
-2.94771e-09
-2.99568e-09
-3.05025e-09
-3.10841e-09
-3.16865e-09
-3.22772e-09
-3.28521e-09
-3.33845e-09
-3.38588e-09
-3.42435e-09
-3.45452e-09
-3.47206e-09
-3.47851e-09
-3.47674e-09
-3.46949e-09
-3.45334e-09
-3.42863e-09
-3.39515e-09
-3.35299e-09
-3.30354e-09
-3.24732e-09
-3.18645e-09
-3.12528e-09
-3.06446e-09
-3.00673e-09
-2.95088e-09
-2.89906e-09
-2.85142e-09
-2.80779e-09
-2.76789e-09
-2.7313e-09
-2.69764e-09
-2.66686e-09
-2.6376e-09
-2.6117e-09
-2.58777e-09
-2.56598e-09
-2.54525e-09
-2.52583e-09
-2.5089e-09
-2.49081e-09
-2.47155e-09
-2.45274e-09
-2.43489e-09
-2.41674e-09
-2.39911e-09
-2.38039e-09
-2.36185e-09
-2.34204e-09
-2.32226e-09
-2.30118e-09
-2.28016e-09
-2.25793e-09
-2.23582e-09
-2.21263e-09
-2.18973e-09
-2.16601e-09
-2.14286e-09
-2.11926e-09
-2.09653e-09
-2.07362e-09
-2.05175e-09
-2.02982e-09
-2.00894e-09
-1.98798e-09
-1.96804e-09
-1.94802e-09
-1.929e-09
-1.9099e-09
-1.89185e-09
-1.87379e-09
-1.85686e-09
-1.84001e-09
-1.82441e-09
-1.80892e-09
-1.79478e-09
-1.78067e-09
-1.76805e-09
-1.75517e-09
-1.74409e-09
-1.73219e-09
-1.72262e-09
-1.71159e-09
-1.70292e-09
-1.69444e-09
-1.68274e-09
-2.7408e-09
-2.69437e-09
-2.66877e-09
-2.65448e-09
-2.64789e-09
-2.65128e-09
-2.65874e-09
-2.67151e-09
-2.68407e-09
-2.70256e-09
-2.72247e-09
-2.74741e-09
-2.77931e-09
-2.81838e-09
-2.86438e-09
-2.91633e-09
-2.97468e-09
-3.03842e-09
-3.10643e-09
-3.1767e-09
-3.24624e-09
-3.31393e-09
-3.37589e-09
-3.42644e-09
-3.4623e-09
-3.48391e-09
-3.49378e-09
-3.49825e-09
-3.49667e-09
-3.48293e-09
-3.45641e-09
-3.41981e-09
-3.37164e-09
-3.31534e-09
-3.25316e-09
-3.18778e-09
-3.12381e-09
-3.06612e-09
-3.01195e-09
-2.96303e-09
-2.918e-09
-2.8785e-09
-2.842e-09
-2.80947e-09
-2.77864e-09
-2.75056e-09
-2.72317e-09
-2.69818e-09
-2.67375e-09
-2.65136e-09
-2.62939e-09
-2.60899e-09
-2.58842e-09
-2.5689e-09
-2.54888e-09
-2.52953e-09
-2.50944e-09
-2.48976e-09
-2.46913e-09
-2.44885e-09
-2.4277e-09
-2.40695e-09
-2.38536e-09
-2.36409e-09
-2.34192e-09
-2.32009e-09
-2.29738e-09
-2.27496e-09
-2.2517e-09
-2.22882e-09
-2.20536e-09
-2.18258e-09
-2.15955e-09
-2.13747e-09
-2.11534e-09
-2.09421e-09
-2.073e-09
-2.05273e-09
-2.0323e-09
-2.01274e-09
-1.99301e-09
-1.97417e-09
-1.95521e-09
-1.93722e-09
-1.91924e-09
-1.90236e-09
-1.88566e-09
-1.8702e-09
-1.85496e-09
-1.84107e-09
-1.8273e-09
-1.81499e-09
-1.80251e-09
-1.79174e-09
-1.78032e-09
-1.7709e-09
-1.76059e-09
-1.75155e-09
-1.7445e-09
-1.73129e-09
-2.6469e-09
-2.57667e-09
-2.53832e-09
-2.52073e-09
-2.51582e-09
-2.51908e-09
-2.53456e-09
-2.55311e-09
-2.57545e-09
-2.60076e-09
-2.62747e-09
-2.65466e-09
-2.68399e-09
-2.71815e-09
-2.75833e-09
-2.80595e-09
-2.86348e-09
-2.93018e-09
-3.00633e-09
-3.08814e-09
-3.16947e-09
-3.24638e-09
-3.31327e-09
-3.36853e-09
-3.40955e-09
-3.42875e-09
-3.44135e-09
-3.44335e-09
-3.4447e-09
-3.42812e-09
-3.39707e-09
-3.35276e-09
-3.29648e-09
-3.2324e-09
-3.16463e-09
-3.09667e-09
-3.03268e-09
-2.98261e-09
-2.93886e-09
-2.90047e-09
-2.86788e-09
-2.84113e-09
-2.81675e-09
-2.79466e-09
-2.77297e-09
-2.75216e-09
-2.73057e-09
-2.70956e-09
-2.68796e-09
-2.66683e-09
-2.64514e-09
-2.62371e-09
-2.60131e-09
-2.57933e-09
-2.55657e-09
-2.53414e-09
-2.51124e-09
-2.48875e-09
-2.46568e-09
-2.44322e-09
-2.4205e-09
-2.39865e-09
-2.37656e-09
-2.3552e-09
-2.33347e-09
-2.31238e-09
-2.29077e-09
-2.26955e-09
-2.24768e-09
-2.22629e-09
-2.20451e-09
-2.1835e-09
-2.16241e-09
-2.14227e-09
-2.12217e-09
-2.10292e-09
-2.08352e-09
-2.06483e-09
-2.04585e-09
-2.02751e-09
-2.00894e-09
-1.99105e-09
-1.97302e-09
-1.95583e-09
-1.93869e-09
-1.9226e-09
-1.90676e-09
-1.89217e-09
-1.87789e-09
-1.86496e-09
-1.85222e-09
-1.84091e-09
-1.82953e-09
-1.81972e-09
-1.80945e-09
-1.80082e-09
-1.79175e-09
-1.78329e-09
-1.77739e-09
-1.76336e-09
-2.3818e-09
-2.3465e-09
-2.3183e-09
-2.32759e-09
-2.33357e-09
-2.35588e-09
-2.38726e-09
-2.40328e-09
-2.42596e-09
-2.44855e-09
-2.46697e-09
-2.48858e-09
-2.50681e-09
-2.52666e-09
-2.55532e-09
-2.59412e-09
-2.64729e-09
-2.71358e-09
-2.79233e-09
-2.87768e-09
-2.96295e-09
-3.04213e-09
-3.10499e-09
-3.1527e-09
-3.18235e-09
-3.19101e-09
-3.20235e-09
-3.1984e-09
-3.19105e-09
-3.16509e-09
-3.12487e-09
-3.07039e-09
-3.00636e-09
-2.93806e-09
-2.86924e-09
-2.80604e-09
-2.74826e-09
-2.71447e-09
-2.68854e-09
-2.66659e-09
-2.65236e-09
-2.64386e-09
-2.63449e-09
-2.62467e-09
-2.61359e-09
-2.60226e-09
-2.58854e-09
-2.57449e-09
-2.55864e-09
-2.54175e-09
-2.52339e-09
-2.50386e-09
-2.48239e-09
-2.46118e-09
-2.43892e-09
-2.41673e-09
-2.39466e-09
-2.37268e-09
-2.35041e-09
-2.32875e-09
-2.30751e-09
-2.2876e-09
-2.26816e-09
-2.24988e-09
-2.23183e-09
-2.21462e-09
-2.19717e-09
-2.18002e-09
-2.16241e-09
-2.14517e-09
-2.12775e-09
-2.11095e-09
-2.09429e-09
-2.07838e-09
-2.06257e-09
-2.04724e-09
-2.03165e-09
-2.01644e-09
-2.00073e-09
-1.98539e-09
-1.96966e-09
-1.95441e-09
-1.93891e-09
-1.9241e-09
-1.90929e-09
-1.89547e-09
-1.88193e-09
-1.86959e-09
-1.85763e-09
-1.84691e-09
-1.83643e-09
-1.82723e-09
-1.81804e-09
-1.81016e-09
-1.80204e-09
-1.79511e-09
-1.78799e-09
-1.78114e-09
-1.77657e-09
-1.76345e-09
-1.64056e-09
-1.71315e-09
-1.7877e-09
-1.83925e-09
-1.89772e-09
-1.9472e-09
-1.96945e-09
-1.99926e-09
-2.02833e-09
-2.05822e-09
-2.0513e-09
-2.08976e-09
-2.09925e-09
-2.0939e-09
-2.09921e-09
-2.11475e-09
-2.15041e-09
-2.20028e-09
-2.26487e-09
-2.33328e-09
-2.39888e-09
-2.46186e-09
-2.47965e-09
-2.49209e-09
-2.4997e-09
-2.51536e-09
-2.51169e-09
-2.49816e-09
-2.46118e-09
-2.42132e-09
-2.36487e-09
-2.30334e-09
-2.2422e-09
-2.19348e-09
-2.14473e-09
-2.1183e-09
-2.09794e-09
-2.10021e-09
-2.11058e-09
-2.11955e-09
-2.13614e-09
-2.16104e-09
-2.17107e-09
-2.17649e-09
-2.17835e-09
-2.18281e-09
-2.18108e-09
-2.18385e-09
-2.18262e-09
-2.17889e-09
-2.17361e-09
-2.16352e-09
-2.14972e-09
-2.13688e-09
-2.12286e-09
-2.10891e-09
-2.09731e-09
-2.08253e-09
-2.06772e-09
-2.05099e-09
-2.03639e-09
-2.02285e-09
-2.01061e-09
-2.00045e-09
-1.99112e-09
-1.98269e-09
-1.97405e-09
-1.96565e-09
-1.95675e-09
-1.94808e-09
-1.93903e-09
-1.9305e-09
-1.92201e-09
-1.91402e-09
-1.90604e-09
-1.89797e-09
-1.88946e-09
-1.88094e-09
-1.8716e-09
-1.86228e-09
-1.85232e-09
-1.84252e-09
-1.83222e-09
-1.82229e-09
-1.81218e-09
-1.80284e-09
-1.79369e-09
-1.78553e-09
-1.77776e-09
-1.77082e-09
-1.76415e-09
-1.75827e-09
-1.75259e-09
-1.74773e-09
-1.7429e-09
-1.73867e-09
-1.73443e-09
-1.7299e-09
-1.72748e-09
-1.71739e-09
-3.67917e-12
-1.70315e-10
-3.34765e-10
-4.64197e-10
-5.76725e-10
-6.90037e-10
-7.70356e-10
-8.43853e-10
-8.98048e-10
-9.20698e-10
-9.29902e-10
-9.86294e-10
-9.85229e-10
-9.90364e-10
-9.79071e-10
-9.62891e-10
-9.40838e-10
-9.32496e-10
-9.41144e-10
-9.57613e-10
-9.62494e-10
-9.70111e-10
-9.84027e-10
-9.80092e-10
-9.97116e-10
-1.00147e-09
-9.89014e-10
-9.77553e-10
-9.40001e-10
-8.97493e-10
-8.69911e-10
-8.1097e-10
-8.07635e-10
-7.92923e-10
-7.83275e-10
-8.19133e-10
-8.77772e-10
-9.35715e-10
-9.95639e-10
-1.04633e-09
-1.09515e-09
-1.15644e-09
-1.19804e-09
-1.23927e-09
-1.26791e-09
-1.29923e-09
-1.33177e-09
-1.35843e-09
-1.39039e-09
-1.42912e-09
-1.47826e-09
-1.49646e-09
-1.5065e-09
-1.50789e-09
-1.51884e-09
-1.53084e-09
-1.55985e-09
-1.56604e-09
-1.56953e-09
-1.55242e-09
-1.55553e-09
-1.54429e-09
-1.53995e-09
-1.54299e-09
-1.54894e-09
-1.55575e-09
-1.56246e-09
-1.56945e-09
-1.57561e-09
-1.58174e-09
-1.58723e-09
-1.59276e-09
-1.59814e-09
-1.60347e-09
-1.60874e-09
-1.61289e-09
-1.61667e-09
-1.61961e-09
-1.62163e-09
-1.62285e-09
-1.62328e-09
-1.62305e-09
-1.62188e-09
-1.62037e-09
-1.61835e-09
-1.61658e-09
-1.61479e-09
-1.61349e-09
-1.6125e-09
-1.61149e-09
-1.61058e-09
-1.60976e-09
-1.60897e-09
-1.609e-09
-1.60881e-09
-1.60951e-09
-1.6081e-09
-1.60753e-09
-1.60745e-09
-1.60634e-09
1.12706e-09
1.02124e-09
9.01702e-10
8.03587e-10
7.26808e-10
6.53862e-10
5.99771e-10
5.60584e-10
5.25104e-10
5.02799e-10
4.80945e-10
4.54958e-10
4.29421e-10
3.83966e-10
3.30469e-10
2.58848e-10
1.72459e-10
8.30056e-11
-1.30917e-11
-9.17791e-11
-1.71101e-10
-2.15364e-10
-2.56167e-10
-2.99876e-10
-3.24176e-10
-3.19175e-10
-3.34159e-10
-3.35575e-10
-3.1999e-10
-2.77444e-10
-2.55119e-10
-2.35539e-10
-2.33041e-10
-2.32082e-10
-2.52603e-10
-3.03177e-10
-3.55671e-10
-4.14058e-10
-4.73311e-10
-4.92373e-10
-5.35486e-10
-5.54934e-10
-5.56661e-10
-5.68126e-10
-5.73407e-10
-5.76879e-10
-5.79329e-10
-5.79186e-10
-5.79521e-10
-5.76776e-10
-5.75953e-10
-5.66736e-10
-5.7515e-10
-5.6698e-10
-5.93471e-10
-5.99537e-10
-6.06757e-10
-6.30945e-10
-6.60079e-10
-6.73437e-10
-6.66035e-10
-6.73527e-10
-6.9671e-10
-7.27472e-10
-7.62347e-10
-7.98624e-10
-8.34644e-10
-8.71247e-10
-9.05893e-10
-9.40206e-10
-9.72953e-10
-1.00414e-09
-1.03426e-09
-1.06253e-09
-1.0898e-09
-1.11496e-09
-1.13839e-09
-1.15953e-09
-1.17902e-09
-1.197e-09
-1.2145e-09
-1.23002e-09
-1.24385e-09
-1.25613e-09
-1.26755e-09
-1.2782e-09
-1.2886e-09
-1.29842e-09
-1.30831e-09
-1.31731e-09
-1.3265e-09
-1.3348e-09
-1.34345e-09
-1.3512e-09
-1.35925e-09
-1.36623e-09
-1.37357e-09
-1.37947e-09
-1.38588e-09
-1.39161e-09
1.28582e-09
1.24142e-09
1.16167e-09
1.09761e-09
1.04848e-09
1.00551e-09
9.68595e-10
9.38021e-10
9.03426e-10
8.71403e-10
8.34285e-10
7.86581e-10
7.27743e-10
6.50332e-10
5.62933e-10
4.61501e-10
3.5194e-10
2.44874e-10
1.39587e-10
5.45604e-11
-2.68611e-11
-7.56166e-11
-1.19561e-10
-1.90866e-10
-2.05649e-10
-2.12367e-10
-2.17665e-10
-2.18096e-10
-1.88072e-10
-1.97187e-10
-1.87108e-10
-1.80136e-10
-1.58729e-10
-1.64236e-10
-1.99625e-10
-2.56747e-10
-3.08354e-10
-3.63647e-10
-4.02182e-10
-4.30445e-10
-4.30349e-10
-4.44403e-10
-4.2704e-10
-4.33964e-10
-4.38801e-10
-4.30477e-10
-4.12833e-10
-3.89257e-10
-3.62666e-10
-3.30485e-10
-2.984e-10
-2.61879e-10
-2.29649e-10
-1.96109e-10
-1.66606e-10
-1.42765e-10
-1.22822e-10
-1.05583e-10
-9.70767e-11
-9.85304e-11
-9.46665e-11
-1.00532e-10
-9.91659e-11
-1.03682e-10
-1.12024e-10
-1.22291e-10
-1.34968e-10
-1.50246e-10
-1.67277e-10
-1.86992e-10
-2.10007e-10
-2.34594e-10
-2.62238e-10
-2.90527e-10
-3.22517e-10
-3.54381e-10
-3.89329e-10
-4.26326e-10
-4.64314e-10
-5.04086e-10
-5.46336e-10
-5.8714e-10
-6.26061e-10
-6.62808e-10
-6.9822e-10
-7.31688e-10
-7.63798e-10
-7.93498e-10
-8.21534e-10
-8.47199e-10
-8.71483e-10
-8.9407e-10
-9.15219e-10
-9.35466e-10
-9.53176e-10
-9.7211e-10
-9.86492e-10
-1.00561e-09
-1.0165e-09
-1.0355e-09
1.15309e-09
1.13307e-09
1.08152e-09
1.05201e-09
1.02623e-09
9.9728e-10
9.64947e-10
9.33934e-10
8.97743e-10
8.61415e-10
8.15468e-10
7.59404e-10
6.88683e-10
6.0671e-10
5.09398e-10
4.08795e-10
3.10547e-10
2.13183e-10
1.2248e-10
4.27823e-11
-1.34856e-11
-6.39195e-11
-8.30107e-11
-1.35534e-10
-1.2171e-10
-1.6444e-10
-1.7336e-10
-1.74954e-10
-1.70734e-10
-1.33332e-10
-1.31807e-10
-1.18074e-10
-1.21727e-10
-1.52704e-10
-1.94904e-10
-2.43672e-10
-2.86179e-10
-3.05587e-10
-3.19077e-10
-3.46038e-10
-3.70053e-10
-3.71663e-10
-3.76627e-10
-3.82198e-10
-3.86751e-10
-3.84229e-10
-3.68913e-10
-3.46287e-10
-3.23046e-10
-2.94364e-10
-2.67614e-10
-2.39112e-10
-2.10686e-10
-1.82705e-10
-1.55543e-10
-1.32103e-10
-1.08147e-10
-9.06679e-11
-7.41408e-11
-6.3283e-11
-5.13243e-11
-4.42781e-11
-3.52816e-11
-2.91162e-11
-2.4531e-11
-1.70486e-11
-1.1706e-11
-3.40004e-12
3.4141e-12
1.21012e-11
1.66351e-11
1.93429e-11
2.17149e-11
2.16627e-11
1.99605e-11
1.5002e-11
1.13895e-11
5.45415e-12
4.63362e-13
-1.22989e-11
-2.45176e-11
-4.27647e-11
-6.03188e-11
-8.63568e-11
-1.11076e-10
-1.4171e-10
-1.6818e-10
-1.97761e-10
-2.22092e-10
-2.49817e-10
-2.71987e-10
-2.99471e-10
-3.19941e-10
-3.48225e-10
-3.67157e-10
-3.97714e-10
-4.15818e-10
-4.49845e-10
-4.64217e-10
-5.15969e-10
1.08062e-09
1.06556e-09
1.029e-09
1.00552e-09
9.79481e-10
9.48944e-10
9.11222e-10
8.75644e-10
8.36621e-10
7.94535e-10
7.4776e-10
6.92752e-10
6.29941e-10
5.56688e-10
4.77942e-10
3.94152e-10
3.07993e-10
2.17103e-10
1.39598e-10
6.98007e-11
1.73788e-11
-2.69486e-11
-5.88398e-11
-8.53012e-11
-9.38792e-11
-1.41119e-10
-1.35081e-10
-1.28998e-10
-9.73445e-11
-1.01955e-10
-9.07083e-11
-8.473e-11
-9.6005e-11
-1.16548e-10
-1.57779e-10
-1.67752e-10
-2.2501e-10
-2.58838e-10
-2.6807e-10
-2.91026e-10
-3.18383e-10
-3.19784e-10
-3.214e-10
-3.30533e-10
-3.35759e-10
-3.32118e-10
-3.22038e-10
-3.06713e-10
-2.85758e-10
-2.64635e-10
-2.40746e-10
-2.19559e-10
-1.9595e-10
-1.76415e-10
-1.52638e-10
-1.34713e-10
-1.1573e-10
-1.01134e-10
-8.69239e-11
-7.64687e-11
-6.71371e-11
-5.87382e-11
-5.32685e-11
-4.60883e-11
-4.25525e-11
-3.70598e-11
-3.30879e-11
-2.77851e-11
-2.30068e-11
-1.5658e-11
-9.74455e-12
-2.3404e-12
4.5899e-12
1.00321e-11
1.52678e-11
1.82229e-11
2.14328e-11
2.35965e-11
2.46295e-11
2.53929e-11
2.67368e-11
2.73657e-11
2.68254e-11
2.42386e-11
2.36255e-11
2.26246e-11
2.17814e-11
1.91443e-11
1.53122e-11
9.58748e-12
3.83795e-12
-2.90685e-12
-8.24483e-12
-1.57255e-11
-1.99474e-11
-2.68828e-11
-3.07376e-11
-3.82088e-11
-4.36969e-11
-5.42819e-11
1.04154e-09
1.02086e-09
9.81951e-10
9.64733e-10
9.44139e-10
9.15205e-10
8.78256e-10
8.39744e-10
8.01463e-10
7.60593e-10
7.18499e-10
6.68442e-10
6.11789e-10
5.43316e-10
4.74263e-10
3.94256e-10
3.18824e-10
2.4248e-10
1.77911e-10
1.21484e-10
7.07811e-11
3.43544e-11
5.96679e-12
-1.24011e-11
-2.3018e-11
-2.89619e-11
-3.09012e-11
-3.19395e-11
-3.7782e-11
-4.13339e-11
-4.73462e-11
-5.76197e-11
-7.47266e-11
-1.03535e-10
-1.21023e-10
-1.62571e-10
-2.0453e-10
-2.3452e-10
-2.51544e-10
-2.85645e-10
-3.06483e-10
-3.10096e-10
-3.07853e-10
-3.13412e-10
-3.11336e-10
-3.09399e-10
-2.99453e-10
-2.87153e-10
-2.6877e-10
-2.50352e-10
-2.29175e-10
-2.10297e-10
-1.90267e-10
-1.72986e-10
-1.56448e-10
-1.41885e-10
-1.28554e-10
-1.15991e-10
-1.06047e-10
-9.63509e-11
-8.94841e-11
-8.21675e-11
-7.73976e-11
-7.18e-11
-6.84592e-11
-6.43119e-11
-6.18336e-11
-5.89371e-11
-5.66353e-11
-5.43732e-11
-5.17674e-11
-4.96326e-11
-4.60849e-11
-4.38076e-11
-3.9645e-11
-3.70426e-11
-3.31985e-11
-3.06657e-11
-2.75445e-11
-2.55467e-11
-2.28509e-11
-2.01981e-11
-1.80082e-11
-1.5193e-11
-1.2611e-11
-9.488e-12
-6.28879e-12
-2.78099e-12
2.15461e-13
3.59623e-12
6.00343e-12
8.77424e-12
1.10792e-11
1.28141e-11
1.50112e-11
1.93866e-11
2.17104e-11
2.41539e-11
2.58471e-11
2.89336e-11
1.01439e-09
1.00073e-09
9.48856e-10
9.27018e-10
9.13405e-10
8.93286e-10
8.63139e-10
8.26512e-10
7.86303e-10
7.44467e-10
7.00011e-10
6.51242e-10
5.99238e-10
5.33872e-10
4.73554e-10
4.00943e-10
3.34458e-10
2.6389e-10
1.99622e-10
1.42556e-10
9.31641e-11
5.76145e-11
2.68939e-11
8.07066e-12
-5.54247e-12
-1.53386e-11
-1.9492e-11
-2.4522e-11
-2.7388e-11
-3.64721e-11
-4.35455e-11
-5.59197e-11
-7.94784e-11
-9.58813e-11
-1.2415e-10
-1.62221e-10
-1.97898e-10
-2.14211e-10
-2.43356e-10
-2.69084e-10
-2.71397e-10
-2.77803e-10
-2.83573e-10
-2.85743e-10
-2.82574e-10
-2.79083e-10
-2.76382e-10
-2.69988e-10
-2.57845e-10
-2.42365e-10
-2.24702e-10
-2.06183e-10
-1.89358e-10
-1.72895e-10
-1.57728e-10
-1.42617e-10
-1.28399e-10
-1.15163e-10
-1.04003e-10
-9.44986e-11
-8.73341e-11
-8.14304e-11
-7.73783e-11
-7.34597e-11
-7.08987e-11
-6.83661e-11
-6.66465e-11
-6.54347e-11
-6.42509e-11
-6.31708e-11
-6.2042e-11
-6.08658e-11
-5.94525e-11
-5.71981e-11
-5.49601e-11
-5.10541e-11
-4.80063e-11
-4.34738e-11
-3.96945e-11
-3.63323e-11
-3.277e-11
-2.992e-11
-2.67088e-11
-2.41958e-11
-2.17327e-11
-1.89135e-11
-1.64844e-11
-1.32421e-11
-1.02587e-11
-7.94152e-12
-4.94527e-12
-2.92113e-12
-8.04948e-13
1.08906e-12
3.50718e-12
4.38781e-12
6.1035e-12
6.9703e-12
9.13249e-12
1.18932e-11
9.62543e-10
9.5733e-10
9.09523e-10
8.70864e-10
8.5e-10
8.36618e-10
8.16121e-10
7.85698e-10
7.48772e-10
7.04285e-10
6.59504e-10
6.09288e-10
5.58576e-10
5.00326e-10
4.42444e-10
3.76211e-10
3.15044e-10
2.49842e-10
1.94977e-10
1.4308e-10
9.88205e-11
6.30234e-11
3.21344e-11
1.38324e-11
-1.98822e-12
-1.24223e-11
-1.81896e-11
-2.36708e-11
-2.6356e-11
-3.71622e-11
-4.98783e-11
-7.10738e-11
-9.48847e-11
-1.09415e-10
-1.38197e-10
-1.65992e-10
-1.84601e-10
-2.07453e-10
-2.24608e-10
-2.5002e-10
-2.4422e-10
-2.46198e-10
-2.47578e-10
-2.51824e-10
-2.43079e-10
-2.40463e-10
-2.41028e-10
-2.41231e-10
-2.34657e-10
-2.2365e-10
-2.10227e-10
-1.94023e-10
-1.79396e-10
-1.63887e-10
-1.50512e-10
-1.35864e-10
-1.22764e-10
-1.09509e-10
-9.85495e-11
-8.71502e-11
-7.88366e-11
-7.05944e-11
-6.51768e-11
-5.89571e-11
-5.52228e-11
-5.03935e-11
-4.80155e-11
-4.42461e-11
-4.22896e-11
-3.8501e-11
-3.63427e-11
-3.18228e-11
-2.90087e-11
-2.35292e-11
-1.94056e-11
-1.43457e-11
-1.1188e-11
-3.89172e-12
-2.081e-12
-5.98348e-13
1.85668e-13
2.92173e-13
-4.16953e-13
-1.12613e-11
-9.5915e-12
-1.484e-11
-1.77598e-11
-1.83407e-11
-1.60135e-11
-1.447e-11
-1.14128e-11
-9.88386e-12
-8.55572e-12
-8.77434e-12
-7.27456e-12
-1.03095e-11
-8.91765e-12
-1.05367e-11
-1.16849e-11
-4.2458e-12
8.66333e-10
8.53527e-10
8.3329e-10
7.94205e-10
7.64514e-10
7.44429e-10
7.2536e-10
7.05423e-10
6.71233e-10
6.33144e-10
5.90323e-10
5.45286e-10
5.00108e-10
4.49513e-10
3.97846e-10
3.41659e-10
2.86071e-10
2.29206e-10
1.77183e-10
1.27948e-10
8.7035e-11
5.2078e-11
2.527e-11
7.75877e-12
-9.90073e-12
-1.60749e-11
-2.57922e-11
-3.38252e-11
-4.462e-11
-5.81296e-11
-6.97734e-11
-9.00598e-11
-1.06266e-10
-1.20769e-10
-1.45061e-10
-1.5758e-10
-1.74889e-10
-1.97517e-10
-2.14163e-10
-2.28742e-10
-2.18849e-10
-2.2128e-10
-2.26312e-10
-2.28309e-10
-2.24427e-10
-2.24431e-10
-2.24015e-10
-2.27514e-10
-2.25635e-10
-2.17424e-10
-2.05834e-10
-1.91952e-10
-1.78083e-10
-1.64308e-10
-1.52154e-10
-1.40622e-10
-1.29709e-10
-1.19518e-10
-1.09062e-10
-1.00786e-10
-9.23988e-11
-8.67415e-11
-8.09799e-11
-7.76795e-11
-7.41432e-11
-7.16675e-11
-6.90043e-11
-6.72176e-11
-6.49797e-11
-6.29624e-11
-6.03741e-11
-5.78676e-11
-5.45052e-11
-4.94939e-11
-4.6277e-11
-4.17163e-11
-3.90218e-11
-3.41038e-11
-2.96633e-11
-2.31982e-11
-1.72461e-11
-1.20015e-11
-6.82904e-12
-3.04905e-12
1.7401e-12
4.21868e-12
8.56316e-12
1.4454e-11
1.54148e-11
1.71302e-11
1.7819e-11
1.91214e-11
1.86804e-11
1.82623e-11
1.33894e-11
7.93044e-12
-4.68432e-12
-4.72231e-12
-6.10002e-12
-6.08127e-12
7.68682e-10
7.73267e-10
7.54393e-10
7.20394e-10
6.88735e-10
6.64281e-10
6.44508e-10
6.27358e-10
5.9909e-10
5.67602e-10
5.26939e-10
4.89267e-10
4.46064e-10
4.03692e-10
3.5575e-10
3.09194e-10
2.57468e-10
2.10943e-10
1.61992e-10
1.20763e-10
8.16638e-11
5.30347e-11
2.73307e-11
8.3845e-12
-5.24423e-12
-1.6175e-11
-2.60698e-11
-3.83395e-11
-5.32592e-11
-6.81435e-11
-8.25357e-11
-1.02174e-10
-1.13269e-10
-1.2913e-10
-1.4808e-10
-1.58774e-10
-1.75003e-10
-1.94863e-10
-2.13372e-10
-2.1839e-10
-2.17323e-10
-2.16681e-10
-2.20132e-10
-2.18596e-10
-2.19823e-10
-2.23884e-10
-2.23362e-10
-2.26499e-10
-2.24944e-10
-2.21304e-10
-2.13552e-10
-2.0372e-10
-1.91905e-10
-1.80818e-10
-1.69655e-10
-1.60618e-10
-1.51849e-10
-1.45684e-10
-1.39088e-10
-1.34221e-10
-1.29054e-10
-1.25428e-10
-1.21335e-10
-1.1767e-10
-1.15529e-10
-1.1315e-10
-1.09077e-10
-1.0571e-10
-1.02343e-10
-9.99423e-11
-9.74832e-11
-9.49545e-11
-9.2084e-11
-8.77969e-11
-8.53236e-11
-8.08862e-11
-7.78413e-11
-7.056e-11
-6.82761e-11
-6.87579e-11
-6.98437e-11
-6.85067e-11
-6.60528e-11
-6.18555e-11
-5.96975e-11
-5.66063e-11
-5.42859e-11
-5.10317e-11
-4.92571e-11
-4.74374e-11
-4.62887e-11
-4.30415e-11
-4.29336e-11
-4.24214e-11
-4.16189e-11
-4.28521e-11
-4.46881e-11
-4.95572e-11
-5.51134e-11
-5.435e-11
6.83109e-10
6.84134e-10
6.73854e-10
6.46639e-10
6.21721e-10
5.9676e-10
5.67058e-10
5.44421e-10
5.31429e-10
5.10218e-10
4.77376e-10
4.4813e-10
4.07815e-10
3.70292e-10
3.24538e-10
2.81806e-10
2.36503e-10
1.93518e-10
1.51507e-10
1.12793e-10
7.79481e-11
4.80855e-11
2.44637e-11
4.12562e-12
-9.84338e-12
-2.4638e-11
-3.86555e-11
-5.05175e-11
-6.62251e-11
-7.69121e-11
-8.90306e-11
-1.06141e-10
-1.13395e-10
-1.31134e-10
-1.42053e-10
-1.56061e-10
-1.70446e-10
-1.82782e-10
-2.01263e-10
-2.00953e-10
-2.06586e-10
-2.1509e-10
-2.1382e-10
-2.1824e-10
-2.23156e-10
-2.23434e-10
-2.21447e-10
-2.21243e-10
-2.22497e-10
-2.21819e-10
-2.1973e-10
-2.16232e-10
-2.11291e-10
-2.0543e-10
-1.97916e-10
-1.90629e-10
-1.82062e-10
-1.75011e-10
-1.67429e-10
-1.62023e-10
-1.56318e-10
-1.5357e-10
-1.50325e-10
-1.46941e-10
-1.44542e-10
-1.40353e-10
-1.37867e-10
-1.33967e-10
-1.29419e-10
-1.24521e-10
-1.22334e-10
-1.17994e-10
-1.14908e-10
-1.09163e-10
-1.07046e-10
-1.05175e-10
-9.8282e-11
-9.72983e-11
-9.55557e-11
-9.35784e-11
-9.13823e-11
-9.81876e-11
-9.51336e-11
-9.60743e-11
-1.03322e-10
-1.11271e-10
-1.08242e-10
-1.11235e-10
-1.12643e-10
-1.12906e-10
-1.12462e-10
-1.13553e-10
-1.10126e-10
-1.09985e-10
-1.10592e-10
-1.09581e-10
-1.09953e-10
-1.09942e-10
-1.08871e-10
-1.07269e-10
6.25386e-10
6.09933e-10
5.80623e-10
5.8006e-10
5.63413e-10
5.40154e-10
5.10455e-10
4.90767e-10
4.67497e-10
4.50172e-10
4.2578e-10
4.06329e-10
3.74406e-10
3.39349e-10
2.9599e-10
2.54392e-10
2.12115e-10
1.72008e-10
1.34268e-10
9.68692e-11
6.63681e-11
3.60517e-11
1.58622e-11
-5.01429e-12
-1.78959e-11
-3.23988e-11
-4.32545e-11
-5.33899e-11
-6.73004e-11
-7.54772e-11
-8.88639e-11
-1.00597e-10
-1.09013e-10
-1.22081e-10
-1.34448e-10
-1.44319e-10
-1.57791e-10
-1.73777e-10
-1.90658e-10
-1.92072e-10
-1.98395e-10
-2.1301e-10
-2.1725e-10
-2.26502e-10
-2.25631e-10
-2.28625e-10
-2.29093e-10
-2.26535e-10
-2.2469e-10
-2.2231e-10
-2.20097e-10
-2.17567e-10
-2.15721e-10
-2.13878e-10
-2.08768e-10
-2.04458e-10
-1.97494e-10
-1.93342e-10
-1.86775e-10
-1.8225e-10
-1.7704e-10
-1.72722e-10
-1.6853e-10
-1.62585e-10
-1.58433e-10
-1.52791e-10
-1.48399e-10
-1.43648e-10
-1.40148e-10
-1.37181e-10
-1.33403e-10
-1.30649e-10
-1.28766e-10
-1.22139e-10
-1.19687e-10
-1.14653e-10
-1.17431e-10
-1.18708e-10
-1.24027e-10
-1.21381e-10
-1.21511e-10
-1.27083e-10
-1.24488e-10
-1.27865e-10
-1.27357e-10
-1.27955e-10
-1.30104e-10
-1.2912e-10
-1.31784e-10
-1.30141e-10
-1.30058e-10
-1.31058e-10
-1.32073e-10
-1.36973e-10
-1.4199e-10
-1.41166e-10
-1.40968e-10
-1.40856e-10
-1.36399e-10
-1.34026e-10
5.6756e-10
5.36422e-10
5.11255e-10
5.08717e-10
5.14048e-10
5.00786e-10
4.68017e-10
4.38273e-10
4.0908e-10
3.85283e-10
3.67427e-10
3.54781e-10
3.30811e-10
2.97632e-10
2.55037e-10
2.1423e-10
1.7437e-10
1.3789e-10
1.05184e-10
7.37224e-11
4.79484e-11
2.33117e-11
5.98337e-12
-1.08685e-11
-2.20967e-11
-3.66841e-11
-4.65421e-11
-5.88802e-11
-7.18913e-11
-7.86941e-11
-9.36839e-11
-1.01231e-10
-1.13534e-10
-1.23635e-10
-1.35053e-10
-1.46879e-10
-1.58738e-10
-1.74447e-10
-1.87475e-10
-1.90432e-10
-2.01969e-10
-2.17055e-10
-2.20444e-10
-2.22256e-10
-2.24793e-10
-2.29443e-10
-2.27604e-10
-2.27097e-10
-2.23311e-10
-2.2255e-10
-2.18747e-10
-2.16662e-10
-2.12692e-10
-2.1092e-10
-2.06474e-10
-2.04288e-10
-2.00159e-10
-1.96862e-10
-1.94111e-10
-1.89127e-10
-1.86291e-10
-1.80807e-10
-1.73694e-10
-1.68252e-10
-1.58143e-10
-1.51959e-10
-1.42329e-10
-1.36427e-10
-1.27121e-10
-1.22217e-10
-1.14874e-10
-1.11264e-10
-1.05833e-10
-9.78982e-11
-9.86799e-11
-1.0391e-10
-1.12479e-10
-1.09354e-10
-1.10218e-10
-1.12221e-10
-1.13745e-10
-1.23473e-10
-1.24417e-10
-1.31809e-10
-1.38018e-10
-1.45496e-10
-1.40847e-10
-1.41053e-10
-1.4192e-10
-1.48766e-10
-1.50394e-10
-1.57259e-10
-1.54091e-10
-1.52704e-10
-1.45964e-10
-1.40011e-10
-1.32416e-10
-1.2766e-10
-1.19975e-10
-1.15706e-10
5.04479e-10
4.86745e-10
4.47023e-10
4.25653e-10
4.23318e-10
4.27495e-10
4.01664e-10