/*--------------------------------*- C++ -*----------------------------------*\
  =========                 |
  \\      /  F ield         | OpenFOAM: The Open Source CFD Toolbox
   \\    /   O peration     | Website:  https://openfoam.org
    \\  /    A nd           | Version:  8
     \\/     M anipulation  |
\*---------------------------------------------------------------------------*/
FoamFile
{
    version     2.0;
    format      ascii;
    class       volScalarField;
    location    "1.500023";
    object      epsilon;
}
// * * * * * * * * * * * * * * * * * * * * * * * * * * * * * * * * * * * * * //

dimensions      [0 2 -3 0 0 0 0];

internalField   nonuniform List<scalar> 
6800
(
12449.7
31827
38955.2
38879.8
31475
14395.7
6539.25
3177.01
1557.32
791.292
12447.9
42710.9
38903.9
24967.8
10853.4
5124.42
2564.16
1258.9
583.094
285.038
10850.5
29938.7
21826.6
10407.1
5226.62
2613.96
1294.5
550.932
222.814
103.495
7025.81
19282.6
12871.2
6390.5
3356.18
1557.24
548.218
205.097
88.7069
47.7268
8434.86
12263.5
8886.61
4625.22
1814.5
602.877
216.912
92.1027
47.6485
31.3283
11573.4
11012.1
6868.64
2554.37
877.207
291.016
112.385
55.7503
34.056
25.8221
11706.6
9569.12
4913.54
1762.83
541.905
171.807
73.433
42.1341
28.3951
23.475
12352.8
8335.17
3692.37
945.665
263.307
98.3651
51.845
33.3324
24.3604
21.6188
12158.5
7819.27
2749.79
691.393
188.247
78.4368
45.1988
30.3409
23.038
21.1014
12056.6
7183.38
2025.94
380.605
117.694
61.0872
37.6061
26.6254
21.3933
20.1165
12445.1
4960.32
3851.05
3571.43
3536.2
3652.3
3854.79
4105.52
4385.94
4685.08
12084.1
4849.86
3786.5
3541.27
3540.91
3708.76
3976.81
4314.61
4709.63
5153.59
11485.4
4654.41
3677.38
3480.72
3563.64
3833.31
4236.86
4760.91
5412.16
6182.6
10626.2
4406.07
3537.28
3426.95
3638.24
4070.86
4695.84
5539.87
6670.4
8079.11
9547.74
4172.79
3446.21
3472.92
3877.04
4584.12
5593.32
7002.14
9121.37
12039.1
8482.9
4026.19
3523.58
3803.44
4605.48
5912.51
7855.22
10623.9
15070.4
20620.1
7572.95
4149.58
4052.4
4972.47
6775.44
9947.32
15050.4
21225.2
27705.4
28010
7321.58
4598.04
5858.91
8586.06
13420.1
21868.1
29791.5
32473.6
32529.5
26386
7529.98
7335.52
11702.9
19002.7
29242.7
35191.6
35268.7
31259
23786.9
9508.39
9157.51
13479.8
26517.8
34099.5
38536.4
35348.3
24593.8
11105
5422.74
2279.9
5110.9
5651.12
6200.7
6741.3
7260.97
7750.91
8207.1
8626.84
9009.92
9357.62
9666.38
9937.53
10172.3
10373.4
10540.9
10665.9
10753.8
10794.4
10786.7
10730.9
10618.2
10458.1
10254.9
10015.5
9747.23
9457.48
9153.69
8842.26
8528.91
8217.97
7912.7
7615.71
7331.6
7063.43
6813.16
6581.45
6367.87
6170.8
5987.63
5815.43
5651.45
5493.12
5338.35
5185.61
5033.94
4882.87
4732.37
4582.75
4434.51
4288.27
4144.69
4004.43
3868.09
3736.2
3609.16
3487.32
3370.87
3259.91
3154.44
3054.38
2959.56
2869.76
2784.71
2704.1
2627.62
2554.95
2485.76
2419.75
2356.65
2296.2
2238.16
2182.33
2128.53
2076.58
2026.35
1977.73
1930.61
1884.91
1840.56
1797.51
1755.72
1715.14
1675.75
1637.52
1600.41
1564.4
1529.45
1495.52
1462.62
1430.62
1399.65
1369.39
1340.33
1311.5
1284.53
1256.44
1232.47
1203.23
1185.4
1148.49
5774.45
6487.68
7226.89
7949.61
8639.19
9282.85
9875.05
10411.7
10894.8
11328.9
11704.9
12026.7
12298.1
12532.2
12716.9
12842.7
12914.9
12922.7
12875.1
12760.1
12581.7
12345.3
12057.4
11727.2
11364.1
10977.5
10577.1
10170.9
9766.66
9368.86
8983.25
8614.65
8266.68
7941.64
7640.77
7363.78
7109.16
6874.16
6654.85
6447.32
6248.47
6055.66
5866.85
5680.72
5496.59
5314.29
5134.07
4956.47
4782.12
4611.76
4446.06
4285.62
4130.98
3982.55
3840.6
3705.32
3576.75
3454.82
3339.37
3230.16
3126.93
3029.32
2936.99
2849.55
2766.61
2687.81
2612.79
2541.21
2472.78
2407.22
2344.29
2283.78
2225.48
2169.24
2114.91
2062.37
2011.51
1962.25
1914.51
1868.25
1823.41
1779.95
1737.84
1697.03
1657.5
1619.18
1582.07
1546.08
1511.23
1477.37
1444.65
1412.7
1382.07
1351.66
1323.31
1293.72
1268.58
1237.81
1219.16
1180.39
7192.04
8241.02
9331.84
10380.5
11370
12279.2
13106.3
13846.3
14520
15091
15568.9
15958
16271.3
16523.8
16698
16789.3
16800.8
16736.4
16587.2
16353.8
16038.1
15646.8
15191.1
14686
14143.9
13577
12999.1
12420.7
11853.9
11308.1
10789.3
10302
9848.82
9430.29
9046.2
8694.22
8370.85
8071.51
7789.92
7520.66
7260.54
7007.11
6758.64
6514.34
6274.12
6038.31
5807.58
5582.82
5364.83
5154.4
4952.15
4758.55
4573.94
4398.46
4232.17
4075
3926.65
3786.73
3654.83
3530.5
3413.25
3302.6
3198.03
3099.06
3005.2
2916.02
2831.1
2750.06
2672.57
2598.34
2527.1
2458.63
2392.73
2329.21
2267.93
2208.75
2151.55
2096.26
2042.79
1991.08
1941.08
1892.74
1846
1800.83
1757.16
1714.93
1674.12
1634.62
1596.45
1559.42
1523.71
1488.85
1455.53
1422.41
1391.7
1359.49
1332.38
1298.95
1278.92
1236.89
9612.13
11137.5
12679.4
14130.4
15473.1
16674.7
17748
18690.9
19494.6
20122.6
20623.8
20991.6
21245.6
21412.4
21499.2
21478.1
21368.7
21142.4
20817.9
20394.6
19860.4
19238.4
18548.3
17804
17026
16235.9
15453.6
14692.9
13962.9
13273.2
12627.4
12028
11475.4
10967.3
10501.3
10072.8
9676.24
9306.46
8954.96
8615.09
8285.2
7963.99
7650.23
7343.81
7045.32
6755.39
6474.85
6204.62
5945.33
5697.59
5461.72
5237.87
5026.07
4826.15
4637.74
4460.4
4293.62
4136.77
3989.2
3850.27
3719.34
3595.8
3479.05
3368.48
3263.56
3163.79
3068.72
2977.94
2891.09
2807.87
2728.01
2651.28
2577.45
2506.33
2437.77
2371.62
2307.78
2246.13
2186.61
2129.14
2073.68
2020.15
1968.51
1918.68
1870.61
1824.2
1779.42
1736.14
1694.39
1653.91
1614.97
1576.92
1540.7
1504.58
1471.33
1436.19
1406.98
1370.55
1349.06
1303.32
13916.3
15828.2
17694.5
19389.5
20901.4
22183.4
23275.9
24189
24850
25327
25640.7
25802.3
25831.5
25765.1
25595.1
25281.6
24843.9
24287.2
23625.9
22867.5
22053
21189.3
20282.8
19350.7
18412.7
17487.6
16593.3
15741.8
14936.3
14184.5
13486.5
12842.3
12250.6
11705.5
11203.1
10737.6
10302.4
9893.65
9502.52
9121.27
8750.68
8391.42
8042.54
7704.32
7377.84
7063.72
6762.49
6474.86
6200.98
5941.03
5694.97
5462.52
5243.42
5037.19
4843.18
4660.83
4489.36
4327.96
4175.85
4032.34
3896.78
3768.58
3647.15
3531.91
3422.32
3317.91
3218.26
3122.95
3031.65
2944.08
2859.96
2779.08
2701.21
2626.16
2553.79
2483.94
2416.51
2351.42
2288.61
2228
2169.52
2113.09
2058.67
2006.16
1955.52
1906.64
1859.5
1813.91
1769.99
1727.34
1686.4
1646.28
1608.27
1570.11
1535.32
1498.12
1467.68
1429.12
1406.78
1358.32
21572.4
23021.2
24548.6
25850.5
26954.2
27705.4
28225.8
28591.3
28739.1
28701.1
28588.3
28395.3
28092.6
27705.2
27224.8
26611.6
25863.8
24999.1
24041.6
23012.3
21931.9
20820
19712.9
18638
17611.7
16646.8
15747
14917
14147
13438.5
12786.2
12184.6
11632.4
11119.4
10639.9
10190.6
9763.51
9360.06
8974.49
8598.41
8235.15
7887.26
7553.04
7233.26
6929.25
6640.95
6367.74
6109.66
5865.81
5635.69
5418.74
5214.06
5021.24
4839.45
4667.85
4505.94
4352.93
4208.01
4070.5
3939.85
3815.63
3697.46
3584.97
3477.66
3375.19
3277.13
3183.22
3093.11
3006.51
2923.23
2843.05
2765.76
2691.18
2619.16
2549.54
2482.21
2417.09
2354.07
2293.13
2234.19
2177.24
2122.17
2068.97
2017.54
1967.89
1919.86
1873.52
1828.59
1785.33
1743.17
1702.81
1663
1625.53
1587.52
1553.29
1516.08
1486.22
1447.6
1425.71
1377.02
28756
29218.6
29547.4
29789.3
29945.7
29917.1
29724.9
29570.8
29213.9
28740.4
28135.6
27492.2
26759.7
25928.2
24981.4
23910.9
22725.8
21456
20138.7
18816.6
17534.8
16324.9
15215.4
14218.6
13331.2
12553.7
11859.1
11244.9
10687.2
10177.8
9712.41
9275.5
8873.91
8493.62
8130.67
7786.93
7454.64
7138.97
6844.04
6564.01
6299.31
6052.65
5818.08
5597.9
5393.95
5205.54
5029.84
4866.17
4712.55
4567.97
4431.74
4302.11
4179.15
4061.58
3948.33
3839.48
3734.62
3633.33
3535.42
3440.69
3349.25
3261.07
3176.22
3094.38
3015.58
2939.46
2866.04
2795.05
2726.38
2659.98
2595.66
2533.29
2472.73
2413.93
2356.78
2301.15
2246.98
2194.23
2142.88
2092.89
2044.28
1996.98
1951.04
1906.36
1863.05
1820.92
1780.19
1740.45
1702.19
1664.62
1628.78
1593.04
1559.68
1525.29
1494.82
1460.89
1434.32
1399.02
1379.49
1334.61
25622.2
24898.5
24176.1
23650.2
23131.1
22813.5
22364.4
22014
21528.6
20968.4
20193
19369.6
18398.4
17253.7
15966.1
14582.2
13156.7
11749.9
10415.1
9206.3
8165.2
7306.59
6608.63
6070.79
5634.47
5309.85
5036.06
4804.62
4578.55
4372.38
4163.5
3973.33
3794.38
3649.14
3510.07
3404.73
3304.31
3216.49
3150.61
3090.21
3031.13
2985.7
2945.13
2909.8
2880.06
2857.55
2838.44
2822.14
2807.3
2791.74
2775.04
2755.21
2733.6
2707.26
2676.88
2643.49
2608.5
2571.78
2533.91
2494.92
2455.56
2415.99
2376.95
2338.01
2299.8
2261.56
2224.15
2187
2150.6
2114.75
2079.04
2043.72
2008.67
1974.26
1940.09
1906.03
1872.09
1838.3
1804.68
1771.31
1738.3
1705.61
1673.44
1641.7
1610.67
1580.09
1550.39
1521.05
1492.79
1464.62
1437.87
1410.67
1385.6
1359.05
1336.04
1309.51
1289.32
1261.54
1246.56
1210.49
9122.56
8791.79
8415.67
8199
7871.92
7699.07
7454.3
7185.98
6869.51
6578.15
6170.84
5764.03
5292.68
4764.07
4212.11
3663.66
3143.08
2666.63
2254.95
1914.1
1643.94
1438.58
1278.5
1166.19
1072.1
1011.92
958.836
913.321
867.052
819.309
770.914
726.799
685.385
659.597
636.615
627.223
624.369
618.33
623.291
636.1
646.03
660.929
676.535
696.3
717.167
743.748
773.009
805.268
840.647
876.598
914.043
951.328
987.701
1024.48
1060.92
1095.36
1128.74
1159.3
1187.83
1212.93
1235.68
1255.07
1272.31
1286.61
1299.31
1308.98
1317.46
1323.13
1328.23
1330.82
1328.57
1328.05
1323.3
1321.94
1317.45
1311.1
1303.36
1294.19
1284.01
1272.77
1260.92
1248.28
1235.18
1221.49
1207.72
1193.52
1179.56
1165.18
1151.31
1136.89
1123.27
1108.79
1095.69
1081.06
1068.7
1053.56
1042.38
1026.14
1017.58
995.445
2264.05
2233.23
2155.23
2074.34
1958.2
1844.19
1721.14
1598.25
1462.68
1336.85
1203
1069.39
937.77
807.158
683.299
569.99
470.825
386.558
318.642
264.852
223.69
192.57
168.32
150.36
135.112
124.111
114.229
105.415
97.3183
89.113
81.6824
75.0972
68.9596
64.6736
60.8163
58.4372
56.6346
55.5043
54.7232
55.138
55.933
57.5479
59.6342
62.7335
65.9258
70.7428
76.295
83.054
91.2496
100.244
111.1
122.736
136.385
150.899
167.362
184.375
203.257
222.686
243.407
264.332
285.945
307.549
329.701
351.761
374.131
396.344
418.371
440.564
462.436
484.224
505.792
527.271
547.949
567.979
586.985
604.521
620.73
635.16
648.158
659.489
669.638
678.279
685.72
691.83
697.056
701.149
704.659
707.164
709.174
710.308
710.974
711.685
711.992
711.325
710.38
708.749
707.35
704.937
703.666
698.803
427.345
454.976
456.966
449.255
437.472
420.365
399.044
374.592
346.821
317.56
286.953
255.939
225.594
196.527
169.747
145.66
124.775
106.932
92.1972
80.0396
70.2066
62.1456
55.4894
49.9453
45.2118
41.1959
37.6264
34.4631
31.6096
29.038
26.7112
24.6559
22.7473
21.1124
19.5773
18.2751
17.092
16.0698
15.2097
14.4898
13.8486
13.3585
12.9086
12.5803
12.2505
12.0619
11.8572
11.807
11.7119
11.7456
11.8821
12.0903
12.5144
12.9682
13.7453
14.5827
15.7767
17.1653
18.8965
20.9448
23.2884
26.0923
29.1597
32.859
36.7743
41.5074
46.3932
52.3429
58.4966
65.7809
73.4093
82.1213
91.2031
101.197
111.446
122.403
133.387
144.925
156.28
168.068
179.569
191.556
202.979
214.86
225.993
237.687
248.429
259.897
270.289
281.701
291.612
302.866
312.085
323.117
331.355
342.128
349.089
359.651
365.184
375.87
193.859
191.896
189.894
184.401
177.013
168.212
158.302
147.668
136.399
124.894
113.333
101.97
91.0968
80.8932
71.5938
63.2432
55.9622
49.6378
44.2882
39.7185
35.8782
32.605
29.8147
27.4124
25.311
23.4684
21.8157
20.3343
18.9933
17.7786
16.6697
15.6757
14.7604
13.9602
13.2206
12.5899
12.0089
11.5106
11.0754
10.6815
10.3305
10.0289
9.74517
9.49161
9.2497
9.03301
8.82353
8.63227
8.44809
8.27541
8.11078
7.95343
7.80511
7.66312
7.52971
7.40351
7.28543
7.17788
7.07798
6.99148
6.91445
6.85476
6.80876
6.78277
6.78395
6.81692
6.85588
6.97212
7.07799
7.32639
7.53161
7.9663
8.31712
9.01448
9.54605
10.5821
11.3158
12.7733
13.7459
15.6792
16.9485
19.4242
21.0187
24.1474
26.1145
29.9884
32.3957
37.1032
39.9841
45.6614
49.0303
55.7669
59.6338
67.4447
71.8208
80.5937
85.5079
94.9995
100.862
111.641
89.6654
89.3132
88.5042
86.5402
83.6433
80.0486
75.9406
71.4666
66.7175
61.8312
56.9164
52.0813
47.4385
43.0638
39.044
35.3892
32.1503
29.2746
26.7881
24.6021
22.7263
21.0822
19.6587
18.4006
17.2901
16.2957
15.4013
14.5925
13.8575
13.1887
12.5806
12.0317
11.5364
11.0916
10.6903
10.3301
9.99659
9.70084
9.42626
9.17197
8.93656
8.72605
8.52185
8.33537
8.15321
7.98844
7.82413
7.67584
7.52584
7.39108
7.2525
7.1288
6.99953
6.88511
6.76364
6.65704
6.54195
6.44245
6.33288
6.2394
6.13473
6.04643
5.94639
5.86304
5.76862
5.69163
5.60258
5.53162
5.44782
5.3827
5.30434
5.24565
5.17307
5.12151
5.05543
5.01195
4.95397
4.91975
4.87315
4.84936
4.82
4.8069
4.81768
4.82842
4.85963
4.90725
4.96816
5.08301
5.19449
5.40553
5.59115
5.94253
6.23057
6.7862
7.1967
8.04576
8.59277
9.88984
10.4735
13.0206
45.3187
45.2265
44.9921
44.3109
43.2072
41.7824
40.1215
38.2701
36.2818
34.2032
32.0901
29.9881
27.9457
25.9959
24.1731
22.4837
20.9476
19.5538
18.3149
17.2044
16.2286
15.3487
14.5782
13.873
13.2526
12.6769
12.1683
11.691
11.2674
10.8701
10.5124
10.1765
9.86908
9.57632
9.30904
9.05018
8.81574
8.58884
8.38646
8.18504
8.01021
7.83964
7.68557
7.5316
7.3937
7.25559
7.1301
7.00273
6.88601
6.76665
6.65685
6.54442
6.44064
6.33461
6.23634
6.13644
6.04324
5.94932
5.86073
5.77239
5.68794
5.60494
5.52432
5.44636
5.36924
5.29587
5.22196
5.15277
5.08193
5.01656
4.94873
4.88697
4.82207
4.76364
4.70145
4.64601
4.58623
4.5334
4.47573
4.42563
4.36993
4.32272
4.26872
4.22449
4.17208
4.13105
4.08012
4.04255
3.99332
3.95939
3.91251
3.88246
3.83895
3.81352
3.77468
3.75554
3.72351
3.71289
3.69072
3.68989
26.9623
26.9025
26.782
26.4935
26.0048
25.3704
24.6218
23.7877
22.8854
21.9383
20.9651
19.9866
19.0197
18.0793
17.1778
16.3274
15.5384
14.8108
14.1443
13.533
12.9742
12.4605
11.992
11.5616
11.1665
10.8023
10.4676
10.1557
9.86893
9.59689
9.34494
9.10344
8.87858
8.6617
8.46032
8.26411
8.08367
7.90619
7.74466
7.58165
7.43903
7.29284
7.16115
7.02657
6.90641
6.78109
6.66906
6.55149
6.44764
6.33715
6.24096
6.13695
6.04767
5.94963
5.86657
5.774
5.69645
5.60877
5.53597
5.45252
5.38383
5.30416
5.23915
5.16294
5.10125
5.02813
4.9695
4.89918
4.84349
4.77579
4.72303
4.65791
4.60804
4.54538
4.49828
4.43784
4.39325
4.33471
4.29241
4.23544
4.19524
4.1397
4.10143
4.04721
4.01076
3.95781
3.92311
3.8714
3.83837
3.7878
3.75638
3.70687
3.67697
3.62843
3.60005
3.55232
3.52563
3.47772
3.45711
3.38908
19.1124
19.0509
18.9231
18.72
18.443
18.0955
17.6977
17.2565
16.7843
16.2864
15.7739
15.2494
14.7275
14.2083
13.7109
13.2256
12.7707
12.3303
11.9243
11.5307
11.1738
10.8279
10.5154
10.2125
9.93907
9.67449
9.43325
9.19898
8.98185
8.77213
8.5734
8.38272
8.20047
8.02339
7.85674
7.69187
7.53892
7.38873
7.24712
7.10918
6.98505
6.85947
6.74539
6.63003
6.52452
6.41637
6.31836
6.21643
6.12474
6.02805
5.94211
5.85006
5.76909
5.68119
5.60462
5.52055
5.44804
5.36761
5.29891
5.22194
5.15681
5.08312
5.02137
4.95081
4.89224
4.82453
4.76896
4.70392
4.65124
4.58875
4.5389
4.47886
4.43174
4.37394
4.32937
4.27348
4.23122
4.17692
4.13676
4.08375
4.04556
3.99378
3.95739
3.90669
3.87202
3.82234
3.78928
3.74059
3.70909
3.66123
3.63123
3.58407
3.55551
3.50899
3.48194
3.43605
3.41025
3.36581
3.33738
3.28881
15.4759
15.388
15.2713
15.109
14.9196
14.6845
14.4283
14.1432
13.8484
13.5379
13.2214
12.8974
12.5702
12.2432
11.9201
11.6025
11.2955
10.9945
10.7093
10.429
10.1668
9.91006
9.67123
9.4354
9.22027
9.00589
8.81132
8.61571
8.43897
8.25973
8.09668
7.93104
7.77957
7.6248
7.48399
7.34051
7.20826
7.07512
6.95227
6.82966
6.71772
6.60177
6.49762
6.38921
6.2917
6.18895
6.09752
6.00062
5.91481
5.82334
5.74291
5.65621
5.58031
5.49756
5.42545
5.34612
5.27754
5.2015
5.13638
5.06352
5.00174
4.93189
4.87328
4.80626
4.75062
4.68625
4.63342
4.57143
4.52129
4.46151
4.41396
4.35627
4.31119
4.25547
4.21267
4.1587
4.11799
4.06556
4.02678
3.97563
3.93859
3.88855
3.85313
3.80415
3.7703
3.72229
3.68998
3.6429
3.6121
3.56585
3.53659
3.4911
3.46334
3.41858
3.39232
3.34816
3.3235
3.27912
3.26002
3.19728
13.6024
13.4972
13.3758
13.2332
13.0806
12.9007
12.7087
12.4955
12.2801
12.0508
11.8229
11.5836
11.3444
11.0983
10.8555
10.6117
10.3741
10.1376
9.90934
9.68289
9.46757
9.2533
9.05343
8.85514
8.67064
8.48822
8.31879
8.15131
7.99505
7.84024
7.69446
7.55001
7.41365
7.27648
7.14981
7.0191
6.90055
6.77879
6.66575
6.55506
6.45067
6.34584
6.25086
6.15158
6.06182
5.96872
5.88469
5.79598
5.71626
5.63164
5.55617
5.4752
5.40362
5.32592
5.25777
5.18306
5.11817
5.04632
4.98455
4.9154
4.85652
4.78982
4.73367
4.66936
4.61584
4.55385
4.50296
4.44321
4.39484
4.33719
4.29127
4.23562
4.19201
4.13818
4.09672
4.04449
4.00504
3.95422
3.91667
3.86707
3.83129
3.78284
3.74876
3.70142
3.66895
3.62263
3.59175
3.54646
3.51712
3.47279
3.44498
3.40154
3.3752
3.33257
3.30767
3.26582
3.24207
3.20175
3.1752
3.13053
12.489
12.3863
12.2632
12.1269
11.9888
11.8331
11.6689
11.4925
11.314
11.1282
10.9434
10.7489
10.5532
10.3478
10.1466
9.94129
9.74328
9.54346
9.35245
9.15994
8.97824
8.79512
8.62361
8.45177
8.29067
8.13014
7.98059
7.83153
7.69219
7.55393
7.42245
7.29349
7.1691
7.04634
6.93062
6.81252
6.70489
6.59273
6.49103
6.38861
6.29185
6.19384
6.10413
6.01062
5.92651
5.83781
5.75786
5.67299
5.59736
5.5168
5.44571
5.36888
5.30147
5.22757
5.1631
5.09171
5.02993
4.96091
4.9017
4.83499
4.77832
4.71379
4.65962
4.59723
4.5455
4.4852
4.4358
4.37746
4.33033
4.27381
4.22883
4.17407
4.13123
4.07811
4.03734
3.98576
3.94699
3.89681
3.85992
3.81106
3.77596
3.72833
3.69493
3.64847
3.61669
3.57136
3.54118
3.49684
3.46821
3.42479
3.39767
3.35506
3.32936
3.28757
3.2632
3.2221
3.19922
3.15793
3.14021
3.08111
11.7879
11.6713
11.5519
11.4263
11.2951
11.1511
11.0009
10.8407
10.6817
10.5168
10.3572
10.1872
10.0166
9.83474
9.65803
9.47671
9.30311
9.12732
8.95819
8.78844
8.62499
8.46182
8.30561
8.14972
8.0026
7.85535
7.71802
7.58022
7.45233
7.32347
7.20298
7.08187
6.96757
6.8523
6.7447
6.63396
6.53266
6.42683
6.33124
6.23217
6.13986
6.04663
5.96146
5.87196
5.79109
5.70566
5.62877
5.54669
5.47429
5.39584
5.32706
5.25211
5.18698
5.11523
5.05323
4.98417
4.92481
4.85807
4.80124
4.73674
4.68245
4.6201
4.56832
4.50816
4.4588
4.40078
4.3537
4.29764
4.25269
4.19832
4.15533
4.10241
4.06117
4.00955
3.96995
3.91948
3.8815
3.83217
3.79582
3.74764
3.71296
3.66595
3.63291
3.58707
3.55564
3.51091
3.48104
3.43734
3.40896
3.36625
3.33933
3.29754
3.27203
3.23111
3.20699
3.16679
3.14425
3.10389
3.08656
3.02866
11.3016
11.1779
11.0529
10.937
10.8153
10.6783
10.5379
10.3888
10.2387
10.0865
9.94028
9.78676
9.63
9.4629
9.30217
9.13796
8.98223
8.82313
8.67074
8.51517
8.36684
8.21586
8.073
7.92819
7.79239
7.65507
7.52805
7.39916
7.28081
7.15954
7.04794
6.93356
6.82724
6.71806
6.61738
6.51166
6.41642
6.31515
6.22342
6.12871
6.04004
5.94949
5.86685
5.7794
5.70018
5.61672
5.54182
5.46183
5.39024
5.3137
5.24588
5.17276
5.10842
5.03826
4.97701
4.90947
4.8512
4.78606
4.73065
4.66798
4.61532
4.5551
4.50507
4.44716
4.39968
4.34385
4.29866
4.24467
4.20144
4.14894
4.10747
4.0562
4.0163
3.96609
3.92754
3.87823
3.84107
3.79273
3.75701
3.70972
3.67551
3.62925
3.59653
3.5513
3.52005
3.4759
3.44614
3.40296
3.37463
3.33232
3.30536
3.26388
3.23831
3.19762
3.17345
3.13352
3.1106
3.07215
3.04679
3.00422
10.9778
10.8408
10.7269
10.6023
10.4827
10.3621
10.2324
10.0915
9.94987
9.80452
9.66773
9.52685
9.38329
9.22759
9.07603
8.92004
8.77055
8.61817
8.47196
8.32349
8.18219
8.03886
7.90326
7.7657
7.63636
7.50581
7.38411
7.2607
7.14671
7.03051
6.92279
6.8126
6.7098
6.6038
6.50604
6.40333
6.31035
6.21158
6.12307
6.02982
5.94375
5.85585
5.7754
5.69106
5.61459
5.53467
5.46189
5.38415
5.3149
5.24028
5.17397
5.1022
5.03916
4.97018
4.9101
4.84377
4.78639
4.72257
4.6679
4.60644
4.55451
4.49527
4.4459
4.38872
4.34171
4.28646
4.24167
4.18814
4.14538
4.09341
4.05251
4.00184
3.96264
3.91318
3.87565
3.82742
3.7916
3.74458
3.71042
3.66454
3.63202
3.58723
3.55627
3.51255
3.48317
3.44046
3.41253
3.37074
3.34413
3.30304
3.27761
3.23719
3.21294
3.17309
3.14995
3.11061
3.08872
3.04906
3.03204
2.97536
10.7094
10.5873
10.4547
10.3404
10.2183
10.0831
9.96297
9.83499
9.69848
9.55996
9.43306
9.30441
9.1776
9.03835
8.90135
8.75351
8.6048
8.45151
8.30495
8.15881
8.02149
7.88318
7.75358
7.62105
7.4975
7.37111
7.25383
7.13418
7.02398
6.91027
6.80586
6.69772
6.59737
6.49433
6.39814
6.29868
6.20818
6.11242
6.02713
5.93678
5.85499
5.77136
5.69386
5.61346
5.54094
5.46363
5.39372
5.31926
5.25241
5.18003
5.11599
5.04609
4.98499
4.91737
4.85897
4.79374
4.73782
4.67497
4.62154
4.56109
4.51026
4.45195
4.40355
4.34725
4.30113
4.24662
4.2026
4.14965
4.10757
4.05602
4.01581
3.96558
3.92723
3.87833
3.8418
3.7942
3.75946
3.71309
3.68014
3.63506
3.60392
3.56012
3.53072
3.4881
3.46035
3.41882
3.39254
3.35194
3.32694
3.28705
3.26316
3.22384
3.20086
3.16192
3.13981
3.10114
3.07993
3.04082
3.0241
2.96789
10.5228
10.3825
10.2582
10.1465
10.0219
9.906
9.77022
9.6345
9.50405
9.36648
9.24211
9.12516
9.001
8.86668
8.73281
8.58717
8.44935
8.30805
8.17233
8.03415
7.90393
7.77193
7.64719
7.51898
7.39897
7.27466
7.15947
7.04119
6.93156
6.81974
6.71559
6.60998
6.51117
6.4105
6.31743
6.22101
6.133
6.04093
5.95832
5.87077
5.79108
5.70962
5.63444
5.55514
5.48439
5.4082
5.33993
5.26617
5.2003
5.12899
5.06604
4.99804
4.93855
4.87319
4.81644
4.75358
4.69937
4.63867
4.58708
4.52835
4.47917
4.42235
4.37529
4.32027
4.27527
4.22189
4.1789
4.12701
4.08596
4.03543
3.9962
3.94693
3.90943
3.86132
3.82547
3.77846
3.74415
3.69821
3.66541
3.62052
3.58921
3.54532
3.51549
3.47258
3.44419
3.40225
3.37523
3.33424
3.30855
3.26847
3.244
3.20473
3.18142
3.14284
3.12057
3.08255
3.0614
3.02304
3.00661
2.95076
10.3673
10.2323
10.1165
9.99529
9.85957
9.74186
9.61655
9.48357
9.34348
9.19964
9.06898
8.94368
8.81761
8.6842
8.55399
8.42066
8.28994
8.15592
8.02894
7.89969
7.77649
7.6513
7.53154
7.4098
7.29414
7.17527
7.06402
6.9495
6.84264
6.73359
6.63186
6.52924
6.43281
6.33628
6.24542
6.15291
6.06859
5.97872
5.89897
5.81329
5.73713
5.6565
5.58205
5.5048
5.43512
5.36079
5.29403
5.22292
5.16023
5.09145
5.03137
4.96601
4.90891
4.8457
4.79086
4.72928
4.67653
4.61669
4.56622
4.50825
4.45995
4.40392
4.35763
4.30331
4.25895
4.20615
4.16339
4.11194
4.07093
4.02086
3.98156
3.93293
3.89535
3.84804
3.81212
3.76599
3.73161
3.68647
3.65349
3.60921
3.57746
3.53394
3.50338
3.46056
3.4312
3.38907
3.36099
3.31954
3.29273
3.25192
3.22639
3.18622
3.16194
3.12238
3.09932
3.06037
3.03835
3.00072
2.97626
2.93467
10.2137
10.1055
9.97767
9.83976
9.73197
9.60967
9.47976
9.35109
9.21293
9.06625
8.93768
8.80734
8.68348
8.55464
8.42874
8.29678
8.16745
8.03656
7.91139
7.784
7.66585
7.54571
7.43317
7.31898
7.21066
7.09958
6.99472
6.88643
6.78511
6.68133
6.58464
6.48506
6.39285
6.297
6.20926
6.11743
6.03212
5.94487
5.86406
5.77967
5.70418
5.62285
5.55146
5.47602
5.40783
5.33538
5.27041
5.20172
5.14025
5.0729
5.0146
4.95023
4.89424
4.83149
4.77771
4.7171
4.66443
4.60547
4.55486
4.49672
4.44798
4.39101
4.3439
4.28865
4.24317
4.18966
4.14599
4.09387
4.05211
4.0016
3.9618
3.91271
3.87469
3.82705
3.7907
3.74451
3.70977
3.66471
3.63146
3.58737
3.55547
3.51219
3.48153
3.43898
3.40958
3.36773
3.33964
3.29846
3.27165
3.23107
3.20552
3.16549
3.14118
3.10165
3.07858
3.03953
3.01784
2.97856
2.96165
2.90648
10.1644
10.0296
9.91234
9.79477
9.66896
9.54524
9.42135
9.28652
9.1574
9.0161
8.8877
8.75663
8.62923
8.49462
8.35917
8.22306
8.09181
7.95793
7.83463
7.70976
7.59255
7.47381
7.36163
7.24756
7.1404
7.03038
6.92785
6.82196
6.72315
6.62179
6.52632
6.42846
6.3369
6.24175
6.15362
6.06225
5.97855
5.89093
5.81217
5.73037
5.65635
5.57815
5.50978
5.43563
5.36969
5.29953
5.23665
5.16784
5.10708
5.04081
4.98211
4.9177
4.86186
4.79913
4.74443
4.68352
4.63061
4.5712
4.52038
4.4627
4.41368
4.35741
4.31042
4.25557
4.21048
4.15729
4.11392
4.06219
4.02073
3.97044
3.93072
3.88189
3.84394
3.79639
3.76017
3.7139
3.67925
3.63408
3.60098
3.55692
3.52528
3.48224
3.45205
3.40995
3.38116
3.33994
3.31251
3.27211
3.246
3.20633
3.18149
3.14251
3.11889
3.08053
3.05807
3.02033
2.99884
2.96243
2.93843
2.89801
10.0695
9.92284
9.78472
9.65707
9.52495
9.40278
9.28259
9.16668
9.03191
8.88637
8.76371
8.63763
8.51864
8.394
8.27256
8.14912
8.02201
7.89319
7.77123
7.64723
7.5307
7.41166
7.29849
7.18268
7.07286
6.96089
6.85639
6.75016
6.65213
6.55218
6.45994
6.3657
6.27757
6.18809
6.10418
6.01788
5.93822
5.8542
5.77938
5.70019
5.62731
5.55149
5.48298
5.40891
5.3438
5.273
5.20928
5.14085
5.07988
5.01353
4.95478
4.89068
4.83443
4.77197
4.71825
4.6577
4.60562
4.54724
4.49727
4.44029
4.39233
4.33694
4.29082
4.23698
4.1927
4.14031
4.09783
4.04686
4.0061
3.95652
3.91747
3.86917
3.83174
3.78469
3.74882
3.70294
3.66865
3.62383
3.59105
3.54728
3.51594
3.47316
3.44325
3.40139
3.37289
3.33189
3.30471
3.26454
3.23868
3.19927
3.17468
3.13599
3.11262
3.07459
3.05238
3.01497
2.99374
2.95765
2.93391
2.89378
10.047
9.89501
9.79523
9.67134
9.52946
9.41328
9.28334
9.1619
9.03035
8.89705
8.78225
8.65202
8.52871
8.39712
8.26356
8.1316
7.99541
7.86084
7.73366
7.60632
7.4871
7.36705
7.25412
7.13941
7.03151
6.92182
6.81958
6.71609
6.62038
6.52306
6.43275
6.34056
6.25481
6.16636
6.08468
5.99966
5.92081
5.83883
5.76415
5.68558
5.61372
5.53782
5.46966
5.39634
5.33091
5.26067
5.19807
5.13008
5.06938
5.00352
4.94541
4.88157
4.82608
4.7642
4.71072
4.65077
4.59915
4.54092
4.49147
4.43484
4.38714
4.33208
4.28627
4.23267
4.18866
4.13651
4.09422
4.04342
4.00282
3.95334
3.91443
3.86623
3.82891
3.78192
3.74617
3.70033
3.66611
3.62135
3.58861
3.54491
3.51364
3.47086
3.44099
3.39915
3.37069
3.32964
3.30248
3.26227
3.23636
3.1969
3.17226
3.1335
3.11006
3.07195
3.04968
3.01221
2.9909
2.95477
2.9309
2.89073
9.96605
9.81739
9.69891
9.54984
9.41882
9.30854
9.16357
9.04181
8.91324
8.77333
8.64886
8.515
8.39491
8.2711
8.1471
8.02605
7.90369
7.77919
7.66199
7.54325
7.43184
7.31933
7.21353
7.1058
7.00414
6.90012
6.8025
6.70242
6.60909
6.51342
6.42451
6.33308
6.24824
6.16052
6.07915
5.99468
5.91637
5.83474
5.75999
5.68155
5.61019
5.53419
5.46624
5.39297
5.32815
5.25803
5.19535
5.12759
5.06732
5.00169
4.94389
4.88018
4.82483
4.76292
4.70983
4.64981
4.5983
4.54036
4.49079
4.43429
4.38658
4.33164
4.28582
4.23229
4.18836
4.13628
4.094
4.0432
4.00263
3.95319
3.91427
3.86604
3.82875
3.78171
3.74601
3.70013
3.66594
3.62113
3.58843
3.54462
3.51337
3.47053
3.44067
3.39872
3.37023
3.32912
3.30195
3.26163
3.23575
3.19616
3.1715
3.13259
3.10914
3.07087
3.04858
3.01093
2.98962
2.95328
2.92951
2.88891
17.3003
17.9216
19.284
20.148
22.1629
23.9899
29.2017
44.9796
97.3852
410.704
15.2922
15.6274
16.3459
17.3932
18.5556
20.4975
22.563
27.1639
42.7156
193.814
14.5066
14.6254
14.9882
15.5485
16.3134
17.3664
19.2301
21.1537
25.7433
89.6089
13.5676
13.6607
13.9259
14.2525
14.7676
15.3709
16.3539
18.147
19.7689
45.1315
12.9819
13.0819
13.1616
13.4306
13.6499
14.1644
14.5865
15.8607
16.7097
26.8897
12.5504
12.5928
12.6265
12.794
12.905
13.2569
13.4907
14.2559
14.7557
19.109
12.2116
12.213
12.2187
12.3117
12.3731
12.5973
12.7413
13.2017
13.501
15.5106
11.9663
11.9225
11.9043
11.9254
11.9514
12.0749
12.1591
12.4428
12.6277
13.6462
11.7807
11.7203
11.674
11.6555
11.6545
11.7009
11.7412
11.8922
12.0004
12.5386
11.6183
11.541
11.4817
11.4359
11.4113
11.4143
11.4233
11.4963
11.5517
11.8543
11.5042
11.4076
11.3397
11.2718
11.222
11.195
11.1795
11.1886
11.2106
11.3817
11.4006
11.2954
11.2163
11.1344
11.0816
11.0204
10.9932
10.969
10.9592
11.0536
11.3342
11.2054
11.1287
11.0238
10.9557
10.8885
10.8235
10.7884
10.7473
10.7831
11.2656
11.1507
11.0474
10.9584
10.8639
10.7999
10.7127
10.67
10.5901
10.5967
11.2079
11.0914
10.983
10.8834
10.7753
10.712
10.6044
10.5532
10.4593
10.454
11.1934
11.0622
10.9445
10.8618
10.7188
10.6597
10.5425
10.4727
10.3674
10.3179
11.1568
11.0359
10.9051
10.8366
10.6883
10.6197
10.5126
10.4265
10.3281
10.2776
11.1329
11.0018
10.8572
10.7767
10.6336
10.5457
10.4384
10.341
10.232
10.1509
11.1292
11.0164
10.8679
10.7831
10.6548
10.538
10.4437
10.3367
10.2249
10.1591
11.097
10.9725
10.8316
10.7307
10.6115
10.4843
10.3884
10.2766
10.1713
10.0751
17.3485
18.9079
21.7413
27.2894
36.4658
52.624
104.672
452.545
3796.4
9719.34
17.2057
18.6391
21.4956
27.0063
35.5521
52.4379
111.828
491.622
4316.85
10046.7
17.291
18.508
21.4813
27.243
38.0565
55.6971
114.341
519.456
4467.57
10359.2
17.705
18.7349
21.5358
26.7607
37.2832
56.855
127.487
556.999
4780.12
10585.9
17.8455
18.7574
21.6351
27.902
40.4825
58.3013
130.979
650.533
5134.17
10866.8
18.0121
19.1886
21.9264
27.6721
40.957
63.5211
140.406
654.987
5100.16
11173.9
18.4181
19.2081
22.319
28.1479
42.0401
63.8277
154.915
821.673
6180.2
11410.5
18.8537
19.9973
23.4704
31.9376
48.1176
79.3768
203.332
1046.15
6202.37
11440.1
18.843
20.3781
23.7914
32.2474
49.6045
80.989
204.543
1142.84
6580.54
11868.5
19.7973
20.9948
25.5567
35.3972
55.8569
99.922
310.469
1543.72
6871.07
11959.1
18.0868
20.0613
22.0955
28.821
34.2798
67.6539
39.5243
704.892
2580.64
8807.99
18.2233
19.5868
21.7326
26.741
31.3149
58.3532
49.088
484.892
2448.3
8321.6
18.3133
20.0995
22.4721
27.1222
32.0977
54.0583
75.8759
415.374
2512.4
7861.82
18.0736
19.8802
22.6125
27.104
34.0483
50.5249
83.0162
392.761
2649.3
8038.54
18.1454
19.6116
22.529
26.7691
34.4616
52.201
85.7544
380.218
2834.09
8238.72
17.7358
19.5723
21.863
26.5884
33.9457
50.7842
96.4552
389.766
2914.33
8162.65
17.9683
19.5535
22.1456
25.4103
34.9752
50.9966
101.747
399.629
2865.8
8611.79
17.6941
19.1602
22.5897
25.8977
33.6942
50.3466
99.9306
424.378
3309.43
8756.45
17.947
19.053
22.0861
27.1134
34.693
50.2334
99.7051
413.227
3298.56
8899.52
17.7011
19.198
21.8376
27.3856
34.0141
49.7821
102.554
454.653
3775.11
9561.31
4607.03
3457.38
2680.01
2132.6
1733.81
1435.19
1206.09
1026.88
884.084
768.707
674.097
595.727
529.994
474.468
427.039
386.337
351.043
320.362
293.417
269.744
248.725
230.092
213.391
198.475
184.991
172.872
161.834
151.86
142.713
134.41
126.747
119.766
113.282
107.359
101.826
96.7599
91.9995
87.635
83.5099
79.7247
76.1264
72.8239
69.666
66.7687
63.9817
61.427
58.9546
56.6915
54.4876
52.4742
50.5007
48.7024
46.9279
45.3158
43.7137
42.2637
40.8118
39.5036
38.183
36.9996
35.7938
34.7212
33.6158
32.6422
31.6246
30.7405
29.799
28.9965
28.1211
27.3935
26.5753
25.9168
25.1486
24.5532
23.8299
23.2911
22.6099
22.1203
21.4808
21.0325
20.4355
20.0215
19.4677
19.0836
18.5725
18.2171
17.7477
17.4225
16.9958
16.7046
16.3262
16.0768
15.7624
15.5717
15.3641
15.2702
15.2707
15.5509
15.8454
16.9651
4606.5
3456.44
2678.94
2131.53
1732.79
1434.25
1205.22
1026.08
883.358
768.049
673.492
595.178
529.486
474.006
426.608
385.945
350.674
320.026