/*--------------------------------*- C++ -*----------------------------------*\
  =========                 |
  \\      /  F ield         | OpenFOAM: The Open Source CFD Toolbox
   \\    /   O peration     | Website:  https://openfoam.org
    \\  /    A nd           | Version:  8
     \\/     M anipulation  |
\*---------------------------------------------------------------------------*/
FoamFile
{
    version     2.0;
    format      ascii;
    class       volScalarField;
    location    "1.500023";
    object      I;
}
// * * * * * * * * * * * * * * * * * * * * * * * * * * * * * * * * * * * * * //

dimensions      [0 -3 -1 0 0 0 0];

internalField   nonuniform List<scalar> 
6800
(
730045
645142
677327
877283
1.55702e+06
4.99214e+06
1.73441e+07
3.01924e+07
3.67115e+07
3.83706e+07
685109
632075
857112
1.82169e+06
8.45588e+06
2.54738e+07
3.68693e+07
4.16106e+07
4.17969e+07
4.00849e+07
732124
878187
1.82959e+06
9.02812e+06
2.69021e+07
3.87955e+07
4.41364e+07
4.40934e+07
4.05794e+07
3.57631e+07
773447
2.52384e+06
5.44202e+06
2.58807e+07
4.306e+07
4.86348e+07
4.63932e+07
4.27261e+07
3.84255e+07
3.50651e+07
1.17177e+06
6.81217e+06
1.74651e+07
4.12235e+07
4.94057e+07
4.9228e+07
4.64003e+07
4.18937e+07
3.75857e+07
3.41192e+07
943186
1.85533e+07
2.37131e+07
4.70252e+07
5.08688e+07
4.96528e+07
4.29917e+07
3.74407e+07
3.39597e+07
3.29841e+07
1.33029e+06
2.33375e+07
3.85819e+07
6.08306e+07
5.4626e+07
4.84747e+07
4.03322e+07
3.68601e+07
3.59872e+07
3.72995e+07
4.44165e+06
6.7859e+07
5.52146e+07
6.63864e+07
5.42429e+07
4.7598e+07
3.98857e+07
3.80786e+07
3.82626e+07
3.8394e+07
1.04062e+07
8.95723e+07
7.34436e+07
6.89958e+07
5.81378e+07
5.06394e+07
4.16392e+07
3.85061e+07
3.79365e+07
3.902e+07
3.37858e+07
1.65521e+08
1.06553e+08
7.14097e+07
5.40612e+07
5.12371e+07
4.60319e+07
4.40512e+07
4.08765e+07
3.96739e+07
722498
705287
688527
685420
687745
692946
700368
708801
717827
726848
722940
704022
688780
685006
687214
692174
699508
708194
718051
728297
724135
702112
688572
684970
686755
691260
698349
707516
718670
731570
726500
701457
688542
684868
685803
689697
695443
703280
713766
729555
728700
700473
688384
684359
684727
688101
692514
697165
703951
716026
724458
698222
686705
683286
684924
689809
696965
700847
699728
702970
720945
694807
683688
684761
690995
702101
719806
744709
766387
863247
718515
689184
681983
686934
698118
725135
780799
908670
1.10473e+06
2.04104e+06
710274
680360
674730
681099
715280
831794
1.06866e+06
1.80476e+06
3.06292e+06
1.07759e+07
736408
665923
645043
697808
853675
1.3517e+06
2.74526e+06
8.46531e+06
1.95251e+07
3.12393e+07
738027
751794
764794
774980
783072
788988
792785
794533
794193
792018
788281
783251
777475
771075
764323
758276
752569
747787
744523
742388
742218
743858
747431
753048
760728
771136
784191
800167
818784
840324
865211
894009
927370
966017
1.01084e+06
1.0613e+06
1.11792e+06
1.18051e+06
1.2486e+06
1.32205e+06
1.39939e+06
1.47897e+06
1.55912e+06
1.63815e+06
1.71451e+06
1.78688e+06
1.85421e+06
1.91569e+06
1.9708e+06
2.01931e+06
2.06122e+06
2.09686e+06
2.12684e+06
2.15196e+06
2.17323e+06
2.19175e+06
2.20867e+06
2.22512e+06
2.24215e+06
2.26065e+06
2.28134e+06
2.30479e+06
2.33141e+06
2.36145e+06
2.39508e+06
2.43231e+06
2.47309e+06
2.5173e+06
2.56477e+06
2.61529e+06
2.66855e+06
2.7242e+06
2.78181e+06
2.84091e+06
2.90102e+06
2.96167e+06
3.02246e+06
3.08305e+06
3.14322e+06
3.20279e+06
3.26167e+06
3.31979e+06
3.37711e+06
3.43359e+06
3.48916e+06
3.5437e+06
3.59714e+06
3.64921e+06
3.70003e+06
3.74898e+06
3.79683e+06
3.842e+06
3.887e+06
3.92758e+06
3.97069e+06
4.0054e+06
4.04814e+06
4.07651e+06
4.11548e+06
4.15397e+06
741726
758322
773204
785386
795072
802386
807360
810150
810529
808787
805293
800271
794219
787184
779100
771038
763210
755800
749208
743652
739578
737385
737230
739453
743944
752010
762808
777052
794286
814849
839225
868027
901914
941603
987780
1.03999e+06
1.09815e+06
1.16231e+06
1.23117e+06
1.30385e+06
1.37902e+06
1.45519e+06
1.53089e+06
1.60474e+06
1.67549e+06
1.74214e+06
1.80393e+06
1.86031e+06
1.91092e+06
1.95563e+06
1.99456e+06
2.02811e+06
2.05689e+06
2.08173e+06
2.10355e+06
2.12337e+06
2.14221e+06
2.16107e+06
2.18085e+06
2.2023e+06
2.226e+06
2.2524e+06
2.28182e+06
2.31446e+06
2.35045e+06
2.38977e+06
2.43236e+06
2.47811e+06
2.52684e+06
2.57834e+06
2.63232e+06
2.68841e+06
2.74619e+06
2.80518e+06
2.86494e+06
2.92505e+06
2.98517e+06
3.04502e+06
3.10442e+06
3.16326e+06
3.22144e+06
3.27893e+06
3.33569e+06
3.39163e+06
3.44668e+06
3.50068e+06
3.55357e+06
3.60504e+06
3.65521e+06
3.70346e+06
3.75058e+06
3.79499e+06
3.83922e+06
3.87908e+06
3.92132e+06
3.95556e+06
3.99708e+06
4.02569e+06
4.06296e+06
4.10154e+06
746679
768727
787035
802615
815287
824995
831718
835970
837818
837524
835429
831377
825524
818478
809807
799500
788015
775852
763477
751419
740162
730670
723318
719074
718082
720894
728123
738756
753358
772034
795395
824167
859064
900868
949715
1.00535e+06
1.06586e+06
1.13084e+06
1.19871e+06
1.26845e+06
1.33874e+06
1.40826e+06
1.47596e+06
1.54098e+06
1.60262e+06
1.66039e+06
1.71401e+06
1.76325e+06
1.80794e+06
1.84809e+06
1.88387e+06
1.91569e+06
1.94418e+06
1.97002e+06
1.99402e+06
2.01696e+06
2.03963e+06
2.06281e+06
2.08718e+06
2.11327e+06
2.14146e+06
2.17207e+06
2.2053e+06
2.24132e+06
2.28019e+06
2.32191e+06
2.3664e+06
2.41359e+06
2.46335e+06
2.51548e+06
2.56969e+06
2.62562e+06
2.68286e+06
2.74098e+06
2.79955e+06
2.85827e+06
2.91687e+06
2.97519e+06
3.03312e+06
3.09059e+06
3.14755e+06
3.20396e+06
3.25975e+06
3.31481e+06
3.36904e+06
3.42221e+06
3.47425e+06
3.5248e+06
3.57401e+06
3.62121e+06
3.66724e+06
3.71051e+06
3.75355e+06
3.79233e+06
3.83319e+06
3.8668e+06
3.90629e+06
3.93557e+06
3.96926e+06
4.01001e+06
747405
777899
801435
820899
836812
849560
858624
864646
868997
871695
872139
870442
866532
860342
851557
839837
825133
807844
788595
768415
748306
729292
713365
701037
693341
691501
695024
702601
714297
732121
756234
787166
825227
870954
923699
983540
1.04639e+06
1.11137e+06
1.17672e+06
1.24181e+06
1.30533e+06
1.36543e+06
1.42218e+06
1.47558e+06
1.52576e+06
1.57302e+06
1.61747e+06
1.65903e+06
1.69769e+06
1.73351e+06
1.76667e+06
1.79762e+06
1.82687e+06
1.85494e+06
1.8824e+06
1.9098e+06
1.93761e+06
1.96633e+06
1.99634e+06
2.02791e+06
2.06121e+06
2.09638e+06
2.13354e+06
2.17283e+06
2.21432e+06
2.25797e+06
2.30379e+06
2.35174e+06
2.40177e+06
2.45369e+06
2.50724e+06
2.56204e+06
2.61771e+06
2.67387e+06
2.73022e+06
2.78654e+06
2.8427e+06
2.89864e+06
2.95434e+06
3.00977e+06
3.0649e+06
3.11967e+06
3.17399e+06
3.22768e+06
3.28059e+06
3.33245e+06
3.38314e+06
3.43224e+06
3.47993e+06
3.5255e+06
3.56982e+06
3.61136e+06
3.65256e+06
3.68972e+06
3.72846e+06
3.76109e+06
3.7976e+06
3.82767e+06
3.85626e+06
3.90015e+06
743323
787256
818061
841967
860591
875559
885406
893161
899738
905355
909662
912454
913451
911580
905731
895130
878891
857203
830770
801543
771602
742537
717121
697085
684243
680372
683810
691177
701165
719952
746668
781858
826169
879386
939440
1.00602e+06
1.07338e+06
1.13788e+06
1.19942e+06
1.25821e+06
1.31258e+06
1.36227e+06
1.40795e+06
1.45024e+06
1.48981e+06
1.52749e+06
1.5638e+06
1.59877e+06
1.63245e+06
1.665e+06
1.69652e+06
1.72749e+06
1.75833e+06
1.78927e+06
1.82064e+06
1.8527e+06
1.88558e+06
1.91956e+06
1.95481e+06
1.99134e+06
2.02907e+06
2.068e+06
2.1082e+06
2.14979e+06
2.19283e+06
2.23733e+06
2.28333e+06
2.33094e+06
2.38016e+06
2.4308e+06
2.48259e+06
2.53515e+06
2.58812e+06
2.64118e+06
2.69413e+06
2.74693e+06
2.7996e+06
2.8522e+06
2.90479e+06
2.95738e+06
3.0099e+06
3.06227e+06
3.11437e+06
3.16594e+06
3.21678e+06
3.26653e+06
3.31498e+06
3.36169e+06
3.40685e+06
3.44979e+06
3.49138e+06
3.53022e+06
3.56852e+06
3.60317e+06
3.63876e+06
3.66966e+06
3.70224e+06
3.73239e+06
3.75509e+06
3.80212e+06
758133
817048
857683
884822
904305
919040
927196
936305
945226
954240
964734
975504
986202
993720
995046
988887
972675
946562
911307
870851
829811
792040
761068
738653
725533
727497
732862
744958
756532
780857
815696
861999
919316
986586
1.06016e+06
1.13779e+06
1.21401e+06
1.27674e+06
1.33243e+06
1.3836e+06
1.42694e+06
1.46319e+06
1.49546e+06
1.52524e+06
1.55368e+06
1.58187e+06
1.61067e+06
1.63983e+06
1.66946e+06
1.69983e+06
1.73076e+06
1.76291e+06
1.79644e+06
1.83104e+06
1.86685e+06
1.90387e+06
1.94167e+06
1.98064e+06
2.02063e+06
2.06147e+06
2.10271e+06
2.14422e+06
2.186e+06
2.22827e+06
2.27107e+06
2.31446e+06
2.35871e+06
2.40409e+06
2.45068e+06
2.49819e+06
2.54638e+06
2.59483e+06
2.64321e+06
2.69131e+06
2.73904e+06
2.78664e+06
2.83426e+06
2.88206e+06
2.93019e+06
2.97863e+06
3.02726e+06
3.076e+06
3.12462e+06
3.17282e+06
3.2203e+06
3.26664e+06
3.31158e+06
3.35466e+06
3.396e+06
3.43507e+06
3.47264e+06
3.5076e+06
3.54174e+06
3.57282e+06
3.60407e+06
3.63215e+06
3.66016e+06
3.68834e+06
3.70661e+06
3.75522e+06
943387
978610
1.01786e+06
1.02653e+06
1.0435e+06
1.04754e+06
1.04752e+06
1.06653e+06
1.08127e+06
1.09738e+06
1.12049e+06
1.14072e+06
1.16773e+06
1.19424e+06
1.20976e+06
1.21459e+06
1.20171e+06
1.17328e+06
1.12948e+06
1.0783e+06
1.02715e+06
982110
951908
934598
931644
946286
956612
979408
1.00438e+06
1.04658e+06
1.10265e+06
1.17523e+06
1.26036e+06
1.35453e+06
1.4537e+06
1.54859e+06
1.63875e+06
1.69303e+06
1.7338e+06
1.77049e+06
1.79339e+06
1.80659e+06
1.82018e+06
1.83454e+06
1.85009e+06
1.86684e+06
1.88707e+06
1.90874e+06
1.93283e+06
1.96e+06
1.98911e+06
2.02185e+06
2.05768e+06
2.09478e+06
2.13361e+06
2.17402e+06
2.214e+06
2.25582e+06
2.29821e+06
2.34143e+06
2.38372e+06
2.425e+06
2.46509e+06
2.50432e+06
2.54282e+06
2.58093e+06
2.61938e+06
2.6586e+06
2.69878e+06
2.7394e+06
2.78034e+06
2.82105e+06
2.86127e+06
2.9009e+06
2.93997e+06
2.97923e+06
3.01878e+06
3.05891e+06
3.09985e+06
3.1415e+06
3.18363e+06
3.2262e+06
3.26883e+06
3.31125e+06
3.35297e+06
3.39353e+06
3.43248e+06
3.46954e+06
3.50455e+06
3.53752e+06
3.56873e+06
3.59782e+06
3.62565e+06
3.65134e+06
3.67631e+06
3.69981e+06
3.72188e+06
3.74609e+06
3.75953e+06
3.80698e+06
1.98213e+06
1.85725e+06
1.74284e+06
1.68176e+06
1.62021e+06
1.58262e+06
1.59148e+06
1.59544e+06
1.60843e+06
1.62069e+06
1.69726e+06
1.69789e+06
1.75564e+06
1.84098e+06
1.9095e+06
1.96197e+06
1.97817e+06
1.96615e+06
1.92316e+06
1.86943e+06
1.81796e+06
1.76759e+06
1.78977e+06
1.81665e+06
1.84771e+06
1.86047e+06
1.90349e+06
1.95981e+06
2.05911e+06
2.16453e+06
2.30361e+06
2.46143e+06
2.61984e+06
2.75427e+06
2.89257e+06
2.97084e+06
3.03073e+06
3.0243e+06
2.99392e+06
2.96722e+06
2.91819e+06
2.84823e+06
2.81978e+06
2.80269e+06
2.79343e+06
2.77869e+06
2.77948e+06
2.76941e+06
2.76839e+06
2.77454e+06
2.78309e+06
2.80483e+06
2.83445e+06
2.86353e+06
2.89465e+06
2.92678e+06
2.95154e+06
2.98673e+06
3.02126e+06
3.06329e+06
3.09894e+06
3.13339e+06
3.16357e+06
3.18944e+06
3.21225e+06
3.23383e+06
3.25539e+06
3.27751e+06
3.30059e+06
3.32384e+06
3.34769e+06
3.37097e+06
3.39365e+06
3.41571e+06
3.43724e+06
3.46007e+06
3.48361e+06
3.50842e+06
3.53491e+06
3.56283e+06
3.59175e+06
3.62181e+06
3.65237e+06
3.68339e+06
3.71393e+06
3.7436e+06
3.77154e+06
3.79789e+06
3.82178e+06
3.84465e+06
3.86539e+06
3.8853e+06
3.90322e+06
3.92032e+06
3.93574e+06
3.95138e+06
3.9651e+06
3.98257e+06
3.99004e+06
4.02834e+06
9.83532e+06
8.53494e+06
7.40176e+06
6.62972e+06
6.04802e+06
5.54037e+06
5.24467e+06
5.03455e+06
4.93943e+06
5.00303e+06
5.13042e+06
5.03992e+06
5.24332e+06
5.4132e+06
5.67011e+06
5.96428e+06
6.30416e+06
6.57157e+06
6.7319e+06
6.8351e+06
7.00049e+06
7.13686e+06
7.21839e+06
7.40399e+06
7.43491e+06
7.53703e+06
7.74204e+06
7.92854e+06
8.29649e+06
8.69986e+06
8.98665e+06
9.53482e+06
9.61113e+06
9.77688e+06
9.88748e+06
9.58821e+06
9.10733e+06
8.64809e+06
8.19824e+06
7.82175e+06
7.47878e+06
7.07012e+06
6.81245e+06
6.56353e+06
6.38676e+06
6.203e+06
6.01846e+06
5.87153e+06
5.70021e+06
5.50295e+06
5.26141e+06
5.17305e+06
5.11901e+06
5.10714e+06
5.05084e+06
4.99124e+06
4.85617e+06
4.82325e+06
4.80014e+06
4.86718e+06
4.84697e+06
4.88894e+06
4.90051e+06
4.88153e+06
4.84951e+06
4.81519e+06
4.78089e+06
4.74731e+06
4.71725e+06
4.68786e+06
4.66102e+06
4.63474e+06
4.60921e+06
4.58462e+06
4.56037e+06
4.54125e+06
4.52355e+06
4.50989e+06
4.49945e+06
4.49311e+06
4.48893e+06
4.48865e+06
4.49068e+06
4.49569e+06
4.50103e+06
4.50722e+06
4.51172e+06
4.51627e+06
4.51778e+06
4.52145e+06
4.52291e+06
4.52623e+06
4.52754e+06
4.52804e+06
4.52727e+06
4.52579e+06
4.53003e+06
4.53416e+06
4.53314e+06
4.54097e+06
2.91341e+07
2.67233e+07
2.43147e+07
2.24875e+07
2.11967e+07
2.01153e+07
1.94738e+07
1.91756e+07
1.89982e+07
1.91014e+07
1.92061e+07
1.93164e+07
1.94242e+07
1.91815e+07
1.88345e+07
1.8194e+07
1.73325e+07
1.64533e+07
1.55142e+07
1.48482e+07
1.41825e+07
1.39623e+07
1.37632e+07
1.35042e+07
1.34602e+07
1.37507e+07
1.37685e+07
1.39397e+07
1.42848e+07
1.49672e+07
1.53897e+07
1.57423e+07
1.58731e+07
1.5941e+07
1.56893e+07
1.50203e+07
1.43524e+07
1.36312e+07
1.2934e+07
1.27187e+07
1.22154e+07
1.20085e+07
1.19952e+07
1.18724e+07
1.17905e+07
1.17368e+07
1.16905e+07
1.16719e+07
1.16467e+07
1.16551e+07
1.1641e+07
1.17137e+07
1.16065e+07
1.16681e+07
1.13781e+07
1.12977e+07
1.12049e+07
1.09558e+07
1.06631e+07
1.05237e+07
1.05719e+07
1.0489e+07
1.02658e+07
9.98596e+06
9.67755e+06
9.37111e+06
9.07293e+06
8.78467e+06
8.51924e+06
8.26558e+06
8.02882e+06
7.81048e+06
7.60463e+06
7.41703e+06
7.24002e+06
7.08101e+06
6.93557e+06
6.80751e+06
6.69108e+06
6.58624e+06
6.4852e+06
6.39807e+06
6.32001e+06
6.25309e+06
6.18981e+06
6.13371e+06
6.07704e+06
6.02687e+06
5.97415e+06
5.92938e+06
5.88143e+06
5.84141e+06
5.79713e+06
5.76095e+06
5.72058e+06
5.68909e+06
5.65297e+06
5.62731e+06
5.59644e+06
5.5719e+06
3.53025e+07
3.39526e+07
3.20964e+07
3.05937e+07
2.95239e+07
2.87159e+07
2.81696e+07
2.78501e+07
2.75257e+07
2.73212e+07
2.70391e+07
2.65406e+07
2.58318e+07
2.47335e+07
2.34955e+07
2.20362e+07
2.05088e+07
1.91166e+07
1.783e+07
1.69229e+07
1.60948e+07
1.57527e+07
1.54595e+07
1.47784e+07
1.48456e+07
1.49989e+07
1.51439e+07
1.53339e+07
1.59206e+07
1.59314e+07
1.61993e+07
1.63997e+07
1.6805e+07
1.67863e+07
1.63116e+07
1.55271e+07
1.48531e+07
1.41341e+07
1.36641e+07
1.33402e+07
1.3316e+07
1.31627e+07
1.33673e+07
1.32814e+07
1.32012e+07
1.32828e+07
1.34645e+07
1.37202e+07
1.40153e+07
1.43848e+07
1.47608e+07
1.52006e+07
1.56001e+07
1.60165e+07
1.63803e+07
1.66756e+07
1.69241e+07
1.71312e+07
1.72144e+07
1.71484e+07
1.71643e+07
1.70429e+07
1.70264e+07
1.69281e+07
1.67773e+07
1.6603e+07
1.63988e+07
1.61639e+07
1.59091e+07
1.5626e+07
1.53068e+07
1.49764e+07
1.46162e+07
1.42594e+07
1.38686e+07
1.34924e+07
1.30924e+07
1.2685e+07
1.22796e+07
1.1872e+07
1.14525e+07
1.10652e+07
1.0706e+07
1.03801e+07
1.00734e+07
9.79505e+06
9.53268e+06
9.29999e+06
9.08238e+06
8.89183e+06
8.71172e+06
8.55174e+06
8.40096e+06
8.26379e+06
8.14175e+06
8.01828e+06
7.9221e+06
7.80136e+06
7.73024e+06
7.6126e+06
3.28281e+07
3.23257e+07
3.13163e+07
3.07662e+07
3.02984e+07
2.98087e+07
2.93299e+07
2.89402e+07
2.84985e+07
2.81022e+07
2.75146e+07
2.67173e+07
2.56424e+07
2.43609e+07
2.28454e+07
2.13562e+07
2.00143e+07
1.87617e+07
1.76915e+07
1.68333e+07
1.63471e+07
1.59367e+07
1.5969e+07
1.55026e+07
1.59617e+07
1.55887e+07
1.56713e+07
1.58372e+07
1.60573e+07
1.67484e+07
1.68918e+07
1.72026e+07
1.72287e+07
1.68275e+07
1.62489e+07
1.55889e+07
1.50286e+07
1.47609e+07
1.46079e+07
1.42581e+07
1.39687e+07
1.39496e+07
1.38878e+07
1.38099e+07
1.3741e+07
1.37539e+07
1.39143e+07
1.41696e+07
1.4434e+07
1.4772e+07
1.50892e+07
1.54354e+07
1.57862e+07
1.61332e+07
1.64722e+07
1.67673e+07
1.70754e+07
1.72916e+07
1.74957e+07
1.76161e+07
1.77556e+07
1.78237e+07
1.79227e+07
1.79797e+07
1.80156e+07
1.80944e+07
1.81474e+07
1.82389e+07
1.83087e+07
1.84099e+07
1.84508e+07
1.8464e+07
1.84728e+07
1.84454e+07
1.83942e+07
1.82951e+07
1.82177e+07
1.81072e+07
1.80123e+07
1.78055e+07
1.76097e+07
1.73312e+07
1.7068e+07
1.66944e+07
1.63472e+07
1.59319e+07
1.55797e+07
1.51994e+07
1.4891e+07
1.45519e+07
1.42833e+07
1.3963e+07
1.37255e+07
1.34109e+07
1.32004e+07
1.28758e+07
1.26831e+07
1.2338e+07
1.21912e+07
1.16907e+07
3.19283e+07
3.15565e+07
3.0921e+07
3.04999e+07
2.99995e+07
2.94373e+07
2.87848e+07
2.82363e+07
2.76773e+07
2.70855e+07
2.64421e+07
2.56399e+07
2.47233e+07
2.3618e+07
2.24719e+07
2.12818e+07
2.01186e+07
1.89302e+07
1.80313e+07
1.72845e+07
1.68162e+07
1.64622e+07
1.62817e+07
1.61654e+07
1.62913e+07
1.58314e+07
1.61214e+07
1.63942e+07
1.70311e+07
1.71026e+07
1.73971e+07
1.75928e+07
1.75006e+07
1.72524e+07
1.6676e+07
1.65683e+07
1.57575e+07
1.53068e+07
1.52039e+07
1.48916e+07
1.45444e+07
1.45247e+07
1.45023e+07
1.43811e+07
1.43005e+07
1.4326e+07
1.44288e+07
1.46013e+07
1.48455e+07
1.50944e+07
1.53819e+07
1.56369e+07
1.59266e+07
1.6164e+07
1.64607e+07
1.66803e+07
1.69168e+07
1.70929e+07
1.7263e+07
1.73799e+07
1.74807e+07
1.75704e+07
1.76171e+07
1.76912e+07
1.77119e+07
1.77632e+07
1.77931e+07
1.78413e+07
1.78823e+07
1.79646e+07
1.80269e+07
1.81125e+07
1.81916e+07
1.82491e+07
1.83046e+07
1.8326e+07
1.83526e+07
1.83635e+07
1.83587e+07
1.83498e+07
1.8352e+07
1.83411e+07
1.8315e+07
1.82588e+07
1.82333e+07
1.82023e+07
1.81742e+07
1.81201e+07
1.80493e+07
1.79517e+07
1.78548e+07
1.77446e+07
1.76555e+07
1.7537e+07
1.74651e+07
1.73562e+07
1.72904e+07
1.71757e+07
1.70887e+07
1.69326e+07
3.18292e+07
3.12818e+07
3.0545e+07
3.02877e+07
2.99348e+07
2.93988e+07
2.87424e+07
2.80843e+07
2.7509e+07
2.69069e+07
2.63367e+07
2.56059e+07
2.47804e+07
2.37294e+07
2.27325e+07
2.1558e+07
2.05381e+07
1.95394e+07
1.87875e+07
1.8187e+07
1.76959e+07
1.74251e+07
1.72676e+07
1.72506e+07
1.73322e+07
1.74671e+07
1.76403e+07
1.78081e+07
1.78738e+07
1.79574e+07
1.79783e+07
1.79153e+07
1.77235e+07
1.73424e+07
1.71185e+07
1.65393e+07
1.59463e+07
1.55584e+07
1.53336e+07
1.48818e+07
1.45918e+07
1.45585e+07
1.45863e+07
1.45026e+07
1.45121e+07
1.45191e+07
1.46246e+07
1.47638e+07
1.49794e+07
1.51987e+07
1.54546e+07
1.56832e+07
1.5928e+07
1.61381e+07
1.63366e+07
1.65106e+07
1.66672e+07
1.68153e+07
1.6925e+07
1.70331e+07
1.71e+07
1.71757e+07
1.72144e+07
1.7267e+07
1.72869e+07
1.73204e+07
1.73293e+07
1.73457e+07
1.73529e+07
1.73617e+07
1.7376e+07
1.73848e+07
1.74143e+07
1.74265e+07
1.74664e+07
1.74848e+07
1.75215e+07
1.754e+07
1.75675e+07
1.75794e+07
1.7602e+07
1.7624e+07
1.76403e+07
1.76663e+07
1.76893e+07
1.77205e+07
1.77531e+07
1.77903e+07
1.78206e+07
1.78566e+07
1.78788e+07
1.79062e+07
1.7927e+07
1.79394e+07
1.79587e+07
1.8009e+07
1.80296e+07
1.80515e+07
1.80628e+07
1.80936e+07
3.20043e+07
3.16969e+07
3.05166e+07
3.00934e+07
2.99172e+07
2.95964e+07
2.90869e+07
2.84312e+07
2.77566e+07
2.70774e+07
2.63989e+07
2.56493e+07
2.48814e+07
2.38487e+07
2.29857e+07
2.1905e+07
2.10001e+07
2.00501e+07
1.92548e+07
1.86019e+07
1.80969e+07
1.78084e+07
1.75861e+07
1.75386e+07
1.75556e+07
1.7613e+07
1.77387e+07
1.78308e+07
1.79365e+07
1.79237e+07
1.79234e+07
1.78228e+07
1.75284e+07
1.73393e+07
1.69532e+07
1.64278e+07
1.59373e+07
1.57418e+07
1.53477e+07
1.49945e+07
1.49551e+07
1.48925e+07
1.48179e+07
1.47734e+07
1.47983e+07
1.48311e+07
1.48469e+07
1.49132e+07
1.50511e+07
1.52353e+07
1.54468e+07
1.56738e+07
1.58766e+07
1.60779e+07
1.62597e+07
1.64441e+07
1.66156e+07
1.67759e+07
1.69058e+07
1.70136e+07
1.70872e+07
1.71444e+07
1.71744e+07
1.72044e+07
1.72144e+07
1.72259e+07
1.72254e+07
1.72193e+07
1.7212e+07
1.72056e+07
1.71998e+07
1.71967e+07
1.71967e+07
1.72105e+07
1.72239e+07
1.72625e+07
1.72888e+07
1.73376e+07
1.73756e+07
1.74085e+07
1.74446e+07
1.74709e+07
1.75026e+07
1.7525e+07
1.75469e+07
1.75743e+07
1.75964e+07
1.76305e+07
1.76614e+07
1.76827e+07
1.77143e+07
1.77317e+07
1.77507e+07
1.77663e+07
1.77896e+07
1.77904e+07
1.7803e+07
1.78029e+07
1.78219e+07
1.78499e+07
3.13555e+07
3.13582e+07
3.02872e+07
2.93709e+07
2.89855e+07
2.88389e+07
2.85746e+07
2.80635e+07
2.74481e+07
2.66747e+07
2.59624e+07
2.51536e+07
2.43917e+07
2.34934e+07
2.2655e+07
2.16781e+07
2.08472e+07
1.99698e+07
1.93076e+07
1.87136e+07
1.825e+07
1.79358e+07
1.76859e+07
1.76251e+07
1.75854e+07
1.76162e+07
1.77025e+07
1.77759e+07
1.78756e+07
1.78266e+07
1.77311e+07
1.74861e+07
1.7191e+07
1.70296e+07
1.66439e+07
1.62737e+07
1.60348e+07
1.57372e+07
1.5512e+07
1.51499e+07
1.52447e+07
1.52246e+07
1.51959e+07
1.51368e+07
1.52416e+07
1.52675e+07
1.52422e+07
1.52235e+07
1.52918e+07
1.54197e+07
1.55778e+07
1.57765e+07
1.59522e+07
1.61429e+07
1.63027e+07
1.64831e+07
1.66413e+07
1.68041e+07
1.69336e+07
1.70715e+07
1.71644e+07
1.72582e+07
1.73105e+07
1.73765e+07
1.74056e+07
1.74525e+07
1.7463e+07
1.74957e+07
1.75013e+07
1.75355e+07
1.7546e+07
1.75927e+07
1.76143e+07
1.76763e+07
1.77187e+07
1.77756e+07
1.78049e+07
1.78961e+07
1.79065e+07
1.79125e+07
1.79088e+07
1.78954e+07
1.78707e+07
1.76984e+07
1.77096e+07
1.7621e+07
1.75667e+07
1.75468e+07
1.75691e+07
1.75804e+07
1.76136e+07
1.76249e+07
1.76334e+07
1.76197e+07
1.76307e+07
1.75766e+07
1.75854e+07
1.7551e+07
1.75231e+07
1.7619e+07
2.94507e+07
2.926e+07
2.89968e+07
2.81011e+07
2.74925e+07
2.71677e+07
2.69353e+07
2.66907e+07
2.61415e+07
2.55221e+07
2.48483e+07
2.4151e+07
2.34996e+07
2.27534e+07
2.20276e+07
2.12336e+07
2.04886e+07
1.97401e+07
1.91047e+07
1.85296e+07
1.81031e+07
1.77779e+07
1.75783e+07
1.75092e+07
1.74235e+07
1.75079e+07
1.75178e+07
1.75397e+07
1.74991e+07
1.74029e+07
1.73188e+07
1.70912e+07
1.69122e+07
1.67547e+07
1.64368e+07
1.62959e+07
1.60715e+07
1.57743e+07
1.55604e+07
1.53503e+07
1.55192e+07
1.54793e+07
1.53998e+07
1.53745e+07
1.54172e+07
1.54042e+07
1.5396e+07
1.53346e+07
1.5343e+07
1.54353e+07
1.5571e+07
1.57403e+07
1.59077e+07
1.60765e+07
1.62211e+07
1.63594e+07
1.64877e+07
1.66083e+07
1.67316e+07
1.6826e+07
1.6921e+07
1.69789e+07
1.70374e+07
1.70622e+07
1.70901e+07
1.71046e+07
1.71212e+07
1.71269e+07
1.71386e+07
1.7149e+07
1.71674e+07
1.71863e+07
1.72172e+07
1.72735e+07
1.73035e+07
1.73542e+07
1.73778e+07
1.74346e+07
1.74844e+07
1.75646e+07
1.76376e+07
1.77009e+07
1.77634e+07
1.78061e+07
1.78638e+07
1.78877e+07
1.79394e+07
1.80143e+07
1.80175e+07
1.80317e+07
1.80315e+07
1.80398e+07
1.80228e+07
1.80059e+07
1.79247e+07
1.78349e+07
1.76433e+07
1.76317e+07
1.7601e+07
1.75925e+07
2.76386e+07
2.78632e+07
2.76402e+07
2.69122e+07
2.627e+07
2.58391e+07
2.55802e+07
2.53932e+07
2.49814e+07
2.45109e+07
2.38789e+07
2.33361e+07
2.27136e+07
2.21272e+07
2.14601e+07
2.08394e+07
2.01471e+07
1.95679e+07
1.89637e+07
1.85023e+07
1.80839e+07
1.78341e+07
1.76267e+07
1.75191e+07
1.74826e+07
1.74761e+07
1.7471e+07
1.74136e+07
1.73002e+07
1.71744e+07
1.70443e+07
1.68234e+07
1.67218e+07
1.6542e+07
1.6305e+07
1.61908e+07
1.59807e+07
1.57249e+07
1.5476e+07
1.54144e+07
1.54576e+07
1.54638e+07
1.5409e+07
1.54282e+07
1.53978e+07
1.53321e+07
1.53289e+07
1.52758e+07
1.52802e+07
1.53121e+07
1.53972e+07
1.55121e+07
1.56515e+07
1.57833e+07
1.59144e+07
1.60182e+07
1.61166e+07
1.6181e+07
1.62497e+07
1.62965e+07
1.63461e+07
1.63765e+07
1.64122e+07
1.64444e+07
1.64542e+07
1.64698e+07
1.6508e+07
1.65387e+07
1.65682e+07
1.65865e+07
1.66048e+07
1.66261e+07
1.66515e+07
1.66986e+07
1.67193e+07
1.67693e+07
1.67991e+07
1.68901e+07
1.691e+07
1.68923e+07
1.68656e+07
1.68741e+07
1.68977e+07
1.69472e+07
1.69673e+07
1.70011e+07
1.70235e+07
1.70605e+07
1.70768e+07
1.70945e+07
1.71025e+07
1.71402e+07
1.71333e+07
1.71327e+07
1.71353e+07
1.71101e+07
1.70754e+07
1.69993e+07
1.69136e+07
1.69178e+07
2.6146e+07
2.62334e+07
2.62545e+07
2.57328e+07
2.52751e+07
2.48357e+07
2.43354e+07
2.40109e+07
2.39403e+07
2.36901e+07
2.32191e+07
2.28408e+07
2.226e+07
2.17507e+07
2.11053e+07
2.05357e+07
1.9941e+07
1.94023e+07
1.88961e+07
1.84543e+07
1.80819e+07
1.77919e+07
1.7597e+07
1.74518e+07
1.73925e+07
1.73094e+07
1.7226e+07
1.71655e+07
1.70312e+07
1.69647e+07
1.68639e+07
1.66777e+07
1.66312e+07
1.64191e+07
1.63011e+07
1.61341e+07
1.59508e+07
1.58035e+07
1.55436e+07
1.55695e+07
1.55007e+07
1.5385e+07
1.54036e+07
1.53282e+07
1.52585e+07
1.52479e+07
1.52727e+07
1.52693e+07
1.52333e+07
1.52279e+07
1.52396e+07
1.52709e+07
1.53187e+07
1.53805e+07
1.54622e+07
1.55428e+07
1.56389e+07
1.57166e+07
1.58e+07
1.58559e+07
1.59145e+07
1.59349e+07
1.59608e+07
1.59914e+07
1.60066e+07
1.60493e+07
1.6067e+07
1.6107e+07
1.61544e+07
1.62092e+07
1.62253e+07
1.62736e+07
1.63032e+07
1.63718e+07
1.63889e+07
1.64045e+07
1.64886e+07
1.64924e+07
1.65058e+07
1.6524e+07
1.65445e+07
1.64418e+07
1.64745e+07
1.64544e+07
1.63469e+07
1.62315e+07
1.62636e+07
1.62174e+07
1.61921e+07
1.6184e+07
1.6184e+07
1.61647e+07
1.62037e+07
1.62009e+07
1.61864e+07
1.61949e+07
1.61831e+07
1.61774e+07
1.61848e+07
1.62015e+07
2.54256e+07
2.50983e+07
2.46075e+07
2.47472e+07
2.44933e+07
2.40925e+07
2.35901e+07
2.33212e+07
2.3e+07
2.28173e+07
2.2515e+07
2.23268e+07
2.19024e+07
2.14209e+07
2.0802e+07
2.02326e+07
1.9674e+07
1.91672e+07
1.87172e+07
1.82779e+07
1.79608e+07
1.7644e+07
1.74891e+07
1.73158e+07
1.72604e+07
1.71683e+07
1.71222e+07
1.70782e+07
1.6963e+07
1.6928e+07
1.68007e+07
1.66918e+07
1.66221e+07
1.6477e+07
1.63338e+07
1.62235e+07
1.60552e+07
1.58464e+07
1.56239e+07
1.56199e+07
1.5538e+07
1.53239e+07
1.52712e+07
1.51404e+07
1.51542e+07
1.51003e+07
1.50959e+07
1.5128e+07
1.51339e+07
1.51547e+07
1.51701e+07
1.51909e+07
1.51991e+07
1.52097e+07
1.52606e+07
1.53034e+07
1.53788e+07
1.54194e+07
1.54896e+07
1.55355e+07
1.55882e+07
1.56319e+07
1.56718e+07
1.57385e+07
1.57789e+07
1.58426e+07
1.58876e+07
1.59405e+07
1.59746e+07
1.60041e+07
1.60433e+07
1.6071e+07
1.60852e+07
1.61667e+07
1.61895e+07
1.62499e+07
1.62017e+07
1.61763e+07
1.60945e+07
1.61232e+07
1.61131e+07
1.60308e+07
1.60578e+07
1.60077e+07
1.60075e+07
1.59929e+07
1.5956e+07
1.59652e+07
1.59252e+07
1.59443e+07
1.59414e+07
1.59249e+07
1.59053e+07
1.58391e+07
1.57687e+07
1.57766e+07
1.57737e+07
1.5771e+07
1.5822e+07
1.58509e+07
2.4757e+07
2.40632e+07
2.36199e+07
2.36895e+07
2.3927e+07
2.37479e+07
2.31632e+07
2.26608e+07
2.21949e+07
2.18592e+07
2.16795e+07
2.16143e+07
2.13391e+07
2.088e+07
2.02647e+07
1.96956e+07
1.91674e+07
1.87121e+07
1.83347e+07
1.79817e+07
1.7726e+07
1.74855e+07
1.7359e+07
1.7234e+07
1.71901e+07
1.70843e+07
1.70404e+07
1.69513e+07
1.68407e+07
1.68197e+07
1.66608e+07
1.66111e+07
1.64771e+07
1.63744e+07
1.62411e+07
1.61012e+07
1.59542e+07
1.57511e+07
1.55844e+07
1.55637e+07
1.53906e+07
1.51861e+07
1.51466e+07
1.51261e+07
1.50808e+07
1.50072e+07
1.50283e+07
1.50366e+07
1.50756e+07
1.50798e+07
1.51198e+07
1.51369e+07
1.51766e+07
1.51889e+07
1.52341e+07
1.52509e+07
1.52911e+07
1.53222e+07
1.53436e+07
1.53973e+07
1.54201e+07
1.54812e+07
1.55622e+07
1.56236e+07
1.57466e+07
1.58192e+07
1.59377e+07
1.6008e+07
1.61239e+07
1.61816e+07
1.62721e+07
1.63131e+07
1.63783e+07
1.64803e+07
1.64593e+07
1.63782e+07
1.62507e+07
1.62862e+07
1.62658e+07
1.62318e+07
1.62031e+07
1.60651e+07
1.60453e+07
1.59419e+07
1.58531e+07
1.57481e+07
1.58032e+07
1.57973e+07
1.57821e+07
1.56918e+07
1.56687e+07
1.55771e+07
1.56129e+07
1.56305e+07
1.57131e+07
1.57887e+07
1.58829e+07
1.5941e+07
1.60351e+07
1.60892e+07
2.39158e+07
2.35521e+07
2.27716e+07
2.24216e+07
2.24556e+07
2.26356e+07
2.22161e+07
2.18901e+07
2.09476e+07
2.02363e+07
1.99507e+07
1.93226e+07
1.93421e+07
1.96926e+07
1.96423e+07
1.93348e+07
1.89243e+07
1.85353e+07
1.81563e+07
1.7866e+07
1.75688e+07
1.73199e+07
1.71354e+07
1.69868e+07
1.68681e+07
1.67356e+07
1.66363e+07
1.64951e+07
1.6393e+07
1.63111e+07
1.61729e+07
1.61075e+07
1.6028e+07
1.59397e+07
1.58649e+07
1.58366e+07
1.56937e+07
1.55625e+07
1.54851e+07
1.54429e+07
1.52928e+07
1.50961e+07
1.50812e+07
1.50847e+07
1.50213e+07
1.49595e+07
1.50278e+07
1.50556e+07
1.51314e+07
1.51331e+07
1.52132e+07
1.51827e+07
1.51622e+07
1.52046e+07
1.52801e+07
1.53601e+07
1.54484e+07
1.55344e+07
1.55927e+07
1.56637e+07
1.57176e+07
1.57708e+07
1.58617e+07
1.59082e+07
1.59985e+07
1.60615e+07
1.61483e+07
1.6224e+07
1.63221e+07
1.64283e+07
1.65307e+07
1.6608e+07
1.66718e+07
1.67218e+07
1.67495e+07
1.67906e+07
1.68135e+07
1.68431e+07
1.68662e+07
1.68684e+07
1.69145e+07
1.6916e+07
1.68837e+07
1.68447e+07
1.67582e+07
1.66172e+07
1.6616e+07
1.66202e+07
1.65084e+07
1.65015e+07
1.64315e+07
1.63601e+07
1.62657e+07
1.62789e+07
1.62625e+07
1.62365e+07
1.61782e+07
1.61766e+07
1.62441e+07
1.6314e+07
2.30607e+07
2.29568e+07
2.21322e+07
2.1583e+07
2.10941e+07
2.12037e+07
2.13506e+07
2.13282e+07
2.0469e+07
1.96711e+07
1.88568e+07
1.86958e+07
1.91433e+07
1.88486e+07
1.91315e+07
1.89878e+07
1.86147e+07
1.82376e+07
1.7863e+07
1.75367e+07
1.72507e+07
1.70047e+07
1.68747e+07
1.67612e+07
1.66983e+07
1.66304e+07
1.65267e+07
1.6386e+07
1.63108e+07
1.61976e+07
1.60136e+07
1.5921e+07
1.58355e+07
1.58027e+07
1.57802e+07
1.57541e+07
1.56521e+07
1.55758e+07
1.55539e+07
1.53807e+07
1.52278e+07
1.51953e+07
1.52405e+07
1.5201e+07
1.51793e+07
1.51525e+07
1.51824e+07
1.52535e+07
1.5364e+07
1.54701e+07
1.54485e+07
1.54997e+07
1.54674e+07
1.55033e+07
1.55905e+07
1.57017e+07
1.57981e+07
1.58927e+07
1.5973e+07
1.60446e+07
1.6133e+07
1.62288e+07
1.63413e+07
1.64735e+07
1.65993e+07
1.67204e+07
1.67985e+07
1.69108e+07
1.6977e+07
1.70524e+07
1.71022e+07
1.71715e+07
1.72196e+07
1.72818e+07
1.73074e+07
1.73505e+07
1.73864e+07
1.74027e+07
1.74208e+07
1.74203e+07
1.74559e+07
1.74555e+07
1.74436e+07
1.7477e+07
1.74835e+07
1.74804e+07
1.74591e+07
1.74989e+07
1.74857e+07
1.74984e+07
1.74995e+07
1.74995e+07
1.74724e+07
1.74397e+07
1.73923e+07
1.74254e+07
1.73047e+07
1.7326e+07
1.73073e+07
1.73012e+07
2.19095e+07
2.20861e+07
2.21819e+07
2.16318e+07
2.07878e+07
2.03431e+07
2.03053e+07
2.05146e+07
2.02547e+07
1.94515e+07
1.89036e+07
1.82081e+07
1.73307e+07
1.71912e+07
1.77475e+07
1.80928e+07
1.83659e+07
1.82054e+07
1.79269e+07
1.75505e+07
1.72025e+07
1.69926e+07
1.67945e+07
1.66662e+07
1.66099e+07
1.65415e+07
1.64882e+07
1.65152e+07
1.65169e+07
1.65219e+07
1.64642e+07
1.6437e+07
1.64151e+07
1.62708e+07
1.62495e+07
1.60787e+07
1.60127e+07
1.59176e+07
1.58188e+07
1.57309e+07
1.55992e+07
1.56098e+07
1.56491e+07
1.55861e+07
1.55783e+07
1.55955e+07
1.5613e+07
1.56165e+07
1.5676e+07
1.56766e+07
1.57199e+07
1.57589e+07
1.58423e+07
1.59636e+07
1.611e+07
1.62418e+07
1.63774e+07
1.64735e+07
1.65777e+07
1.66443e+07
1.67063e+07
1.67932e+07
1.6873e+07
1.69682e+07
1.70727e+07
1.7152e+07
1.72339e+07
1.73169e+07
1.7391e+07
1.7426e+07
1.74656e+07
1.74891e+07
1.75385e+07
1.7581e+07
1.76286e+07
1.76686e+07
1.77106e+07
1.77585e+07
1.78052e+07
1.78386e+07
1.78982e+07
1.79242e+07
1.79692e+07
1.79943e+07
1.80513e+07
1.80898e+07
1.8104e+07
1.81702e+07
1.81766e+07
1.81892e+07
1.81401e+07
1.81776e+07
1.81337e+07
1.8114e+07
1.8106e+07