/*--------------------------------*- C++ -*----------------------------------*\
  =========                 |
  \\      /  F ield         | OpenFOAM: The Open Source CFD Toolbox
   \\    /   O peration     | Website:  https://openfoam.org
    \\  /    A nd           | Version:  8
     \\/     M anipulation  |
\*---------------------------------------------------------------------------*/
FoamFile
{
    version     2.0;
    format      ascii;
    class       volScalarField;
    location    "1.500023";
    object      k;
}
// * * * * * * * * * * * * * * * * * * * * * * * * * * * * * * * * * * * * * //

dimensions      [0 2 -2 0 0 0 0];

internalField   nonuniform List<scalar> 
6800
(
88.0915
248.95
277.632
267.645
219.929
125.924
79.0614
51.5711
32.1593
23.6309
86.1926
259.88
235.376
156.217
103.86
72.0604
48.9552
32.0446
19.881
10.6501
77.8483
171.744
140.937
101.36
75.4835
54.9435
34.604
17.3108
8.22135
4.82259
58.5008
126.514
106.951
84.2005
64.3267
36.1365
15.2069
7.52093
4.40614
3.09075
68.3728
100.937
91.9966
77.0579
43.1813
17.5092
8.17054
4.72609
3.19493
2.50218
78.2085
93.6765
88.5636
61.936
24.8412
10.5307
5.52745
3.65132
2.67498
2.22765
83.5622
93.2765
84.5805
42.4358
15.6839
6.72448
4.1315
2.96164
2.2817
2.02461
84.7952
94.4861
75.9679
27.2358
9.70682
5.31061
3.62714
2.69147
2.14356
1.96152
85.184
99.9914
63.8687
19.411
7.81377
4.54903
3.08552
2.35999
1.97447
1.86517
85.2398
104.701
51.5107
14.0693
5.87037
3.94043
2.92072
2.27671
1.93099
1.84402
85.5174
157.314
178.468
188.09
194.884
201.706
209.27
217.657
226.734
236.298
83.8555
153.955
175.014
185.006
192.501
200.19
208.875
218.709
229.647
241.603
81.0566
147.562
168.315
178.964
187.824
197.185
207.856
220.224
234.651
251.19
76.9568
138.98
159.187
171.003
181.686
193.21
206.29
221.709
240.569
262.982
71.6483
129.569
149.611
163.052
176.161
190.561
206.571
224.987
249.139
277.34
66.1427
121.72
142.7
158.813
175.498
193.755
215.083
239.744
275.319
296.854
61.5466
119.504
143.125
163.065
184.573
211.738
249.098
281.977
312.69
307.025
59.3261
124.799
154.158
183.231
216.244
260.156
294.5
312.631
309.672
251.191
61.4306
143.235
189.275
233.102
270.447
302.848
298.294
263.774
210.466
99.0263
65.7771
185.586
250.73
270.605
290.165
263.543
191.134
110.461
67.4475
38.8603
249.886
267.074
283.975
300.266
315.705
330.117
343.427
355.601
366.658
376.66
385.535
393.3
399.955
405.537
410.085
413.447
415.743
416.783
416.573
415.139
412.34
408.38
403.361
397.435
390.777
383.57
375.993
368.206
360.339
352.501
344.782
337.262
329.991
323.018
316.39
310.157
304.329
298.882
293.76
288.892
284.207
279.635
275.118
270.608
266.073
261.495
256.869
252.199
247.498
242.781
238.07
233.387
228.754
224.191
219.72
215.356
211.113
207.005
203.038
199.217
195.546
192.024
188.648
185.414
182.314
179.342
176.489
173.748
171.108
168.563
166.103
163.72
161.409
159.161
156.971
154.833
152.744
150.697
148.692
146.725
144.795
142.899
141.038
139.21
137.415
135.652
133.921
132.222
130.554
128.916
127.309
125.729
124.183
122.655
121.179
119.68
118.312
116.757
115.672
113.7
258.504
278.774
298.809
318.007
336.094
352.848
368.187
382.066
394.549
405.785
415.603
424.071
431.217
437.214
441.882
445.1
447.001
447.372
446.443
444.03
440.248
435.209
429.029
421.88
413.965
405.492
396.672
387.685
378.674
369.75
361.019
352.568
344.44
336.715
329.439
322.632
316.284
310.349
304.744
299.381
294.187
289.095
284.048
279.006
273.946
268.857
263.741
258.608
253.474
248.36
243.286
238.275
233.348
228.524
223.821
219.253
214.831
210.562
206.453
202.504
198.715
195.085
191.607
188.276
185.085
182.024
179.085
176.258
173.535
170.908
168.367
165.906
163.517
161.193
158.928
156.718
154.558
152.443
150.371
148.34
146.348
144.394
142.477
140.596
138.751
136.94
135.164
133.422
131.714
130.037
128.393
126.778
125.2
123.639
122.134
120.603
119.213
117.622
116.525
114.51
274.101
299.774
324.954
348.718
370.909
391.257
409.774
426.425
441.58
454.667
465.869
475.267
483.036
489.186
493.502
496.027
496.888
496.062
493.587
489.43
483.789
476.747
468.438
459.09
448.968
438.319
427.406
416.445
405.588
394.934
384.632
374.789
365.466
356.7
348.515
340.895
333.795
327.14
320.806
314.679
308.69
302.78
296.903
291.033
285.162
279.29
273.431
267.606
261.836
256.146
250.556
245.088
239.758
234.583
229.573
224.737
220.081
215.605
211.31
207.193
203.25
199.475
195.862
192.402
189.085
185.901
182.842
179.897
177.057
174.314
171.66
169.086
166.587
164.155
161.784
159.47
157.209
154.996
152.829
150.706
148.627
146.589
144.591
142.634
140.717
138.838
136.998
135.194
133.428
131.696
130
128.335
126.71
125.101
123.556
121.978
120.558
118.913
117.805
115.726
292.944
325.511
356.397
385.006
411.386
435.198
456.667
475.81
492.535
506.278
517.794
526.969
533.909
538.647
541.387
542.09
540.926
537.603
532.308
525.277
516.68
506.71
495.675
484.066
471.882
459.333
446.707
434.232
422.045
410.29
399.046
388.395
378.381
369.01
360.282
352.154
344.554
337.399
330.532
323.813
317.198
310.649
304.134
297.641
291.179
284.76
278.405
272.139
265.983
259.961
254.092
248.391
242.873
237.545
232.415
227.485
222.755
218.22
213.876
209.715
205.732
201.919
198.267
194.766
191.407
188.18
185.074
182.08
179.189
176.393
173.685
171.056
168.501
166.013
163.586
161.215
158.896
156.627
154.404
152.227
150.095
148.006
145.96
143.957
141.996
140.076
138.197
136.357
134.557
132.792
131.066
129.37
127.719
126.081
124.517
122.906
121.478
119.791
118.691
116.565
312.371
350.797
385.609
416.63
444.275
468.206
489.116
507.236
522.095
534.282
544.013
551.36
556.505
559.649
560.56
559.509
556.1
550.166
542.308
532.693
521.512
509.091
495.818
482.057
468.12
454.293
440.792
427.778
415.26
403.36
392.076
381.454
371.513
362.219
353.54
345.433
337.799
330.588
323.634
316.763
309.975
303.277
296.643
290.075
283.599
277.231
270.988
264.892
258.955
253.192
247.613
242.22
237.024
232.023
227.216
222.602
218.177
213.932
209.859
205.952
202.203
198.606
195.155
191.84
188.652
185.583
182.623
179.763
176.996
174.316
171.716
169.189
166.728
164.327
161.981
159.684
157.433
155.226
153.061
150.938
148.856
146.815
144.815
142.855
140.935
139.056
137.216
135.413
133.649
131.919
130.229
128.565
126.95
125.339
123.813
122.223
120.839
119.166
118.11
116.009
327.146
364.033
397.566
426.556
451.785
472.962
491.153
506.833
519.165
528.412
534.723
538.776
540.543
540.282
538.195
533.293
525.386
515.055
502.81
489.144
474.559
459.566
444.614
430.116
416.215
403.125
390.786
379.251
368.293
357.982
348.198
338.977
330.328
322.226
314.587
307.458
300.687
294.316
288.244
282.237
276.317
270.536
264.852
259.287
253.878
248.638
243.564
238.664
233.933
229.369
224.967
220.718
216.621
212.668
208.847
205.163
201.609
198.18
194.868
191.668
188.577
185.595
182.721
179.948
177.272
174.685
172.179
169.75
167.392
165.103
162.877
160.707
158.586
156.508
154.468
152.46
150.484
148.536
146.617
144.727
142.866
141.036
139.237
137.468
135.732
134.028
132.356
130.715
129.107
127.526
125.982
124.455
122.978
121.494
120.1
118.626
117.368
115.813
114.839
112.913
327.327
349.891
371.425
391.86
409.984
425.458
438.115
449.066
456.802
461.448
462.325
462.124
460.725
457.403
450.536
440.708
428.113
413.303
397.038
380.156
363.488
347.709
333.185
320.295
308.763
298.835
289.856
281.822
274.193
267.044
260.085
253.448
247.123
241.301
235.716
230.704
225.948
221.615
217.798
214.112
210.531
207.152
203.834
200.644
197.639
194.83
192.173
189.655
187.259
184.954
182.719
180.525
178.378
176.251
174.118
172.022
169.947
167.918
165.918
163.943
162.001
160.1
158.248
156.445
154.693
152.979
151.304
149.666
148.068
146.51
144.984
143.487
142.009
140.545
139.089
137.636
136.188
134.741
133.298
131.861
130.433
129.016
127.612
126.221
124.846
123.486
122.147
120.823
119.523
118.237
116.98
115.727
114.521
113.292
112.153
110.922
109.896
108.595
107.778
106.187
253.371
259.934
265.954
274.086
281.37
290.942
298.415
305.23
311.602
311.597
310.505
309.494
305.111
296.714
284.764
269.933
253.058
235.115
217.183
200.343
185.493
173.224
163.056
155.567
149.212
145.016
141.308
138.084
134.385
131.011
126.72
123.064
119.084
116.625
113.987
112.879
111.877
111.999
113.105
113.652
114.115
114.91
115.62
116.306
117.007
117.819
118.668
119.514
120.399
121.156
121.743
122.188
122.5
122.63
122.531
122.505
122.286
122.227
122.027
121.745
121.406
121.031
120.64
120.233
119.824
119.379
118.914
118.438
117.959
117.478
116.985
116.475
115.944
115.383
114.788
114.151
113.485
112.775
112.042
111.277
110.5
109.71
108.906
108.086
107.258
106.422
105.586
104.747
103.916
103.082
102.265
101.437
100.643
99.817
99.0631
98.2215
97.5381
96.6431
96.0748
94.9859
100.251
102.271
104.063
107.519
108.824
112.051
113.527
112.727
113.716
111.811
110.91
108.227
103.796
97.5427
90.0448
81.8132
73.38
65.1563
57.7252
51.3447
46.1689
42.2545
39.1108
37.0883
35.2107
34.2775
33.36
32.4918
31.5248
30.2874
28.9953
27.6459
26.4854
25.9293
25.6254
25.678
26.0585
26.7868
27.7942
28.9798
29.9626
31.2627
32.5681
34.0639
35.5723
37.3382
39.1857
41.1946
43.2906
45.4804
47.8308
50.2186
52.6521
55.0424
57.3591
59.5603
61.6857
63.6941
65.599
67.3568
68.9943
70.4979
71.8983
73.1974
74.4169
75.5385
76.5356
77.4496
78.2731
79.0355
79.7336
80.3745
80.9454
81.4378
81.8647
82.2011
82.4926
82.6792
82.8426
82.9146
82.9947
83.041
83.0132
82.9195
82.7843
82.6184
82.4297
82.2187
81.9951
81.7532
81.5081
81.2428
80.9864
80.7007
80.4429
80.1317
79.8855
79.5424
79.3101
78.879
38.7716
38.6306
38.485
38.0721
37.2918
36.5036
35.5379
34.4399
32.9707
31.4714
29.6595
27.6267
25.4075
22.9655
20.4499
17.977
15.678
13.6109
11.8714
10.4301
9.2884
8.39835
7.67202
7.12749
6.62719
6.27352
5.93278
5.60776
5.30355
4.96317
4.65551
4.36965
4.09976
3.92471
3.75279
3.70859
3.60791
3.60112
3.63753
3.72227
3.82995
3.99379
4.16001
4.41117
4.66565
5.02212
5.42481
5.90449
6.47461
7.09777
7.84511
8.65225
9.59923
10.6207
11.7725
12.9738
14.2943
15.6646
17.1127
18.5895
20.101
21.6293
23.1839
24.7536
26.3381
27.9337
29.5362
31.1983
32.8504
34.5296
36.1916
37.8457
39.4457
40.9837
42.4497
43.8182
45.1128
46.2928
47.3992
48.4091
49.3603
50.2403
51.0479
51.781
52.4375
53.0406
53.5806
54.085
54.5366
54.9694
55.3559
55.7373
56.0725
56.4156
56.707
57.025
57.2716
57.5771
57.7656
58.084
13.9174
14.356
14.322
14.2269
14.0447
13.6921
13.2473
12.7204
12.0953
11.4078
10.6555
9.85372
9.03271
8.2066
7.41168
6.66448
5.99111
5.39212
4.88067
4.44167
4.07508
3.76241
3.49466
3.26281
3.05732
2.87789
2.71221
2.56118
2.42112
2.29186
2.17286
2.06667
1.96642
1.88101
1.79874
1.73068
1.66537
1.61177
1.56342
1.52566
1.48854
1.46249
1.43735
1.41826
1.40348
1.3902
1.38708
1.38069
1.38391
1.39181
1.41092
1.43153
1.47447
1.5181
1.59071
1.66949
1.77938
1.90803
2.06582
2.25422
2.46705
2.72368
3.00196
3.33913
3.69456
4.12505
4.56858
5.11019
5.67129
6.33725
7.03457
7.83252
8.66137
9.57248
10.501
11.4914
12.4798
13.5169
14.534
15.5925
16.6225
17.7006
18.727
19.8066
20.8305
21.9145
22.9216
23.9986
24.9739
26.0338
26.9612
27.9998
28.8625
29.8805
30.6594
31.6687
32.3423
33.357
33.9211
35.0006
7.40027
7.40392
7.38269
7.29835
7.15633
6.94927
6.70032
6.41832
6.10381
5.767
5.41286
5.0484
4.6857
4.33104
3.99688
3.68556
3.40607
3.15457
2.93564
2.74166
2.57431
2.42651
2.29729
2.18248
2.07978
1.98738
1.90282
1.82544
1.75441
1.6892
1.62916
1.57493
1.52446
1.48008
1.43826
1.40247
1.36835
1.33922
1.31267
1.28859
1.26618
1.24726
1.22833
1.21179
1.19528
1.18069
1.16623
1.15306
1.14027
1.12806
1.11675
1.10533
1.09535
1.08477
1.07604
1.06646
1.05905
1.05092
1.04514
1.03889
1.0353
1.03169
1.03123
1.03261
1.03516
1.04294
1.05037
1.06807
1.08373
1.11559
1.14321
1.19804
1.24053
1.32922
1.39075
1.52108
1.60644
1.78477
1.89925
2.13274
2.27926
2.5798
2.76297
3.13576
3.36633
3.82141
4.10617
4.65564
4.99989
5.65231
6.05619
6.81675
7.27633
8.14562
8.6532
9.62393
10.1707
11.2138
11.8484
13.0227
4.21985
4.22012
4.20815
4.17048
4.09964
4.0017
3.88499
3.75217
3.60594
3.44907
3.28538
3.11755
2.9507
2.787
2.63189
2.48499
2.35119
2.22703
2.11775
2.01758
1.92985
1.84974
1.77931
1.71479
1.65687
1.60369
1.55526
1.51065
1.46994
1.43247
1.39858
1.36749
1.33932
1.31328
1.28946
1.26728
1.24624
1.22713
1.20886
1.19153
1.17527
1.16055
1.14599
1.13264
1.11936
1.10745
1.09522
1.08441
1.07298
1.06307
1.05222
1.04301
1.03259
1.0239
1.01385
1.00554
0.995796
0.987811
0.978371
0.970631
0.961484
0.953963
0.945101
0.937792
0.929142
0.922106
0.913897
0.907452
0.899693
0.893885
0.886626
0.88156
0.874907
0.87069
0.864835
0.861587
0.856883
0.854736
0.851709
0.851208
0.851031
0.853588
0.855509
0.861853
0.866705
0.879999
0.889303
0.913725
0.929513
0.970028
0.995627
1.05895
1.09813
1.19319
1.25262
1.38568
1.47809
1.65156
1.80212
2.06573
2.75428
2.75346
2.7471
2.7283
2.69269
2.64482
2.58825
2.52333
2.45233
2.37567
2.29586
2.21373
2.13179
2.05078
1.9731
1.89833
1.82907
1.76391
1.70465
1.64922
1.59984
1.55308
1.51182
1.47224
1.43767
1.40416
1.37507
1.34665
1.32189
1.29757
1.27574
1.25413
1.23422
1.21425
1.19596
1.17736
1.16062
1.14371
1.12881
1.11338
1.10025
1.08703
1.07526
1.06307
1.05236
1.04122
1.03129
1.02075
1.01131
1.00117
0.992083
0.982319
0.973538
0.964179
0.955696
0.946787
0.938592
0.930175
0.922251
0.914319
0.906646
0.89919
0.891764
0.88476
0.877576
0.870975
0.864033
0.857779
0.851095
0.845137
0.838731
0.833043
0.826923
0.821473
0.815623
0.81038
0.804759
0.799693
0.794258
0.789413
0.784144
0.779585
0.774441
0.770201
0.765152
0.761294
0.756346
0.752934
0.748142
0.745222
0.740734
0.73834
0.734415
0.732631
0.729642
0.728658
0.726873
0.726956
0.727078
0.732134
2.06812
2.06636
2.06147
2.05033
2.03107
2.00527
1.97442
1.93939
1.90122
1.86035
1.818
1.77457
1.73109
1.68797
1.64579
1.60484
1.56542
1.52745
1.49141
1.45691
1.42451
1.39361
1.36502
1.33801
1.31305
1.28941
1.26764
1.24663
1.22727
1.20806
1.19026
1.17237
1.15578
1.13901
1.12362
1.10792
1.09377
1.07922
1.06638
1.05278
1.0414
1.02916
1.01858
1.00723
0.997519
0.986864
0.977717
0.96762
0.959072
0.949483
0.941514
0.932395
0.924958
0.916282
0.909332
0.901071
0.894555
0.88667
0.880521
0.872962
0.867124
0.85986
0.854292
0.847302
0.841973
0.835228
0.830112
0.823586
0.81868
0.812362
0.807674
0.801564
0.797098
0.791188
0.786936
0.781198
0.777139
0.771532
0.767644
0.762133
0.758399
0.752971
0.749376
0.744022
0.740557
0.735281
0.731939
0.726745
0.72352
0.718404
0.715292
0.710247
0.707243
0.702267
0.699371
0.694458
0.691656
0.686912
0.683805
0.678559
1.7177
1.71573
1.71076
1.70234
1.69075
1.67488
1.6566
1.63562
1.61313
1.58881
1.56373
1.53717
1.51067
1.4829
1.45593
1.42806
1.40154
1.37446
1.34934
1.32381
1.30079
1.27753
1.25673
1.23577
1.21703
1.19817
1.18107
1.16379
1.14782
1.13185
1.11673
1.10183
1.08763
1.0735
1.06037
1.04705
1.03496
1.02279
1.01157
1.00036
0.990648
0.980437
0.971494
0.962066
0.953757
0.944823
0.937056
0.928535
0.921217
0.913035
0.906129
0.898249
0.891695
0.884087
0.87784
0.870487
0.864522
0.857415
0.851712
0.844844
0.839386
0.832747
0.827518
0.821101
0.816089
0.809873
0.805064
0.79904
0.794436
0.788601
0.784206
0.778558
0.774369
0.768893
0.764896
0.759559
0.755735
0.750504
0.746835
0.741681
0.738158
0.733077
0.729683
0.724663
0.721394
0.716429
0.713272
0.708363
0.705315
0.700448
0.6975
0.692662
0.68981
0.684997
0.682252
0.677458
0.674835
0.669974
0.667879
0.661071
1.52291
1.52028
1.51615
1.50894
1.50056
1.48894
1.47637
1.46149
1.44623
1.42942
1.41224
1.39392
1.37514
1.3556
1.33602
1.31601
1.29656
1.27673
1.258
1.23888
1.22117
1.20313
1.1866
1.16957
1.15436
1.13854
1.12454
1.10985
1.09698
1.08335
1.07135
1.05863
1.04738
1.03537
1.02482
1.01358
1.00354
0.992994
0.983568
0.973764
0.96514
0.955731
0.947635
0.938748
0.9311
0.922572
0.915345
0.907221
0.900385
0.892636
0.886178
0.878748
0.872591
0.865403
0.859475
0.852488
0.846774
0.839987
0.834494
0.827913
0.822642
0.816261
0.811194
0.805
0.800132
0.794125
0.789459
0.783627
0.77916
0.773493
0.769224
0.763714
0.759634
0.754272
0.750363
0.745124
0.741371
0.736234
0.732623
0.727565
0.72408
0.719088
0.715718
0.710791
0.707534
0.702669
0.699524
0.694724
0.69169
0.686943
0.684026
0.679328
0.676524
0.671872
0.669178
0.664566
0.661956
0.65748
0.654541
0.64956
1.40658
1.40293
1.39819
1.3917
1.38481
1.37565
1.36586
1.35414
1.34243
1.32923
1.31624
1.30185
1.28745
1.27196
1.25667
1.24072
1.22521
1.20922
1.19387
1.17812
1.1633
1.14803
1.13404
1.11966
1.10656
1.09315
1.08098
1.06852
1.05715
1.04547
1.03468
1.0236
1.01334
1.00258
0.992931
0.982467
0.973305
0.963448
0.954565
0.945572
0.937338
0.928716
0.921239
0.912985
0.905855
0.898045
0.891321
0.883783
0.877328
0.870045
0.863868
0.856808
0.850884
0.844023
0.838316
0.831637
0.826144
0.819651
0.81437
0.808058
0.802976
0.796837
0.79196
0.786006
0.781326
0.775546
0.77106
0.765444
0.761142
0.755677
0.751556
0.746236
0.742288
0.737101
0.733315
0.728241
0.724608
0.719629
0.716139
0.711237
0.707879
0.703051
0.69982
0.695066
0.691954
0.687268
0.684275
0.679661
0.676783
0.672236
0.669472
0.664989
0.662333
0.657908
0.655364
0.650986
0.648563
0.644135
0.642239
0.635838
1.32978
1.32602
1.32093
1.31446
1.30805
1.29994
1.29138
1.28149
1.27161
1.26071
1.25001
1.23805
1.22609
1.21283
1.19997
1.18627
1.17323
1.15953
1.14665
1.13313
1.12063
1.1075
1.09548
1.08295
1.07147
1.05957
1.04877
1.03756
1.02735
1.01683
1.00702
0.997078
0.987658
0.978034
0.969211
0.959795
0.951541
0.942506
0.934632
0.926375
0.918812
0.910812
0.903794
0.896076
0.88946
0.88207
0.875728
0.868578
0.862539
0.855691
0.849987
0.843393
0.837939
0.831522
0.826242
0.819963
0.81484
0.808691
0.803717
0.797702
0.792883
0.786998
0.782339
0.776589
0.772089
0.766479
0.762136
0.756658
0.752474
0.747116
0.743085
0.737846
0.73397
0.728843
0.725117
0.720093
0.716518
0.711583
0.708147
0.703299
0.699996
0.695228
0.692054
0.687367
0.684314
0.679707
0.676777
0.672239
0.669429
0.664957
0.662263
0.657845
0.655259
0.650902
0.648412
0.644111
0.641698
0.637533
0.634781
0.630118
1.27809
1.27332
1.26821
1.26225
1.25595
1.24833
1.24035
1.23122
1.22233
1.21253
1.20329
1.19274
1.18226
1.17038
1.15904
1.14687
1.13543
1.12336
1.11194
1.10003
1.08876
1.07707
1.06609
1.0547
1.04421
1.03329
1.0234
1.01305
1.00375
0.993967
0.9851
0.975806
0.967284
0.958315
0.950222
0.941465
0.93378
0.925298
0.917973
0.909974
0.902783
0.89519
0.888551
0.881164
0.874798
0.867666
0.861559
0.854619
0.848832
0.842127
0.836578
0.830107
0.824812
0.818553
0.81346
0.807366
0.802431
0.796469
0.791687
0.785859
0.78124
0.775544
0.771092
0.765543
0.761257
0.755857
0.751729
0.746464
0.742482
0.737326
0.733476
0.728405
0.724667
0.719668
0.716033
0.711094
0.707565
0.702688
0.699271
0.694463
0.691167
0.686437
0.683264
0.678617
0.675566
0.671001
0.668071
0.663586
0.660769
0.656363
0.653661
0.649328
0.646739
0.642478
0.639998
0.635794
0.633446
0.6292
0.627379
0.621193
1.24067
1.23507
1.22932
1.22384
1.218
1.21057
1.20305
1.19445
1.18591
1.17681
1.16832
1.15881
1.14915
1.1382
1.12792
1.11691
1.10674
1.09585
1.08566
1.07476
1.06462
1.05382
1.04386
1.03331
1.02372
1.01356
1.00451
0.994871
0.986375
0.977202
0.969104
0.960356
0.952535
0.944067
0.936586
0.928237
0.921093
0.912989
0.905996
0.898369
0.891498
0.884118
0.877695
0.870465
0.864224
0.857247
0.851301
0.84453
0.838779
0.832229
0.826732
0.820412
0.815155
0.809028
0.803977
0.798017
0.793172
0.787364
0.78272
0.777079
0.772629
0.767161
0.762897
0.75759
0.753509
0.748343
0.744418
0.739371
0.735571
0.730606
0.726917
0.722012
0.718415
0.713557
0.710033
0.705207
0.701767
0.696988
0.693641
0.688922
0.685679
0.681023
0.677884
0.673295
0.670259
0.665746
0.662819
0.658374
0.65555
0.651166
0.648443
0.644123
0.641508
0.63725
0.634749
0.63054
0.628172
0.623919
0.622087
0.615925
1.21469
1.20764
1.20266
1.19642
1.19071
1.18447
1.17767
1.16955
1.16153
1.15278
1.14491
1.13625
1.12753
1.11736
1.10769
1.09723
1.08746
1.07703
1.06727
1.0569
1.04729
1.03709
1.02771
1.01775
1.00867
0.999078
0.990449
0.98127
0.973122
0.964379
0.956594
0.948196
0.940662
0.932451
0.925203
0.917105
0.910133
0.902231
0.895513
0.887985
0.881325
0.874174
0.867917
0.860963
0.85495
0.848295
0.842508
0.835922
0.830357
0.823955
0.81856
0.812327
0.807152
0.801093
0.796114
0.790228
0.785426
0.779708
0.775097
0.769542
0.765133
0.75973
0.755509
0.750247
0.746195
0.741062
0.737164
0.73214
0.728377
0.723445
0.719804
0.714941
0.71141
0.706616
0.703198
0.698477
0.695182
0.690537
0.687365
0.682799
0.679755
0.675264
0.672341
0.667927
0.665127
0.660783
0.658091
0.653807
0.651207
0.646958
0.644431
0.640212
0.63776
0.633563
0.631181
0.627006
0.624715
0.62048
0.618662
0.612595
1.19336
1.18724
1.18059
1.17506
1.16898
1.16148
1.1553
1.14811
1.14034
1.13205
1.12486
1.11713
1.1097
1.10081
1.09226
1.08238
1.07258
1.06196
1.05208
1.04183
1.03249
1.02265
1.01374
1.00414
0.995515
0.986224
0.977923
0.969016
0.961137
0.952553
0.944993
0.936718
0.929335
0.921348
0.91417
0.906331
0.899532
0.891866
0.88541
0.878114
0.87183
0.865064
0.85905
0.852455
0.846799
0.840373
0.834834
0.828557
0.823197
0.816994
0.811795
0.80572
0.800708
0.794752
0.789909
0.784096
0.779409
0.77375
0.769229
0.763741
0.75941
0.75407
0.749919
0.744719
0.740733
0.735651
0.731815
0.726828
0.723124
0.718215
0.714639
0.709802
0.706356
0.701597
0.698284
0.693612
0.690439
0.685856
0.682831
0.678347
0.675474
0.671092
0.668366
0.66408
0.661493
0.657291
0.654821
0.650688
0.648308
0.644215
0.641906
0.637836
0.635569
0.631499
0.629269
0.625189
0.622996
0.618839
0.617062
0.611056
1.17844
1.17109
1.16484
1.15927
1.15281
1.14668
1.13914
1.13124
1.12391
1.11562
1.10859
1.10178
1.0945
1.08595
1.0776
1.06781
1.05885
1.04916
1.04012
1.03047
1.02166
1.0123
1.00373
0.994445
0.986061
0.976881
0.968709
0.959857
0.951969
0.943502
0.935906
0.927822
0.920524
0.912704
0.905764
0.898154
0.891525
0.884163
0.877904
0.870832
0.864706
0.858109
0.852296
0.845772
0.840272
0.833931
0.828542
0.82231
0.817031
0.810921
0.805817
0.799936
0.795079
0.789362
0.784683
0.77913
0.774614
0.769187
0.764851
0.759541
0.755374
0.750187
0.746163
0.741094
0.737214
0.732249
0.72851
0.723637
0.720034
0.715241
0.711763
0.70704
0.703681
0.699021
0.695773
0.691172
0.688028
0.683489
0.680447
0.675973
0.67304
0.668631
0.665811
0.661471
0.658764
0.654498
0.651898
0.647709
0.645213
0.641096
0.63869
0.634637
0.632307
0.628303
0.626035
0.622071
0.619832
0.615985
0.613355
0.608963
1.16633
1.15905
1.15345
1.14704
1.13963
1.13335
1.12657
1.1188
1.11059
1.1017
1.09405
1.08645
1.07892
1.07036
1.06222
1.0534
1.04496
1.0358
1.02743
1.01844
1.01016
1.00128
0.993065
0.984259
0.976187
0.967418
0.959524
0.950936
0.943235
0.934953
0.927527
0.919649
0.912508
0.905019
0.898215
0.890927
0.884604
0.877401
0.871386
0.864449
0.858651
0.852097
0.846322
0.839971
0.834547
0.828358
0.823096
0.817115
0.81216
0.806304
0.801502
0.795898
0.791296
0.785809
0.781336
0.775911
0.771557
0.766225
0.762023
0.756801
0.752737
0.747638
0.743699
0.738703
0.734886
0.72998
0.726256
0.721426
0.717817
0.713075
0.709582
0.704939
0.701567
0.69701
0.693754
0.689268
0.686115
0.68168
0.678614
0.674215
0.671218
0.666849
0.663919
0.659575
0.656718
0.652404
0.649637
0.645355
0.642679
0.638431
0.63585
0.631639
0.629153
0.62498
0.622586
0.618453
0.616133
0.612117
0.609499
0.605027
1.15387
1.14871
1.14207
1.13425
1.12904
1.12222
1.11496
1.10745
1.09929
1.09006
1.08251
1.0744
1.06698
1.05874
1.05091
1.04213
1.03373
1.0248
1.01651
1.00764
0.999756
0.991311
0.983696
0.975552
0.968091
0.959997
0.952637
0.944587
0.937352
0.929528
0.922535
0.914917
0.90817
0.900724
0.894235
0.887006
0.880574
0.873635
0.867486
0.860667
0.854914
0.848257
0.842783
0.836605
0.831327
0.825332
0.82026
0.814542
0.809716
0.804012
0.799402
0.793899
0.789413
0.783965
0.779603
0.77428
0.769921
0.764674
0.760433
0.755172
0.75104
0.745813
0.741764
0.736646
0.732685
0.727684
0.723841
0.718914
0.715202
0.710388
0.70682
0.702102
0.698661
0.694047
0.690723
0.686217
0.683004
0.678571
0.675459
0.67108
0.668052
0.663712
0.660759
0.65645
0.653578
0.649299
0.646517
0.642268
0.639576
0.635352
0.632751
0.628547
0.626038
0.621855
0.619439
0.615283
0.612946
0.608903
0.606285
0.601826
1.14969
1.14237
1.13658
1.13042
1.12371
1.11678
1.11001
1.10195
1.09451
1.08568
1.07807
1.06984
1.06205
1.05327
1.04457
1.03539
1.02678
1.01753
1.00939
1.0007
0.992864
0.984496
0.976874
0.968702
0.961315
0.953297
0.946123
0.938271
0.931246
0.923618
0.916705
0.909213
0.902479
0.895063
0.888486
0.881266
0.874972
0.867962
0.862013
0.855449
0.849831
0.84349
0.838315
0.832248
0.827184
0.821401
0.816519
0.810743
0.805956
0.800328
0.795636
0.79009
0.785591
0.780115
0.775622
0.770239
0.765831
0.76051
0.756228
0.751001
0.746816
0.74165
0.737596
0.732498
0.728566
0.723571
0.719745
0.714842
0.71115
0.706341
0.702768
0.698057
0.694612
0.689983
0.686662
0.682119
0.678908
0.674434
0.671332
0.666931
0.663932
0.659597
0.656704
0.652429
0.649637
0.645418
0.642727
0.638559
0.635964
0.631842
0.629342
0.62526
0.62285
0.618804
0.61648
0.612472
0.610217
0.606325
0.60377
0.599409
1.14175
1.13344
1.12598
1.11891
1.11167
1.10485
1.09828
1.09174
1.08373
1.07446
1.06731
1.05943
1.05234
1.04435
1.03678
1.02865
1.02035
1.01151
1.00343
0.994779
0.986951
0.978495
0.970729
0.962343
0.954659
0.946419
0.93903
0.931121
0.924142
0.916626
0.910004
0.902846
0.896432
0.889561
0.883385
0.876657
0.870745
0.864084
0.858513
0.852194
0.846673
0.840558
0.835347
0.829275
0.824283
0.818417
0.813433
0.80769
0.802868
0.797222
0.792512
0.786991
0.782434
0.776978
0.772583
0.767231
0.762905
0.757692
0.753494
0.748337
0.744263
0.739191
0.735226
0.73024
0.726391
0.721486
0.717754
0.712932
0.709313
0.704577
0.701074
0.696416
0.693024
0.688445
0.68516
0.680655
0.677481
0.673042
0.669976
0.665603
0.662639
0.658329
0.655469
0.651219
0.648465
0.644268
0.641609
0.637468
0.634907
0.630815
0.62835
0.624303
0.62193
0.617925
0.615638
0.611674
0.609453
0.605604
0.603085
0.598759
1.13985
1.13091
1.12652
1.11977
1.11178
1.10544
1.09812
1.09114
1.08341
1.0752
1.0687
1.06047
1.05301
1.04443
1.03581
1.02694
1.01783
1.00848
0.999915
0.990962
0.982864
0.974315
0.96655
0.958249
0.950729
0.942668
0.935473
0.927804
0.921027
0.913749
0.907297
0.900329
0.894137
0.887355
0.881392
0.87478
0.868937
0.862473
0.856903
0.850639
0.845211
0.839081
0.833898
0.827896
0.822863
0.817052
0.812184
0.806481
0.801685
0.796087
0.791444
0.785947
0.781469
0.776074
0.771702
0.766413
0.762136
0.756936
0.752796
0.747676
0.74363
0.738594
0.734665
0.729705
0.725886
0.721009
0.717297
0.712495
0.708892
0.704169
0.70068
0.696033
0.692651
0.688081
0.684807
0.680307
0.677141
0.672709
0.669646
0.665282
0.662326
0.658017
0.655161
0.650913
0.648162
0.643959
0.641302
0.637155
0.634588
0.630488
0.628015
0.623959
0.621575
0.61756
0.615264
0.611284
0.609089
0.605062
0.603332
0.597528
1.13316
1.12463
1.11866
1.10981
1.10263
1.09674
1.08814
1.0811
1.07357
1.06477
1.05739
1.0488
1.04155
1.03358
1.02572
1.01774
1.00978
1.00126
0.993535
0.985303
0.977881
0.969987
0.962852
0.955173
0.948206
0.940664
0.933877
0.926512
0.919946
0.912815
0.906491
0.89959
0.893481
0.886767
0.88083
0.87427
0.868477
0.862044
0.856464
0.850209
0.844831
0.838688
0.833524
0.827527
0.822558
0.816758
0.811881
0.806204
0.801453
0.795879
0.791269
0.785787
0.781324
0.775924
0.771596
0.766299
0.762034
0.756868
0.752713
0.747609
0.743561
0.738541
0.734608
0.729658
0.725848
0.720979
0.717268
0.712467
0.708867
0.704148
0.700657
0.696009
0.692629
0.688053
0.684785
0.680281
0.677117
0.67268
0.66962
0.665246
0.662289
0.657974
0.655118
0.650858
0.648101
0.643893
0.641232
0.637073
0.634505
0.630392
0.627913
0.623841
0.62145
0.617417
0.615112
0.611119
0.608882
0.605003
0.602465
0.59809
1.64156
1.67885
1.76484
1.85949
1.94164
2.1419
2.35626
2.92019
4.65314
13.5632
1.49151
1.53947
1.56847
1.66437
1.73167
1.85621
2.03597
2.24307
2.78112
7.34775
1.44227
1.45934
1.49158
1.51937
1.59849
1.65275
1.78805
1.94718
2.13633
4.19343
1.3789
1.38659
1.41534
1.43683
1.47499
1.53309
1.58751
1.73331
1.82887
2.74298
1.33861
1.3465
1.35706
1.38121
1.39745
1.44314
1.4732
1.56706
1.62806
2.06257
1.30379
1.3116
1.3164
1.33373
1.34389
1.37498
1.39412
1.45318
1.49138
1.71541
1.27952
1.2835
1.28612
1.29753
1.30423
1.32543
1.33827
1.37638
1.40047
1.52388
1.26092
1.26163
1.26245
1.26844
1.27252
1.28613
1.29451
1.31987
1.33566
1.40806
1.24641
1.24532
1.24513
1.24763
1.24966
1.25743
1.26254
1.2781
1.28823
1.33165
1.23381
1.23135
1.2301
1.23032
1.23108
1.23523
1.23794
1.24757
1.2537
1.28024
1.22495
1.22087
1.21897
1.217
1.21654
1.2178
1.21889
1.22352
1.22702
1.24301
1.21676
1.21209
1.20901
1.20644
1.20478
1.204
1.204
1.20613
1.2076
1.21671
1.21097
1.20559
1.20162
1.19786
1.19485
1.19301
1.19106
1.19077
1.19104
1.19634
1.20605
1.20065
1.196
1.19186
1.18836
1.18536
1.18258
1.18129
1.1791
1.18119
1.20195
1.19516
1.19122
1.18542
1.18136
1.17826
1.1739
1.17169
1.16883
1.16994
1.20049
1.19252
1.18778
1.18341
1.17644
1.1738
1.16837
1.16533
1.16015
1.15894
1.19745
1.19034
1.18452
1.18125
1.17386
1.17053
1.16575
1.16156
1.15669
1.15541
1.19515
1.18757
1.18027
1.17653
1.16895
1.16462
1.15941
1.15449
1.14868
1.145
1.19462
1.18858
1.18077
1.17693
1.17018
1.16393
1.15952
1.15394
1.14794
1.14539
1.19172
1.18508
1.17762
1.17273
1.16656
1.1596
1.15499
1.14902
1.14354
1.13859
1.60508
1.7076
1.88337
2.22888
2.72419
3.49385
5.69714
16.3725
93.9404
74.2761
1.59709
1.69628
1.87041
2.20947
2.68996
3.47042
5.61275
16.107
101.716
74.9946
1.60807
1.68811
1.87763
2.22942
2.83734
3.66265
6.12452
17.9702
101.751
75.6169
1.63295
1.70708
1.87269
2.20259
2.80881
3.67566
5.99037
17.5745
105.104
78.3841
1.65134
1.70872
1.90622
2.27287
2.98007
3.80784
6.78175
20.7962
104.588
78.9329
1.65099
1.7341
1.90522
2.25577
3.02227
3.99283
6.60325
19.6387
105.403
79.804
1.6989
1.74892
1.96856
2.34726
3.09234
4.06096
7.71321
25.7073
110.145
80.2708
1.71897
1.78617
1.98143
2.46387
3.39588
4.6128
8.22648
28.2365
113.593
83.1502
1.75712
1.8459
2.0832
2.54638
3.4721
4.73296
9.09088
32.3963
111.775
83.1112
1.77513
1.85699
2.11196
2.63444
3.77122
5.37394
10.7459
40.5677
109.188
84.6976
1.63438
1.76105
1.8826
2.33059
2.99739
2.90138
5.67312
42.3855
89.9307
68.148
1.63909
1.73993
1.88141
2.14552
2.59132
3.36059
3.67341
25.4057
82.5184
65.4663
1.65035
1.75492
1.92461
2.17249
2.53195
3.45615
4.5171
18.8879
81.7179
65.1158
1.63552
1.7448
1.92922
2.18178
2.63446
3.3294
4.74359
16.3391
81.5207
64.4972
1.63876
1.73242
1.91965
2.16953
2.58592
3.57767
4.84048
15.2429
84.7917
66.6686
1.61373