/*--------------------------------*- C++ -*----------------------------------*\
  =========                 |
  \\      /  F ield         | OpenFOAM: The Open Source CFD Toolbox
   \\    /   O peration     | Website:  https://openfoam.org
    \\  /    A nd           | Version:  8
     \\/     M anipulation  |
\*---------------------------------------------------------------------------*/
FoamFile
{
    version     2.0;
    format      ascii;
    class       volScalarField;
    location    "1.500023";
    object      N;
}
// * * * * * * * * * * * * * * * * * * * * * * * * * * * * * * * * * * * * * //

dimensions      [0 -3 0 0 0 0 0];

internalField   nonuniform List<scalar> 
6800
(
2.72171e+06
2.65215e+06
2.37839e+06
2.30324e+06
2.30079e+06
2.30676e+06
2.33034e+06
2.3609e+06
2.36278e+06
2.36605e+06
2.7187e+06
2.44992e+06
2.29849e+06
2.28762e+06
2.30231e+06
2.33221e+06
2.35739e+06
2.34726e+06
2.30263e+06
2.22441e+06
2.72252e+06
2.37829e+06
2.27489e+06
2.28753e+06
2.32701e+06
2.34677e+06
2.32531e+06
2.26493e+06
2.13936e+06
2.10234e+06
2.73128e+06
2.24776e+06
2.26114e+06
2.31524e+06
2.33562e+06
2.3078e+06
2.22222e+06
2.11253e+06
2.0669e+06
2.05991e+06
2.15222e+06
2.19231e+06
2.28421e+06
2.32484e+06
2.29546e+06
2.20384e+06
2.09226e+06
2.05196e+06
2.02936e+06
2.02697e+06
2.1065e+06
2.26639e+06
2.31371e+06
2.29872e+06
2.20116e+06
2.08626e+06
2.03926e+06
2.00114e+06
1.98217e+06
1.98938e+06
2.10103e+06
2.31696e+06
2.30915e+06
2.23846e+06
2.07525e+06
2.03782e+06
1.97718e+06
1.95365e+06
1.95685e+06
1.97335e+06
2.08884e+06
2.33064e+06
2.26575e+06
2.11973e+06
2.02401e+06
1.97166e+06
1.93145e+06
1.93151e+06
1.93567e+06
1.94864e+06
2.07524e+06
2.33178e+06
2.18471e+06
2.07138e+06
1.9626e+06
1.93934e+06
1.90614e+06
1.90003e+06
1.90758e+06
1.91955e+06
2.06283e+06
2.30972e+06
2.11451e+06
1.98069e+06
1.91606e+06
1.89211e+06
1.87028e+06
1.87684e+06
1.88803e+06
1.88867e+06
2.71934e+06
2.7043e+06
2.69798e+06
2.69119e+06
2.68576e+06
2.67931e+06
2.67331e+06
2.66624e+06
2.65926e+06
2.6514e+06
2.72082e+06
2.7059e+06
2.69977e+06
2.69314e+06
2.68773e+06
2.68146e+06
2.67618e+06
2.67043e+06
2.66632e+06
2.66418e+06
2.72132e+06
2.70761e+06
2.70172e+06
2.69688e+06
2.69469e+06
2.69623e+06
2.70188e+06
2.71725e+06
2.74742e+06
2.79543e+06
2.72162e+06
2.70917e+06
2.70637e+06
2.70691e+06
2.71685e+06
2.74588e+06
2.79024e+06
2.84757e+06
2.9048e+06
2.92947e+06
2.72205e+06
2.71294e+06
2.71403e+06
2.72686e+06
2.75996e+06
2.80097e+06
2.83362e+06
2.87394e+06
2.91409e+06
2.81864e+06
2.72369e+06
2.71807e+06
2.7251e+06
2.74736e+06
2.77756e+06
2.79829e+06
2.82995e+06
2.81194e+06
2.79386e+06
2.57437e+06
2.72497e+06
2.72139e+06
2.72993e+06
2.74932e+06
2.77842e+06
2.7748e+06
2.70419e+06
2.58908e+06
2.48167e+06
2.38239e+06
2.72643e+06
2.72527e+06
2.73542e+06
2.74893e+06
2.70637e+06
2.57855e+06
2.42091e+06
2.35251e+06
2.33395e+06
2.33382e+06
2.72712e+06
2.72755e+06
2.73921e+06
2.65272e+06
2.42957e+06
2.33807e+06
2.3173e+06
2.31831e+06
2.32501e+06
2.34214e+06
2.72845e+06
2.733e+06
2.62188e+06
2.37773e+06
2.31087e+06
2.3075e+06
2.31053e+06
2.32792e+06
2.34799e+06
2.3649e+06
2.64088e+06
2.63194e+06
2.62202e+06
2.6133e+06
2.60467e+06
2.59566e+06
2.58861e+06
2.57991e+06
2.57468e+06
2.56697e+06
2.56355e+06
2.55811e+06
2.55471e+06
2.5498e+06
2.54794e+06
2.54708e+06
2.54422e+06
2.54045e+06
2.53603e+06
2.53211e+06
2.52913e+06
2.52906e+06
2.52868e+06
2.52887e+06
2.52865e+06
2.52845e+06
2.52908e+06
2.53071e+06
2.5341e+06
2.53803e+06
2.54215e+06
2.54685e+06
2.55123e+06
2.55607e+06
2.56013e+06
2.56427e+06
2.5679e+06
2.57108e+06
2.57446e+06
2.57705e+06
2.58065e+06
2.58326e+06
2.58651e+06
2.58953e+06
2.59283e+06
2.59633e+06
2.5982e+06
2.60373e+06
2.60626e+06
2.60914e+06
2.60771e+06
2.61319e+06
2.61153e+06
2.61239e+06
2.61349e+06
2.61649e+06
2.61932e+06
2.62265e+06
2.62522e+06
2.62793e+06
2.62979e+06
2.63253e+06
2.63419e+06
2.63812e+06
2.64052e+06
2.64577e+06
2.64895e+06
2.65518e+06
2.65878e+06
2.66532e+06
2.66915e+06
2.67586e+06
2.67982e+06
2.68662e+06
2.69064e+06
2.69749e+06
2.70152e+06
2.70839e+06
2.7124e+06
2.71924e+06
2.72322e+06
2.73e+06
2.73393e+06
2.74061e+06
2.74452e+06
2.75106e+06
2.75495e+06
2.76131e+06
2.76521e+06
2.77135e+06
2.77528e+06
2.78119e+06
2.78512e+06
2.79084e+06
2.79474e+06
2.80032e+06
2.80419e+06
2.80947e+06
2.81435e+06
2.82169e+06
2.6659e+06
2.66424e+06
2.65939e+06
2.66381e+06
2.65921e+06
2.65389e+06
2.64481e+06
2.63512e+06
2.62248e+06
2.6107e+06
2.59692e+06
2.57724e+06
2.56159e+06
2.54317e+06
2.52534e+06
2.5114e+06
2.49877e+06
2.49064e+06
2.48587e+06
2.48212e+06
2.48368e+06
2.48402e+06
2.4849e+06
2.48535e+06
2.48643e+06
2.48693e+06
2.48738e+06
2.48648e+06
2.48564e+06
2.48764e+06
2.49142e+06
2.49644e+06
2.50155e+06
2.50717e+06
2.51238e+06
2.51747e+06
2.5221e+06
2.52625e+06
2.53006e+06
2.53338e+06
2.53647e+06
2.53923e+06
2.54172e+06
2.54408e+06
2.54638e+06
2.54844e+06
2.55102e+06
2.55354e+06
2.55567e+06
2.55934e+06
2.56182e+06
2.56583e+06
2.57057e+06
2.5739e+06
2.57791e+06
2.58468e+06
2.58756e+06
2.5876e+06
2.58684e+06
2.58891e+06
2.59063e+06
2.59538e+06
2.59844e+06
2.60459e+06
2.60826e+06
2.61482e+06
2.61877e+06
2.62555e+06
2.62967e+06
2.6366e+06
2.64082e+06
2.64782e+06
2.65209e+06
2.65912e+06
2.66338e+06
2.67039e+06
2.6746e+06
2.68155e+06
2.68567e+06
2.69253e+06
2.69654e+06
2.70328e+06
2.70715e+06
2.71375e+06
2.71748e+06
2.7239e+06
2.72751e+06
2.73372e+06
2.73725e+06
2.74321e+06
2.74672e+06
2.75242e+06
2.75595e+06
2.76142e+06
2.76499e+06
2.7703e+06
2.77395e+06
2.77895e+06
2.78377e+06
2.79098e+06
2.83754e+06
2.83569e+06
2.83887e+06
2.82139e+06
2.80304e+06
2.78091e+06
2.75524e+06
2.72961e+06
2.69953e+06
2.66727e+06
2.64618e+06
2.61618e+06
2.58337e+06
2.55193e+06
2.52022e+06
2.49777e+06
2.48105e+06
2.47261e+06
2.46752e+06
2.46816e+06
2.46799e+06
2.46839e+06
2.47135e+06
2.47246e+06
2.47631e+06
2.47462e+06
2.47823e+06
2.47664e+06
2.47794e+06
2.48143e+06
2.48633e+06
2.49255e+06
2.49841e+06
2.5053e+06
2.51113e+06
2.51717e+06
2.52253e+06
2.52733e+06
2.53173e+06
2.53578e+06
2.53897e+06
2.54266e+06
2.54494e+06
2.54823e+06
2.5501e+06
2.55318e+06
2.55488e+06
2.55773e+06
2.55931e+06
2.56235e+06
2.56426e+06
2.56781e+06
2.56979e+06
2.57429e+06
2.57686e+06
2.58229e+06
2.58565e+06
2.59188e+06
2.59593e+06
2.60263e+06
2.60699e+06
2.6139e+06
2.61841e+06
2.62545e+06
2.63005e+06
2.6372e+06
2.64188e+06
2.64909e+06
2.65382e+06
2.66107e+06
2.6658e+06
2.67304e+06
2.67772e+06
2.68489e+06
2.68947e+06
2.69654e+06
2.70099e+06
2.70792e+06
2.7122e+06
2.71897e+06
2.72306e+06
2.72964e+06
2.73351e+06
2.73988e+06
2.74351e+06
2.74965e+06
2.75303e+06
2.75892e+06
2.76209e+06
2.76774e+06
2.77077e+06
2.77618e+06
2.7792e+06
2.78437e+06
2.78752e+06
2.7925e+06
2.79581e+06
2.80093e+06
2.80329e+06
2.81398e+06
2.93626e+06
2.92622e+06
2.87115e+06
2.84866e+06
2.80851e+06
2.7904e+06
2.75976e+06
2.73397e+06
2.70388e+06
2.66684e+06
2.63725e+06
2.59317e+06
2.54341e+06
2.49993e+06
2.47607e+06
2.46145e+06
2.45673e+06
2.45599e+06
2.45804e+06
2.4591e+06
2.46181e+06
2.4639e+06
2.46848e+06
2.47069e+06
2.47545e+06
2.4772e+06
2.47731e+06
2.47711e+06
2.48164e+06
2.48852e+06
2.49726e+06
2.50677e+06
2.51575e+06
2.52595e+06
2.53402e+06
2.54267e+06
2.55031e+06
2.55633e+06
2.56361e+06
2.56833e+06
2.57428e+06
2.57933e+06
2.58439e+06
2.58979e+06
2.59548e+06
2.60153e+06
2.60853e+06
2.61277e+06
2.62003e+06
2.62661e+06
2.63363e+06
2.63874e+06
2.64376e+06
2.65351e+06
2.65751e+06
2.6566e+06
2.65678e+06
2.66055e+06
2.66448e+06
2.67169e+06
2.67707e+06
2.68502e+06
2.69076e+06
2.69886e+06
2.70465e+06
2.71273e+06
2.71847e+06
2.72646e+06
2.73209e+06
2.73995e+06
2.74543e+06
2.75313e+06
2.75844e+06
2.76594e+06
2.77105e+06
2.77834e+06
2.78323e+06
2.79032e+06
2.79496e+06
2.80182e+06
2.80619e+06
2.81279e+06
2.81685e+06
2.82313e+06
2.82686e+06
2.83281e+06
2.83618e+06
2.84181e+06
2.84485e+06
2.85019e+06
2.85299e+06
2.85809e+06
2.86078e+06
2.86568e+06
2.86849e+06
2.87318e+06
2.87635e+06
2.88062e+06
2.88548e+06
2.89242e+06
2.83636e+06
2.83142e+06
2.8129e+06
2.78619e+06
2.74909e+06
2.71877e+06
2.67369e+06
2.63263e+06
2.5829e+06
2.54379e+06
2.50307e+06
2.47178e+06
2.45343e+06
2.44527e+06
2.44374e+06
2.4448e+06
2.44786e+06
2.45115e+06
2.45407e+06
2.45753e+06
2.46067e+06
2.46587e+06
2.47333e+06
2.47696e+06
2.47663e+06
2.47972e+06
2.48613e+06
2.4982e+06
2.50943e+06
2.52485e+06
2.53828e+06
2.55429e+06
2.56818e+06
2.58313e+06
2.59544e+06
2.60839e+06
2.61757e+06
2.62783e+06
2.6337e+06
2.64124e+06
2.64527e+06
2.65113e+06
2.65442e+06
2.66003e+06
2.66347e+06
2.66962e+06
2.67374e+06
2.68107e+06
2.68634e+06
2.69441e+06
2.70064e+06
2.70954e+06
2.71654e+06
2.72583e+06
2.73317e+06
2.74275e+06
2.75019e+06
2.75965e+06
2.76689e+06
2.77613e+06
2.78314e+06
2.79218e+06
2.79896e+06
2.80775e+06
2.81429e+06
2.82283e+06
2.82909e+06
2.83736e+06
2.84335e+06
2.85132e+06
2.85703e+06
2.86472e+06
2.87014e+06
2.87756e+06
2.8827e+06
2.88987e+06
2.89475e+06
2.90168e+06
2.90628e+06
2.91294e+06
2.91722e+06
2.92356e+06
2.92749e+06
2.93345e+06
2.93698e+06
2.94254e+06
2.94568e+06
2.95085e+06
2.95367e+06
2.95853e+06
2.9611e+06
2.96581e+06
2.96825e+06
2.97294e+06
2.97545e+06
2.98015e+06
2.98304e+06
2.98747e+06
2.99218e+06
2.99905e+06
2.57925e+06
2.57161e+06
2.55301e+06
2.52905e+06
2.50269e+06
2.47551e+06
2.45308e+06
2.43775e+06
2.42781e+06
2.42253e+06
2.42192e+06
2.42189e+06
2.42474e+06
2.43067e+06
2.43601e+06
2.44157e+06
2.44777e+06
2.45305e+06
2.45961e+06
2.4674e+06
2.47361e+06
2.48035e+06
2.48665e+06
2.49631e+06
2.5077e+06
2.52311e+06
2.53982e+06
2.55886e+06
2.57865e+06
2.59986e+06
2.62057e+06
2.64185e+06
2.66116e+06
2.68019e+06
2.69623e+06
2.71137e+06
2.7233e+06
2.73445e+06
2.74273e+06
2.75136e+06
2.75777e+06
2.76515e+06
2.7706e+06
2.77758e+06
2.78282e+06
2.78983e+06
2.79514e+06
2.80231e+06
2.80779e+06
2.81525e+06
2.82104e+06
2.82884e+06
2.835e+06
2.84314e+06
2.84962e+06
2.85803e+06
2.86471e+06
2.87328e+06
2.88003e+06
2.88864e+06
2.89533e+06
2.90386e+06
2.91038e+06
2.91871e+06
2.92499e+06
2.93304e+06
2.939e+06
2.94671e+06
2.9523e+06
2.95964e+06
2.96484e+06
2.97181e+06
2.97663e+06
2.98324e+06
2.98772e+06
2.99403e+06
2.9982e+06
3.00424e+06
3.00811e+06
3.01383e+06
3.01738e+06
3.02277e+06
3.02595e+06
3.03101e+06
3.03381e+06
3.03857e+06
3.04108e+06
3.04561e+06
3.04793e+06
3.05241e+06
3.05471e+06
3.05932e+06
3.06173e+06
3.06667e+06
3.0693e+06
3.07468e+06
3.07782e+06
3.08348e+06
3.0879e+06
3.09519e+06
2.38203e+06
2.37943e+06
2.37647e+06
2.37497e+06
2.37186e+06
2.37254e+06
2.37544e+06
2.38168e+06
2.38926e+06
2.39687e+06
2.40551e+06
2.41379e+06
2.42289e+06
2.43332e+06
2.44354e+06
2.45673e+06
2.46915e+06
2.48297e+06
2.49644e+06
2.51066e+06
2.52516e+06
2.54073e+06
2.55736e+06
2.57625e+06
2.59597e+06
2.6184e+06
2.64138e+06
2.66607e+06
2.69107e+06
2.71628e+06
2.74032e+06
2.7626e+06
2.78279e+06
2.80003e+06
2.81438e+06
2.82563e+06
2.83419e+06
2.84082e+06
2.84597e+06
2.85129e+06
2.85587e+06
2.86137e+06
2.86629e+06
2.87284e+06
2.87864e+06
2.88625e+06
2.89264e+06
2.90076e+06
2.90719e+06
2.91532e+06
2.9215e+06
2.92939e+06
2.93525e+06
2.94288e+06
2.94853e+06
2.95603e+06
2.96162e+06
2.96911e+06
2.97478e+06
2.98232e+06
2.98811e+06
2.99569e+06
3.00154e+06
3.00904e+06
3.01483e+06
3.0221e+06
3.02772e+06
3.03461e+06
3.03993e+06
3.04636e+06
3.05128e+06
3.05723e+06
3.06169e+06
3.06726e+06
3.07126e+06
3.07657e+06
3.08014e+06
3.08527e+06
3.08842e+06
3.09333e+06
3.09614e+06
3.10077e+06
3.10329e+06
3.10767e+06
3.10995e+06
3.11419e+06
3.11636e+06
3.12063e+06
3.12284e+06
3.1274e+06
3.12981e+06
3.13487e+06
3.13764e+06
3.1434e+06
3.14658e+06
3.15324e+06
3.15681e+06
3.16464e+06
3.16815e+06
3.17868e+06
2.33376e+06
2.33475e+06
2.33774e+06
2.34311e+06
2.34957e+06
2.35819e+06
2.36709e+06
2.37843e+06
2.3902e+06
2.4043e+06
2.42062e+06
2.43717e+06
2.45838e+06
2.47789e+06
2.5026e+06
2.52783e+06
2.55382e+06
2.57799e+06
2.60103e+06
2.62166e+06
2.64195e+06
2.66133e+06
2.68145e+06
2.70216e+06
2.72307e+06
2.74472e+06
2.76639e+06
2.78893e+06
2.8103e+06
2.83086e+06
2.84923e+06
2.86558e+06
2.87957e+06
2.89057e+06
2.89925e+06
2.90497e+06
2.90895e+06
2.91172e+06
2.91343e+06
2.91483e+06
2.9163e+06
2.91916e+06
2.92341e+06
2.92998e+06
2.93764e+06
2.94738e+06
2.95691e+06
2.96806e+06
2.97783e+06
2.98895e+06
2.99792e+06
3.00811e+06
3.01591e+06
3.02501e+06
3.03176e+06
3.04008e+06
3.04617e+06
3.05405e+06
3.05991e+06
3.06767e+06
3.07356e+06
3.08131e+06
3.08729e+06
3.09499e+06
3.10101e+06
3.10854e+06
3.11449e+06
3.12168e+06
3.12739e+06
3.13411e+06
3.13946e+06
3.1457e+06
3.15062e+06
3.15648e+06
3.16097e+06
3.16661e+06
3.17069e+06
3.17621e+06
3.17982e+06
3.18522e+06
3.18838e+06
3.19354e+06
3.19637e+06
3.20124e+06
3.2038e+06
3.20855e+06
3.21098e+06
3.21576e+06
3.21826e+06
3.22338e+06
3.22621e+06
3.23185e+06
3.23516e+06
3.24156e+06
3.24541e+06
3.25283e+06
3.25714e+06
3.26588e+06
3.2705e+06
3.28111e+06
2.34658e+06
2.35525e+06
2.36372e+06
2.3747e+06
2.388e+06
2.40339e+06
2.42162e+06
2.44275e+06
2.46711e+06
2.49372e+06
2.52278e+06
2.55354e+06
2.58337e+06
2.61422e+06
2.64036e+06
2.66185e+06
2.67881e+06
2.69276e+06
2.70371e+06
2.71404e+06
2.72419e+06
2.7353e+06
2.74857e+06
2.76339e+06
2.78001e+06
2.79847e+06
2.81801e+06
2.83839e+06
2.85793e+06
2.87684e+06
2.89359e+06
2.90891e+06
2.92122e+06
2.93015e+06
2.93678e+06
2.94066e+06
2.94329e+06
2.94476e+06
2.94696e+06
2.94883e+06
2.95131e+06
2.95688e+06
2.96353e+06
2.9744e+06
2.98588e+06
3.00095e+06
3.01572e+06
3.03323e+06
3.04942e+06
3.06723e+06
3.08304e+06
3.10008e+06
3.11457e+06
3.1294e+06
3.14163e+06
3.15438e+06
3.16455e+06
3.17567e+06
3.18464e+06
3.19456e+06
3.20256e+06
3.21149e+06
3.21878e+06
3.22698e+06
3.23381e+06
3.24153e+06
3.24816e+06
3.25554e+06
3.26204e+06
3.26905e+06
3.27535e+06
3.28201e+06
3.28813e+06
3.29457e+06
3.30054e+06
3.30691e+06
3.31269e+06
3.31908e+06
3.32449e+06
3.33096e+06
3.33576e+06
3.34228e+06
3.34638e+06
3.35289e+06
3.35643e+06
3.36274e+06
3.36601e+06
3.37222e+06
3.37536e+06
3.38176e+06
3.38507e+06
3.3919e+06
3.39556e+06
3.40316e+06
3.40721e+06
3.41586e+06
3.4204e+06
3.43038e+06
3.4348e+06
3.448e+06
2.38094e+06
2.40255e+06
2.42195e+06
2.4441e+06
2.46439e+06
2.48816e+06
2.51059e+06
2.53682e+06
2.56107e+06
2.58784e+06
2.61229e+06
2.63664e+06
2.65822e+06
2.67703e+06
2.69223e+06
2.70422e+06
2.71242e+06
2.71938e+06
2.72397e+06
2.73018e+06
2.73632e+06
2.74584e+06
2.75739e+06
2.77204e+06
2.78799e+06
2.8068e+06
2.82601e+06
2.84594e+06
2.86457e+06
2.88352e+06
2.8998e+06
2.91499e+06
2.9264e+06
2.9347e+06
2.9388e+06
2.94064e+06
2.94181e+06
2.94372e+06
2.94592e+06
2.95152e+06
2.95625e+06
2.96628e+06
2.97589e+06
2.99107e+06
3.00498e+06
3.02477e+06
3.04216e+06
3.06511e+06
3.08472e+06
3.10902e+06
3.12876e+06
3.15229e+06
3.17113e+06
3.19353e+06
3.21077e+06
3.23149e+06
3.24703e+06
3.26585e+06
3.27984e+06
3.297e+06
3.30987e+06
3.32519e+06
3.33632e+06
3.34965e+06
3.35951e+06
3.37143e+06
3.38036e+06
3.39095e+06
3.39904e+06
3.40851e+06
3.4158e+06
3.42419e+06
3.43081e+06
3.4383e+06
3.44455e+06
3.45158e+06
3.45778e+06
3.46481e+06
3.47107e+06
3.4784e+06
3.48455e+06
3.49235e+06
3.49822e+06
3.50664e+06
3.51202e+06
3.52103e+06
3.52591e+06
3.53531e+06
3.54016e+06
3.54965e+06
3.55468e+06
3.56466e+06
3.56994e+06
3.58059e+06
3.58623e+06
3.59773e+06
3.60391e+06
3.61612e+06
3.6231e+06
3.63635e+06
2.29094e+06
2.32401e+06
2.35058e+06
2.38075e+06
2.40482e+06
2.43515e+06
2.45968e+06
2.49137e+06
2.51581e+06
2.54619e+06
2.56758e+06
2.59159e+06
2.60582e+06
2.61976e+06
2.62566e+06
2.631e+06
2.63249e+06
2.63538e+06
2.63782e+06
2.64404e+06
2.64976e+06
2.66445e+06
2.67666e+06
2.69639e+06
2.71459e+06
2.73766e+06
2.75808e+06
2.78155e+06
2.80193e+06
2.82378e+06
2.84089e+06
2.85804e+06
2.86942e+06
2.88087e+06
2.88666e+06
2.89343e+06
2.89742e+06
2.9038e+06
2.9088e+06
2.91871e+06
2.92772e+06
2.94178e+06
2.95502e+06
2.97284e+06
2.98919e+06
3.0106e+06
3.02988e+06
3.05435e+06
3.07591e+06
3.10242e+06
3.12548e+06
3.15306e+06
3.17574e+06
3.2031e+06
3.2249e+06
3.251e+06
3.27102e+06
3.29534e+06
3.31321e+06
3.33538e+06
3.35128e+06
3.37175e+06
3.38615e+06
3.40526e+06
3.41842e+06
3.43626e+06
3.44865e+06
3.4654e+06
3.4773e+06
3.49306e+06
3.50447e+06
3.51917e+06
3.52993e+06
3.54342e+06
3.55336e+06
3.56558e+06
3.57466e+06
3.58572e+06
3.59384e+06
3.60424e+06
3.61156e+06
3.62205e+06
3.62906e+06
3.64032e+06
3.64718e+06
3.65946e+06
3.66623e+06
3.67962e+06
3.68648e+06
3.70077e+06
3.70812e+06
3.72284e+06
3.7305e+06
3.74614e+06
3.75406e+06
3.77031e+06
3.77866e+06
3.79534e+06
3.80429e+06
3.8217e+06
2.1993e+06
2.23245e+06
2.2596e+06
2.29131e+06
2.31639e+06
2.34662e+06
2.3704e+06
2.39963e+06
2.42198e+06
2.44926e+06
2.46867e+06
2.49207e+06
2.50679e+06
2.52535e+06
2.53559e+06
2.55034e+06
2.55881e+06
2.57284e+06
2.58233e+06
2.59839e+06
2.61117e+06
2.63105e+06
2.64856e+06
2.67219e+06
2.69338e+06
2.71981e+06
2.74241e+06
2.76955e+06
2.79124e+06
2.81527e+06
2.83226e+06
2.85016e+06
2.86081e+06
2.87279e+06
2.87893e+06
2.88785e+06
2.89339e+06
2.90253e+06
2.90966e+06
2.92128e+06
2.93105e+06
2.946e+06
2.95927e+06
2.97695e+06
2.99321e+06
3.01379e+06
3.03262e+06
3.05609e+06
3.07693e+06
3.10282e+06
3.12526e+06
3.15222e+06
3.17413e+06
3.20091e+06
3.22181e+06
3.24772e+06
3.2671e+06
3.29163e+06
3.30914e+06
3.33229e+06
3.34817e+06
3.37004e+06
3.38454e+06
3.40557e+06
3.4191e+06
3.4396e+06
3.45277e+06
3.47269e+06
3.48582e+06
3.50516e+06
3.51832e+06
3.53706e+06
3.55022e+06
3.56851e+06
3.5816e+06
3.59937e+06
3.61207e+06
3.62905e+06
3.64073e+06
3.65667e+06
3.66705e+06
3.68242e+06
3.69182e+06
3.70704e+06
3.7157e+06
3.73152e+06
3.74009e+06
3.7573e+06
3.76628e+06
3.78515e+06
3.79473e+06
3.81497e+06
3.82528e+06
3.84641e+06
3.85725e+06
3.87903e+06
3.89019e+06
3.91231e+06
3.92408e+06
3.94662e+06
2.1593e+06
2.19212e+06
2.21839e+06
2.2499e+06
2.27399e+06
2.30383e+06
2.32679e+06
2.3557e+06
2.37837e+06
2.40633e+06
2.4277e+06
2.45343e+06
2.47164e+06
2.49366e+06
2.508e+06
2.52681e+06
2.53898e+06
2.55665e+06
2.56927e+06
2.58859e+06
2.60398e+06
2.62597e+06
2.64461e+06
2.66935e+06
2.691e+06
2.7173e+06
2.74099e+06
2.76843e+06
2.78994e+06
2.81303e+06
2.8288e+06
2.8464e+06
2.85659e+06
2.86899e+06
2.8757e+06
2.88611e+06
2.89174e+06
2.90256e+06
2.90844e+06
2.92019e+06
2.92839e+06
2.94344e+06
2.95515e+06
2.97245e+06
2.98712e+06
3.00644e+06
3.0236e+06
3.04506e+06
3.06427e+06
3.08761e+06
3.10792e+06
3.13272e+06
3.15324e+06
3.17889e+06
3.19863e+06
3.22434e+06
3.24231e+06
3.26734e+06
3.28313e+06
3.307e+06
3.32066e+06
3.34334e+06
3.35531e+06
3.37701e+06
3.38797e+06
3.40899e+06
3.4196e+06
3.44039e+06
3.45103e+06
3.47204e+06
3.48295e+06
3.50409e+06
3.51524e+06
3.53617e+06
3.54734e+06
3.56781e+06
3.57887e+06
3.59892e+06
3.60986e+06
3.62973e+06
3.64055e+06
3.66064e+06
3.67131e+06
3.69185e+06
3.70248e+06
3.72369e+06
3.73453e+06
3.75651e+06
3.76773e+06
3.79011e+06
3.80168e+06
3.82499e+06
3.83697e+06
3.86157e+06
3.87414e+06
3.90005e+06
3.91356e+06
3.94003e+06
3.95519e+06
3.98322e+06
2.14441e+06
2.17732e+06
2.20265e+06
2.23448e+06
2.25845e+06
2.28852e+06
2.31136e+06
2.34044e+06
2.36331e+06
2.3919e+06
2.4141e+06
2.44063e+06
2.46006e+06
2.48273e+06
2.49855e+06
2.51838e+06
2.5319e+06
2.55114e+06
2.56509e+06
2.58616e+06
2.60301e+06
2.62613e+06
2.64528e+06
2.67063e+06
2.69231e+06
2.71908e+06
2.74224e+06
2.76801e+06
2.7874e+06
2.80817e+06
2.8228e+06
2.8385e+06
2.84847e+06
2.85893e+06
2.86536e+06
2.8732e+06
2.87805e+06
2.88502e+06
2.89044e+06
2.89878e+06
2.90486e+06
2.9169e+06
2.92469e+06
2.94102e+06
2.95197e+06
2.97091e+06
2.98486e+06
3.00645e+06
3.02301e+06
3.04679e+06
3.06518e+06
3.09028e+06
3.1092e+06
3.13467e+06
3.15291e+06
3.17798e+06
3.19474e+06
3.21902e+06
3.23389e+06
3.25714e+06
3.27018e+06
3.2924e+06
3.30405e+06
3.32541e+06
3.33623e+06
3.35699e+06
3.36745e+06
3.38796e+06
3.39844e+06
3.41892e+06
3.42979e+06
3.45043e+06
3.46188e+06
3.48272e+06
3.49471e+06
3.51561e+06
3.52795e+06
3.54868e+06
3.56115e+06
3.58159e+06
3.59403e+06
3.61427e+06
3.62665e+06
3.64684e+06
3.65919e+06
3.67955e+06
3.69181e+06
3.71264e+06
3.72477e+06
3.74636e+06
3.75844e+06
3.78107e+06
3.79327e+06
3.81703e+06
3.82954e+06
3.85449e+06
3.86734e+06
3.89344e+06
3.90468e+06
3.94081e+06
2.13813e+06
2.1718e+06
2.19659e+06
2.22861e+06
2.25317e+06
2.28428e+06
2.30755e+06
2.337e+06
2.35939e+06
2.38772e+06
2.40925e+06
2.43527e+06
2.45457e+06
2.47674e+06
2.49308e+06
2.5124e+06
2.5269e+06
2.54564e+06
2.56016e+06
2.58046e+06
2.59674e+06
2.61942e+06
2.63826e+06
2.66263e+06
2.68299e+06
2.7071e+06
2.72644e+06
2.74851e+06
2.76492e+06
2.78327e+06
2.79558e+06
2.80976e+06
2.81774e+06
2.82816e+06
2.83324e+06
2.84131e+06
2.84567e+06
2.85467e+06
2.86029e+06
2.87162e+06
2.87894e+06
2.89448e+06
2.90459e+06
2.92229e+06
2.93453e+06
2.95404e+06
2.96795e+06
2.98933e+06
3.00481e+06
3.02807e+06
3.04444e+06
3.06877e+06
3.08509e+06
3.10969e+06
3.12546e+06
3.14991e+06
3.1649e+06
3.18882e+06
3.20271e+06
3.2258e+06
3.23845e+06
3.26066e+06
3.27227e+06
3.29383e+06
3.3049e+06
3.32605e+06
3.33695e+06
3.35792e+06
3.3689e+06
3.38995e+06
3.40115e+06
3.42251e+06
3.43399e+06
3.45572e+06
3.46757e+06
3.48952e+06
3.50172e+06
3.52356e+06
3.53593e+06
3.55736e+06
3.56966e+06
3.59066e+06
3.60272e+06
3.62342e+06
3.63509e+06
3.65572e+06
3.66703e+06
3.68779e+06
3.69885e+06
3.71983e+06
3.73077e+06
3.75214e+06
3.7631e+06
3.78495e+06
3.79623e+06
3.81851e+06
3.83048e+06
3.85263e+06
3.86805e+06
3.89393e+06
2.12416e+06
2.15894e+06
2.18283e+06
2.21451e+06
2.23834e+06
2.27001e+06
2.2937e+06
2.32324e+06
2.34494e+06
2.37205e+06
2.39172e+06
2.41648e+06
2.43378e+06
2.45582e+06
2.47066e+06
2.49042e+06
2.50367e+06
2.52288e+06
2.5362e+06
2.55701e+06
2.57159e+06
2.5945e+06
2.61045e+06
2.63469e+06
2.6515e+06
2.67535e+06
2.69158e+06
2.71362e+06
2.72738e+06
2.7462e+06
2.75666e+06
2.77215e+06
2.78002e+06
2.79418e+06
2.80138e+06
2.81487e+06
2.82241e+06
2.83614e+06
2.8443e+06
2.85931e+06
2.86954e+06
2.88671e+06
2.89861e+06
2.91732e+06
2.93085e+06
2.95083e+06
2.96543e+06
2.98666e+06
3.00224e+06
3.02484e+06
3.04071e+06
3.06411e+06
3.0795e+06
3.10302e+06
3.11763e+06
3.14102e+06
3.15496e+06
3.17798e+06
3.19122e+06
3.21376e+06
3.22621e+06
3.24816e+06
3.2599e+06
3.28145e+06
3.29275e+06
3.31409e+06
3.32521e+06
3.34652e+06
3.35772e+06
3.37917e+06
3.39059e+06
3.41231e+06
3.42399e+06
3.446e+06
3.45787e+06
3.47997e+06
3.49182e+06
3.51378e+06
3.52542e+06
3.54689e+06
3.5582e+06
3.57931e+06
3.59032e+06
3.61108e+06
3.62183e+06
3.6425e+06
3.65304e+06
3.67359e+06
3.68405e+06
3.70455e+06
3.71493e+06
3.73536e+06
3.74571e+06
3.76617e+06
3.77676e+06
3.79738e+06
3.80854e+06
3.83003e+06
3.83923e+06
3.87418e+06
2.1058e+06
2.13776e+06
2.16188e+06
2.19189e+06
2.21427e+06
2.24474e+06
2.26717e+06
2.29672e+06
2.31728e+06
2.34413e+06
2.36283e+06
2.3875e+06
2.40449e+06
2.42715e+06
2.4419e+06
2.46271e+06
2.47569e+06
2.49561e+06
2.5084e+06
2.52898e+06
2.54295e+06
2.56535e+06
2.58096e+06
2.60492e+06
2.62117e+06
2.64522e+06
2.66103e+06
2.68353e+06
2.69767e+06
2.71794e+06
2.73025e+06
2.74836e+06
2.75925e+06
2.77614e+06
2.78583e+06
2.80169e+06
2.81162e+06
2.82638e+06
2.83702e+06
2.85257e+06
2.86487e+06
2.88181e+06
2.89509e+06
2.91341e+06
2.92767e+06
2.94721e+06
2.96215e+06
2.98263e+06
2.99792e+06
3.01913e+06
3.03448e+06
3.05609e+06
3.07082e+06
3.09236e+06
3.10608e+06
3.12736e+06
3.14025e+06
3.16123e+06
3.17352e+06
3.19409e+06
3.2059e+06
3.22609e+06
3.23758e+06
3.25763e+06
3.269e+06
3.28921e+06
3.30064e+06
3.32113e+06
3.33274e+06
3.35368e+06
3.36552e+06
3.38701e+06
3.39919e+06
3.42134e+06
3.4338e+06
3.4563e+06
3.469e+06
3.49165e+06
3.50454e+06
3.52703e+06
3.53969e+06
3.56158e+06
3.57355e+06
3.59477e+06
3.60605e+06
3.6265e+06
3.63715e+06
3.65708e+06
3.66713e+06
3.68656e+06
3.69634e+06
3.71554e+06
3.72537e+06
3.74429e+06
3.75445e+06
3.77312e+06
3.7839e+06
3.80158e+06
3.81665e+06
3.84012e+06
2.093e+06
2.12326e+06
2.1467e+06
2.17527e+06
2.19686e+06
2.2256e+06
2.24739e+06
2.27618e+06
2.29629e+06
2.32305e+06
2.34105e+06
2.36607e+06
2.38283e+06
2.40627e+06
2.42159e+06
2.4435e+06
2.45746e+06
2.47861e+06
2.49235e+06
2.51386e+06
2.5286e+06
2.55129e+06
2.56734e+06
2.59071e+06
2.60729e+06
2.63007e+06
2.64559e+06
2.66685e+06
2.68019e+06
2.69954e+06
2.71132e+06
2.72927e+06
2.74036e+06
2.75777e+06
2.76808e+06
2.78524e+06
2.79545e+06
2.81173e+06
2.82228e+06
2.83913e+06
2.85103e+06
2.86853e+06
2.88112e+06
2.89924e+06
2.9126e+06
2.93119e+06
2.94494e+06
2.96393e+06
2.97755e+06
2.99663e+06
3.00973e+06
3.02883e+06
3.04119e+06
3.05997e+06
3.07117e+06
3.08942e+06
3.09959e+06
3.1177e+06
3.1274e+06
3.14587e+06
3.15571e+06
3.17475e+06
3.18512e+06
3.20485e+06
3.21577e+06
3.23618e+06
3.2478e+06
3.26882e+06
3.28097e+06
3.30233e+06
3.31489e+06
3.33664e+06
3.34953e+06
3.37165e+06
3.38478e+06
3.40703e+06
3.4203e+06
3.44245e+06
3.45556e+06
3.47747e+06
3.49005e+06
3.51154e+06
3.52347e+06
3.54438e+06
3.5556e+06
3.57575e+06
3.58633e+06
3.60591e+06
3.61591e+06
3.63494e+06
3.64452e+06
3.66322e+06
3.67272e+06
3.6912e+06
3.70079e+06
3.71921e+06
3.72912e+06
3.74836e+06
3.75655e+06
3.78947e+06
2.08509e+06
2.1142e+06
2.13664e+06
2.16437e+06
2.18517e+06
2.21296e+06
2.23354e+06
2.26177e+06
2.28189e+06
2.30913e+06
2.327e+06
2.35244e+06
2.36869e+06
2.39244e+06
2.40759e+06
2.42976e+06
2.44413e+06
2.46534e+06
2.47933e+06
2.50045e+06
2.5147e+06
2.53638e+06
2.55123e+06
2.57329e+06
2.58801e+06
2.60946e+06
2.62312e+06
2.64358e+06
2.65626e+06
2.67634e+06
2.6886e+06
2.70764e+06
2.71944e+06
2.73756e+06
2.74816e+06
2.76586e+06
2.77558e+06
2.79308e+06
2.80252e+06
2.82024e+06
2.83022e+06
2.84795e+06
2.85855e+06
2.87677e+06
2.88805e+06
2.90657e+06
2.91821e+06
2.93671e+06
2.94806e+06
2.96644e+06
2.9774e+06
2.99563e+06
3.00604e+06
3.02402e+06
3.03379e+06
3.05151e+06
3.06071e+06
3.07847e+06
3.08752e+06
3.10554e+06
3.11481e+06
3.13336e+06
3.14292e+06
3.16243e+06
3.17247e+06
3.19292e+06
3.20359e+06
3.22465e+06
3.23596e+06
3.25753e+06
3.2691e+06
3.291e+06
3.30285e+06
3.32481e+06
3.33673e+06
3.35853e+06
3.37054e+06
3.39209e+06
3.40379e+06
3.42515e+06
3.43649e+06
3.45752e+06
3.46838e+06
3.48914e+06
3.49969e+06
3.52008e+06
3.53042e+06
3.5507e+06
3.56085e+06
3.5811e+06
3.59127e+06
3.61161e+06
3.62192e+06
3.64244e+06
3.65295e+06
3.67377e+06
3.68486e+06
3.70557e+06
3.71961e+06
3.74343e+06
2.081e+06
2.1089e+06
2.12993e+06
2.15793e+06
2.17746e+06
2.20467e+06
2.2235e+06
2.2512e+06
2.27018e+06
2.29755e+06
2.31551e+06
2.34144e+06
2.35786e+06
2.38172e+06
2.39659e+06
2.41878e+06
2.43274e+06
2.4538e+06
2.46731e+06
2.48781e+06
2.5015e+06
2.52228e+06
2.53656e+06
2.55799e+06
2.57266e+06
2.59449e+06
2.60899e+06
2.63092e+06
2.64464e+06
2.66598e+06
2.6788e+06
2.69875e+06
2.71069e+06
2.72926e+06
2.73959e+06
2.75704e+06
2.76593e+06
2.78221e+06
2.79036e+06
2.80691e+06
2.81536e+06
2.83217e+06
2.8416e+06
2.85959e+06
2.87027e+06
2.88929e+06
2.90074e+06
2.92021e+06
2.93176e+06
2.95096e+06
2.96197e+06
2.98051e+06
2.99071e+06
3.00869e+06
3.01847e+06
3.03656e+06
3.04613e+06
3.06436e+06
3.07365e+06
3.09192e+06
3.10127e+06
3.1199e+06
3.12938e+06
3.14878e+06
3.1587e+06
3.17876e+06
3.18903e+06
3.20967e+06
3.22014e+06
3.24106e+06
3.25174e+06
3.2728e+06
3.28349e+06
3.3046e+06
3.31524e+06
3.33613e+06
3.34654e+06
3.36722e+06
3.37754e+06
3.3982e+06
3.40858e+06
3.42925e+06
3.43967e+06
3.46045e+06
3.47091e+06
3.49183e+06
3.50232e+06
3.52344e+06
3.53409e+06
3.55559e+06
3.56654e+06
3.58843e+06
3.59957e+06
3.62209e+06
3.63345e+06
3.65653e+06
3.66836e+06
3.69238e+06
3.70292e+06
3.7355e+06
2.07803e+06
2.10565e+06
2.1251e+06
2.15346e+06
2.17258e+06
2.20004e+06
2.21758e+06
2.24418e+06
2.26179e+06
2.28829e+06
2.30559e+06
2.33122e+06
2.34664e+06
2.36975e+06
2.38336e+06
2.40517e+06
2.41855e+06
2.44007e+06
2.45378e+06
2.4753e+06
2.4895e+06
2.51131e+06
2.52614e+06
2.54835e+06
2.56345e+06
2.58566e+06
2.60037e+06
2.62228e+06
2.63605e+06
2.65738e+06
2.66992e+06
2.68968e+06
2.70094e+06
2.71869e+06
2.72806e+06
2.74381e+06
2.75181e+06
2.76671e+06
2.77441e+06
2.78991e+06
2.79812e+06
2.81445e+06
2.82361e+06
2.84193e+06
2.85251e+06
2.87187e+06
2.88332e+06
2.90312e+06
2.9149e+06
2.93472e+06
2.94652e+06
2.96639e+06
2.97815e+06
2.99807e+06
3.00962e+06
3.02945e+06
3.04031e+06
3.05964e+06
3.06951e+06
3.08845e+06
3.0981e+06
3.11718e+06
3.12695e+06
3.14663e+06
3.15696e+06
3.17721e+06
3.18801e+06
3.2087e+06
3.2198e+06
3.24065e+06
3.25184e+06
3.27273e+06
3.28366e+06
3.30445e+06
3.31496e+06
3.33501e+06
3.34495e+06
3.36475e+06
3.37473e+06
3.39464e+06
3.40467e+06
3.42477e+06
3.43493e+06
3.45527e+06
3.4655e+06
3.48607e+06
3.49663e+06
3.5178e+06
3.5287e+06
3.55045e+06
3.56181e+06
3.58426e+06
3.5961e+06
3.61971e+06
3.63195e+06
3.65652e+06
3.66915e+06
3.69467e+06
3.70598e+06
3.73934e+06
2.0756e+06
2.1041e+06
2.12126e+06
2.14908e+06
2.1668e+06
2.19399e+06
2.20978e+06
2.23613e+06
2.25097e+06
2.27617e+06
2.29198e+06
2.31744e+06
2.33334e+06
2.35831e+06
2.37323e+06
2.39605e+06
2.40946e+06
2.43146e+06
2.44454e+06
2.46656e+06
2.47957e+06
2.50127e+06
2.51427e+06
2.53593e+06
2.54905e+06
2.57048e+06
2.58352e+06
2.60454e+06
2.61712e+06
2.63792e+06
2.64941e+06
2.66942e+06
2.67994e+06
2.69856e+06
2.70836e+06
2.72651e+06
2.73566e+06
2.75323e+06
2.7623e+06
2.77987e+06
2.78874e+06
2.80618e+06
2.81544e+06
2.83382e+06
2.84383e+06
2.86314e+06
2.87446e+06
2.89461e+06
2.90665e+06
2.92735e+06
2.93973e+06
2.96092e+06
2.9732e+06
2.99481e+06
3.00699e+06
3.02843e+06
3.03998e+06
3.06088e+06
3.07179e+06
3.09234e+06
3.10297e+06
3.12357e+06
3.13445e+06
3.1553e+06
3.16651e+06
3.1877e+06
3.19923e+06
3.22076e+06
3.23252e+06
3.25424e+06
3.26597e+06
3.28742e+06
3.2988e+06
3.31982e+06
3.33082e+06
3.3515e+06
3.36222e+06
3.38273e+06
3.39329e+06
3.41356e+06
3.42414e+06
3.44434e+06
3.45447e+06
3.4746e+06
3.4848e+06
3.50515e+06
3.51562e+06
3.5368e+06
3.54763e+06
3.56936e+06
3.58064e+06
3.60313e+06
3.61489e+06
3.63827e+06
3.65065e+06
3.67533e+06
3.68846e+06
3.71422e+06
3.72932e+06
3.75715e+06
2.07466e+06
2.10217e+06
2.11849e+06
2.14529e+06
2.16206e+06
2.18872e+06
2.20486e+06
2.22982e+06
2.2441e+06
2.26812e+06
2.28259e+06
2.308e+06
2.32369e+06
2.34912e+06
2.36347e+06
2.38712e+06
2.3996e+06
2.42205e+06
2.43428e+06
2.45613e+06
2.46806e+06
2.48957e+06
2.50192e+06
2.52395e+06
2.53647e+06
2.55863e+06
2.57087e+06
2.5924e+06
2.60438e+06
2.62562e+06
2.63705e+06
2.65792e+06
2.66924e+06
2.68952e+06
2.70053e+06
2.72021e+06
2.73056e+06
2.7497e+06
2.75971e+06
2.77792e+06
2.78707e+06
2.80531e+06
2.81487e+06
2.83383e+06
2.84386e+06
2.86372e+06
2.87454e+06
2.8958e+06
2.90761e+06
2.9296e+06
2.94203e+06
2.96442e+06
2.97727e+06
3.00028e+06
3.01342e+06
3.03691e+06
3.04978e+06
3.0732e+06
3.08566e+06
3.10894e+06
3.12138e+06
3.14486e+06
3.15746e+06
3.1811e+06