/*--------------------------------*- C++ -*----------------------------------*\
  =========                 |
  \\      /  F ield         | OpenFOAM: The Open Source CFD Toolbox
   \\    /   O peration     | Website:  https://openfoam.org
    \\  /    A nd           | Version:  8
     \\/     M anipulation  |
\*---------------------------------------------------------------------------*/
FoamFile
{
    version     2.0;
    format      ascii;
    class       volScalarField;
    location    "1.500023";
    object      nut;
}
// * * * * * * * * * * * * * * * * * * * * * * * * * * * * * * * * * * * * * //

dimensions      [0 2 -1 0 0 0 0];

internalField   nonuniform List<scalar> 
6800
(
0.0560984
0.175255
0.17808
0.165819
0.138307
0.0991343
0.0860288
0.0753419
0.0597694
0.0635135
0.0537136
0.142315
0.128167
0.0879673
0.0894492
0.0911991
0.0841192
0.0734107
0.061007
0.0358135
0.0502678
0.0886698
0.0819046
0.0888475
0.0981129
0.103938
0.0832519
0.0489532
0.0273014
0.0202247
0.0438399
0.0747061
0.0799816
0.0998474
0.110963
0.0754708
0.0379637
0.0248213
0.0196971
0.0180139
0.0498806
0.0747702
0.0857137
0.115543
0.0924861
0.0457666
0.0276988
0.021826
0.0192804
0.0179863
0.047565
0.0717188
0.102774
0.135159
0.0633118
0.0342956
0.0244672
0.0215226
0.0189099
0.017296
0.0536822
0.0818304
0.131035
0.0919383
0.0408535
0.0236875
0.0209202
0.0187358
0.0165012
0.0157152
0.0523864
0.0963971
0.140669
0.070597
0.0322058
0.0258042
0.0228383
0.0195594
0.0169758
0.0160175
0.0537127
0.11508
0.133512
0.0490472
0.0291901
0.0237443
0.0189572
0.016521
0.01523
0.0148378
0.0542379
0.137347
0.117872
0.0468071
0.0263523
0.022876
0.0204158
0.0175211
0.0156865
0.0152132
0.0528877
0.449021
0.744358
0.891525
0.96663
1.00257
1.02249
1.03853
1.0549
1.07262
0.0523708
0.439845
0.728029
0.86987
0.94188
0.972519
0.987374
0.997776
1.00781
1.01938
0.0514841
0.421044
0.693346
0.828147
0.890949
0.912881
0.917743
0.916817
0.915624
0.918494
0.0501601
0.394542
0.644741
0.767965
0.816575
0.825306
0.815617
0.798563
0.780855
0.770424
0.0483897
0.362092
0.584556
0.688972
0.72038
0.712945
0.686613
0.65062
0.612446
0.575008
0.0464153
0.331187
0.520119
0.596816
0.601881
0.571447
0.530023
0.486917
0.452678
0.384625
0.0450179
0.309746
0.454947
0.481275
0.452523
0.405634
0.371052
0.337147
0.317619
0.302884
0.0432643
0.304853
0.365055
0.351921
0.313599
0.278547
0.262011
0.270879
0.265319
0.215217
0.0451043
0.251716
0.275508
0.257348
0.225108
0.234559
0.227061
0.200324
0.167599
0.092819
0.0425221
0.229958
0.213362
0.193271
0.196635
0.176839
0.133689
0.098887
0.0755016
0.0596127
1.09959
1.13598
1.17048
1.20368
1.23541
1.26539
1.29337
1.31922
1.3429
1.3645
1.3839
1.40091
1.41529
1.42687
1.43586
1.4424
1.44655
1.44832
1.44789
1.44541
1.44113
1.43522
1.4279
1.41939
1.41
1.40009
1.38997
1.37994
1.37016
1.36081
1.35209
1.34421
1.33674
1.32948
1.32233
1.31547
1.30898
1.30287
1.2971
1.29161
1.28633
1.28117
1.27607
1.27094
1.26572
1.26036
1.25484
1.24912
1.24319
1.23706
1.23073
1.22421
1.21754
1.21074
1.20385
1.19691
1.18996
1.18303
1.17618
1.16943
1.16283
1.1564
1.15019
1.1442
1.13846
1.13299
1.12777
1.12282
1.11812
1.11367
1.10944
1.10542
1.10158
1.09791
1.09437
1.09095
1.08761
1.08434
1.08111
1.0779
1.07471
1.07152
1.06832
1.06511
1.06188
1.05864
1.05537
1.0521
1.0488
1.04552
1.04217
1.03893
1.03552
1.0324
1.02884
1.026
1.02218
1.01967
1.01586
1.01305
1.04151
1.0781
1.11193
1.14491
1.17677
1.20708
1.2355
1.26182
1.28595
1.30811
1.3281
1.34577
1.3608
1.37279
1.38189
1.38837
1.39242
1.39388
1.39323
1.39064
1.38643
1.38082
1.37393
1.36592
1.35717
1.34804
1.33887
1.32996
1.32138
1.31333
1.30577
1.29864
1.29163
1.28486
1.27836
1.2722
1.26642
1.26102
1.25595
1.25116
1.24657
1.24212
1.23772
1.2333
1.22879
1.22416
1.21937
1.21438
1.20918
1.20375
1.19812
1.1923
1.1863
1.18018
1.17394
1.16764
1.16131
1.15499
1.14873
1.14257
1.13655
1.13069
1.12503
1.11959
1.11438
1.10943
1.10473
1.10027
1.09606
1.09207
1.08829
1.08471
1.08129
1.07802
1.07486
1.0718
1.06881
1.06587
1.06295
1.06005
1.05714
1.05422
1.05129
1.04833
1.04535
1.04234
1.0393
1.03626
1.03317
1.03011
1.02698
1.02396
1.02075
1.01785
1.0145
1.01186
1.00825
1.00592
1.00235
0.999782
0.940183
0.981407
1.0184
1.05432
1.08897
1.12201
1.15306
1.18194
1.20864
1.23285
1.25462
1.27391
1.29057
1.30341
1.31267
1.31892
1.32261
1.32328
1.3219
1.31827
1.31341
1.30735
1.30005
1.29162
1.28264
1.27356
1.26477
1.25665
1.24897
1.24137
1.23407
1.22713
1.22054
1.21429
1.20842
1.20297
1.19793
1.19332
1.18904
1.18501
1.18118
1.17749
1.17385
1.17019
1.16647
1.16262
1.15862
1.15446
1.15012
1.14561
1.14093
1.13608
1.1311
1.12599
1.12078
1.11548
1.11016
1.10483
1.09955
1.09435
1.08927
1.08434
1.0796
1.07506
1.07073
1.06664
1.06277
1.05913
1.0557
1.05248
1.04944
1.04656
1.04383
1.04121
1.03869
1.03623
1.03382
1.03143
1.02904
1.02664
1.02422
1.02177
1.01928
1.01676
1.0142
1.01161
1.00898
1.00634
1.00364
1.00098
0.998225
0.99559
0.992754
0.990237
0.987247
0.984976
0.981766
0.979736
0.976617
0.974481
0.803512
0.856225
0.901594
0.944112
0.984387
1.02225
1.05753
1.09013
1.11996
1.1464
1.17001
1.1906
1.20756
1.21951
1.22697
1.23137
1.23237
1.23031
1.22499
1.2176
1.20975
1.20114
1.19216
1.1845
1.17705
1.16955
1.16214
1.15499
1.14811
1.14143
1.13495
1.12875
1.12288
1.11743
1.11246
1.10805
1.10421
1.1009
1.09801
1.0954
1.09295
1.09057
1.08817
1.08569
1.08308
1.08032
1.07738
1.07426
1.07096
1.0675
1.06389
1.06013
1.05626
1.05229
1.04825
1.04418
1.0401
1.03603
1.032
1.02804
1.02419
1.02047
1.01691
1.01353
1.01034
1.00736
1.00457
1.00197
0.999552
0.997308
0.99522
0.993267
0.991425
0.989667
0.987967
0.986298
0.984636
0.982965
0.98127
0.979538
0.977757
0.975924
0.974034
0.972092
0.970094
0.968058
0.965967
0.963863
0.961695
0.959562
0.957321
0.955215
0.952878
0.950884
0.948394
0.946616
0.943952
0.942318
0.93983
0.938276
0.631045
0.699719
0.756307
0.805705
0.849905
0.889384
0.925039
0.957292
0.987225
1.01438
1.0388
1.06036
1.07903
1.09407
1.10492
1.11443
1.12029
1.12164
1.12033
1.11681
1.10995
1.10082
1.09083
1.08079
1.07112
1.06215
1.05385
1.04622
1.03906
1.03232
1.02585
1.01973
1.01399
1.00877
1.00411
1.00014
0.996832
0.994169
0.991999
0.990049
0.988221
0.986478
0.984729
0.982943
0.981118
0.979245
0.977315
0.975325
0.973268
0.971141
0.968938
0.966654
0.9643
0.961872
0.959376
0.956839
0.954281
0.951725
0.949193
0.94671
0.944302
0.941999
0.939825
0.937799
0.935934
0.934227
0.932675
0.931273
0.930016
0.928898
0.927903
0.92701
0.926193
0.925421
0.924664
0.923895
0.923092
0.922231
0.921298
0.92029
0.919205
0.918047
0.916814
0.915519
0.914155
0.912751
0.911281
0.909804
0.908247
0.90674
0.905101
0.903622
0.901879
0.900507
0.898618
0.897427
0.895417
0.894287
0.892463
0.891709
0.446506
0.518079
0.579475
0.633469
0.681522
0.726659
0.769183
0.80861
0.844073
0.875567
0.900144
0.920052
0.936076
0.948248
0.95754
0.961841
0.96052
0.955048
0.946427
0.935743
0.92416
0.912973
0.902523
0.893337
0.885272
0.878601
0.872815
0.867789
0.862912
0.858253
0.853401
0.848737
0.844233
0.840398
0.837116
0.834863
0.833423
0.832898
0.83321
0.83378
0.834423
0.835155
0.835848
0.836506
0.837159
0.837814
0.838459
0.839071
0.839649
0.840168
0.840588
0.840891
0.841071
0.841103
0.840971
0.840726
0.840391
0.840011
0.839607
0.839192
0.838791
0.838442
0.838174
0.83801
0.837967
0.838027
0.838179
0.838431
0.838788
0.839251
0.839803
0.84042
0.841063
0.841695
0.84228
0.842787
0.843199
0.843501
0.843688
0.843759
0.843716
0.843571
0.843324
0.842995
0.842572
0.842098
0.841534
0.84096
0.840279
0.839656
0.838865
0.838254
0.83734
0.836815
0.83575
0.835368
0.834183
0.833892
0.832509
0.833276
0.335334
0.377095
0.420209
0.463921
0.505176
0.544547
0.581163
0.613762
0.642851
0.666801
0.683724
0.699118
0.713912
0.726221
0.731281
0.731053
0.725837
0.716522
0.704488
0.691234
0.678143
0.666534
0.656643
0.649363
0.643614
0.640226
0.637608
0.635679
0.63313
0.630599
0.626824
0.623277
0.619376
0.616974
0.615025
0.615157
0.616358
0.619165
0.623787
0.628571
0.633258
0.63808
0.642714
0.647244
0.651749
0.656278
0.660805
0.66525
0.669683
0.673982
0.678007
0.681769
0.685232
0.688349
0.691057
0.693646
0.69602
0.698449
0.700796
0.703049
0.705229
0.707399
0.709593
0.711851
0.714189
0.716539
0.718883
0.721276
0.723733
0.726265
0.728849
0.731444
0.734
0.736453
0.738769
0.740908
0.742884
0.744657
0.746265
0.747699
0.748991
0.750164
0.751205
0.752142
0.752948
0.753686
0.754294
0.754888
0.755332
0.755844
0.756142
0.756639
0.756787
0.757342
0.757322
0.75799
0.757814
0.758641
0.757855
0.760374
0.225496
0.244228
0.263311
0.285878
0.308036
0.333936
0.358366
0.38089
0.405908
0.416737
0.429713
0.445068
0.455385
0.459237
0.457102
0.449708
0.438063
0.423419
0.407595
0.392379
0.379255
0.369611
0.362081
0.358785
0.355628
0.356443
0.356847
0.357165
0.354988
0.353298
0.347118
0.343042
0.336366
0.335458
0.333148
0.336813
0.340912
0.350982
0.365438
0.37619
0.386657
0.398028
0.408509
0.418392
0.427826
0.4372
0.446506
0.455516
0.464725
0.473212
0.480684
0.487692
0.494062
0.499929
0.50478
0.510943
0.515949
0.522811
0.528888
0.534671
0.540224
0.545682
0.551067
0.556471
0.561877
0.567139
0.572191
0.577266
0.582299
0.587346
0.592434
0.597429
0.602326
0.606902
0.611244
0.615283
0.619142
0.622662
0.626041
0.629159
0.632186
0.635124
0.637876
0.640459
0.642828
0.645094
0.647163
0.649208
0.651042
0.652954
0.654597
0.656459
0.65792
0.659807
0.661072
0.663052
0.664096
0.666322
0.66642
0.67081
0.0991529
0.107071
0.115811
0.126896
0.135397
0.146769
0.155608
0.159152
0.169417
0.171043
0.179407
0.18289
0.183203
0.179744
0.173245
0.164427
0.154185
0.143282
0.132995
0.123957
0.116696
0.1117
0.10768
0.106157
0.104077
0.1045
0.10446
0.104032
0.103158
0.100767
0.0981502
0.0946432
0.092113
0.0917374
0.0928343
0.0946116
0.0978812
0.104439
0.111548
0.118825
0.125069
0.133088
0.141103
0.149981
0.158798
0.168703
0.178777
0.189663
0.200639
0.212369
0.225264
0.238584
0.252609
0.266154
0.279102
0.291473
0.303402
0.314954
0.326049
0.336643
0.346707
0.356392
0.365668
0.374788
0.383594
0.392325
0.400157
0.408017
0.41514
0.422443
0.430667
0.437788
0.445625
0.451527
0.457829
0.463832
0.469901
0.475376
0.48104
0.486132
0.491649
0.497185
0.502119
0.506599
0.510707
0.514713
0.518432
0.522142
0.525564
0.529097
0.532304
0.535752
0.538741
0.542184
0.544958
0.54852
0.551002
0.554923
0.556326
0.562533
0.0597562
0.0601411
0.061849
0.0628891
0.0639164
0.065029
0.0660404
0.0667915
0.0668884
0.0666795
0.0658121
0.0642334
0.0619539
0.0588077
0.0550827
0.0510281
0.0469856
0.0431322
0.0398054
0.0369669
0.0347118
0.032964
0.031472
0.0304077
0.0292555
0.0285401
0.0277321
0.0268486
0.0260125
0.0248783
0.0238808
0.0228829
0.0219363
0.0214353
0.0208416
0.0211821
0.0206858
0.0210277
0.0217613
0.0226156
0.0236026
0.024945
0.0261178
0.0279159
0.0297175
0.0320874
0.0347149
0.0377786
0.0413465
0.0452302
0.0498571
0.0548946
0.0608063
0.0672763
0.0745289
0.0821625
0.0904732
0.0991718
0.10828
0.11766
0.127173
0.136903
0.146722
0.156774
0.166873
0.177185
0.187668
0.198837
0.210026
0.221605
0.23307
0.24448
0.255565
0.266153
0.276289
0.285852
0.29508
0.303659
0.311963
0.319807
0.327459
0.334918
0.34202
0.348805
0.355025
0.361118
0.366673
0.372286
0.377456
0.382858
0.387897
0.392868
0.397436
0.402693
0.407404
0.412934
0.417337
0.423245
0.426791
0.434511
0.0407925
0.0407683
0.0403984
0.0405481
0.0405806
0.0401381
0.0395802
0.0388761
0.0379639
0.0368823
0.0356105
0.0341434
0.03255
0.0308423
0.0291256
0.0274431
0.0258899
0.0244711
0.0232532
0.0221835
0.0212881
0.0205005
0.0198081
0.0191837
0.0186068
0.0180941
0.0175953
0.0171304
0.01669
0.0162798
0.0159079
0.0155907
0.0152991
0.0150829
0.014874
0.0147507
0.014604
0.0145492
0.0144635
0.0144576
0.0143998
0.0144101
0.0144042
0.0143902
0.0144712
0.0144206
0.0146037
0.014531
0.0147174
0.0148432
0.0150784
0.0152547
0.0156352
0.0159943
0.016568
0.0172017
0.0180618
0.019088
0.0203258
0.0218353
0.0235212
0.0255884
0.0278143
0.0305389
0.033406
0.0368956
0.0404903
0.0449013
0.0494851
0.0549469
0.0606689
0.0672341
0.0740298
0.0814936
0.089051
0.0970943
0.105086
0.113462
0.121648
0.130194
0.138485
0.147205
0.155499
0.164326
0.172801
0.181845
0.190339
0.19944
0.207676
0.216536
0.224345
0.232972
0.240235
0.24869
0.255316
0.263824
0.269679
0.278442
0.283576
0.293329
0.0254245
0.0257098
0.0258321
0.0259973
0.0260386
0.0258383
0.0255239
0.0251073
0.0245828
0.0239663
0.023267
0.0224946
0.0216914
0.0208697
0.0200821
0.0193301
0.0186576
0.018043
0.0175131
0.0170324
0.016624
0.0162526
0.0159311
0.0156385
0.0153804
0.0151468
0.0149372
0.0147485
0.0145849
0.0144446
0.0143299
0.0142408
0.0141702
0.0141228
0.014082
0.0140607
0.0140324
0.0140231
0.0140021
0.0139908
0.0139672
0.0139606
0.0139342
0.0139238
0.0139012
0.0138894
0.0138729
0.0138618
0.0138517
0.0138395
0.0138387
0.0138251
0.0138346
0.0138201
0.0138394
0.013826
0.0138554
0.0138479
0.0138894
0.0138936
0.0139515
0.013975
0.0140569
0.0141484
0.0142158
0.0143607
0.0144831
0.0147259
0.0149339
0.0152883
0.0156174
0.0162154
0.0166526
0.01764
0.0182355
0.0196776
0.0205251
0.0224443
0.0236175
0.0261092
0.0275868
0.0308371
0.032688
0.0366488
0.0390549
0.0438265
0.0468414
0.0525762
0.05627
0.0629715
0.0673251
0.074993
0.0799052
0.0885408
0.093831
0.10343
0.108878
0.119131
0.125265
0.136717
0.0178736
0.0179464
0.0180078
0.0180883
0.0180843
0.0180044
0.0178874
0.0177299
0.0175404
0.0173156
0.0170678
0.0167953
0.0165182
0.0162333
0.0159671
0.0157044
0.0154751
0.0152476
0.0150678
0.0148913
0.0147489
0.0146066
0.0144941
0.0143824
0.0142896
0.014204
0.0141348
0.0140747
0.0140331
0.0140027
0.0139931
0.0139883
0.0139939
0.0139948
0.0139981
0.0139921
0.0139829
0.0139707
0.0139525
0.0139312
0.0139108
0.0138917
0.0138698
0.0138517
0.0138311
0.0138174
0.0137978
0.013788
0.013768
0.0137613
0.0137395
0.0137342
0.0137098
0.0137041
0.0136775
0.0136697
0.0136419
0.0136314
0.0136034
0.0135897
0.0135622
0.0135459
0.013519
0.0135
0.013469
0.0134452
0.0134168
0.0133979
0.0133724
0.01336
0.013338
0.0133336
0.0133173
0.0133221
0.0133153
0.0133301
0.0133393
0.0133648
0.0133972
0.0134471
0.0135234
0.0136419
0.0136727
0.0138454
0.0139118
0.0142026
0.0143267
0.0147827
0.0149696
0.0156665
0.0159564
0.0169834
0.017419
0.0188815
0.0196222
0.0214785
0.0228828
0.0248223
0.0279073
0.0294958
0.0150654
0.0150872
0.0150957
0.0151188
0.0151029
0.0150675
0.0150272
0.0149737
0.0149181
0.0148507
0.014783
0.0147076
0.0146358
0.0145604
0.0144946
0.014425
0.0143738
0.0143207
0.0142794
0.0142285
0.0141944
0.0141436
0.0141104
0.0140614
0.0140365
0.013998
0.0139851
0.0139604
0.0139575
0.0139402
0.0139335
0.0139101
0.0138916
0.0138566
0.0138284
0.0137849
0.0137519
0.013707
0.0136743
0.0136303
0.0136013
0.0135654
0.0135391
0.0135045
0.0134806
0.0134479
0.0134248
0.0133911
0.0133673
0.0133317
0.0133067
0.0132702
0.013244
0.013208
0.0131811
0.0131471
0.0131198
0.013089
0.0130614
0.0130341
0.0130066
0.012983
0.0129558
0.0129356
0.0129092
0.0128919
0.0128668
0.0128514
0.0128283
0.0128142
0.0127936
0.0127802
0.0127626
0.0127494
0.0127347
0.0127215
0.0127092
0.0126959
0.0126853
0.0126729
0.0126637
0.0126535
0.0126451
0.0126379
0.0126295
0.0126266
0.0126186
0.0126212
0.0126147
0.0126237
0.0126215
0.0126371
0.0126448
0.0126674
0.0126935
0.0127238
0.0127705
0.0128099
0.0128912
0.013074
0.014277
0.0142844
0.0142809
0.0142808
0.014277
0.0142646
0.0142495
0.0142305
0.0142151
0.014198
0.0141885
0.0141804
0.01418
0.0141837
0.0141914
0.0141968
0.0141938
0.0141774
0.0141531
0.0141161
0.0140763
0.0140278
0.013984
0.0139362
0.0138958
0.0138518
0.0138162
0.0137722
0.0137359
0.0136863
0.0136442
0.0135883
0.0135409
0.0134802
0.0134305
0.0133678
0.0133195
0.0132585
0.0132149
0.0131568
0.0131208
0.0130712
0.0130391
0.0129944
0.0129668
0.0129258
0.0129004
0.0128621
0.0128394
0.0128033
0.0127834
0.0127494
0.0127321
0.0127002
0.0126854
0.0126556
0.0126431
0.0126153
0.0126046
0.0125787
0.0125694
0.0125453
0.012537
0.0125148
0.0125073
0.0124866
0.0124797
0.0124606
0.0124541
0.0124365
0.0124306
0.0124145
0.0124094
0.0123946
0.0123901
0.0123764
0.0123724
0.0123592
0.0123555
0.0123426
0.012339
0.0123262
0.0123227
0.01231
0.0123064
0.012294
0.0122903
0.0122783
0.0122743
0.0122629
0.0122586
0.0122477
0.0122431
0.0122329
0.0122278
0.0122186
0.012212
0.012211
0.0121729
0.0122274
0.0138939
0.0139067
0.0139197
0.0139325
0.0139498
0.0139522
0.013956
0.0139527
0.0139534
0.0139496
0.0139516
0.0139455
0.013946
0.0139291
0.0139142
0.0138777
0.0138433
0.013789
0.0137421
0.0136786
0.0136288
0.0135657
0.0135178
0.0134581
0.0134122
0.0133551
0.0133086
0.0132511
0.0132015
0.0131436
0.0130914
0.0130342
0.0129828
0.0129267
0.01288
0.0128276
0.0127873
0.0127422
0.0127079
0.0126689
0.0126448
0.0126122
0.0125926
0.0125643
0.0125478
0.0125214
0.0125075
0.0124824
0.0124704
0.0124463
0.012436
0.012413
0.0124042
0.0123821
0.0123745
0.0123533
0.0123468
0.0123266
0.0123209
0.0123017
0.0122966
0.0122783
0.0122737
0.0122563
0.0122521
0.0122355
0.0122315
0.0122157
0.0122121
0.0121973
0.0121941
0.0121803
0.0121776
0.0121647
0.0121625
0.0121502
0.0121483
0.0121365
0.0121348
0.0121232
0.0121217
0.0121104
0.0121089
0.0120978
0.0120962
0.0120853
0.0120836
0.012073
0.0120709
0.0120606
0.012058
0.0120478
0.0120448
0.0120347
0.0120313
0.0120212
0.0120185
0.0120024
0.0120291
0.0119591
0.0134876
0.0135178
0.0135473
0.0135628
0.0135829
0.0135874
0.0135962
0.013592
0.0135931
0.0135835
0.0135764
0.0135586
0.0135393
0.0135086
0.0134769
0.0134342
0.0133943
0.0133433
0.0132998
0.0132451
0.0132011
0.013146
0.0131029
0.0130477
0.0130072
0.0129542
0.0129167
0.012867
0.0128337
0.0127883
0.0127585
0.0127175
0.0126911
0.0126533
0.0126301
0.0125959
0.0125741
0.012543
0.0125235
0.0124954
0.0124796
0.0124524
0.0124386
0.0124135
0.0124013
0.0123773
0.0123668
0.0123445
0.0123355
0.0123146
0.012307
0.012287
0.0122802
0.0122605
0.0122539
0.0122343
0.0122277
0.0122084
0.012202
0.0121832
0.0121771
0.0121587
0.0121526
0.0121346
0.0121287
0.0121114
0.012106
0.0120895
0.0120846
0.0120691
0.0120648
0.0120501
0.0120463
0.0120324
0.012029
0.0120155
0.0120123
0.0119993
0.0119963
0.0119834
0.0119805
0.0119679
0.011965
0.0119528
0.0119498
0.0119381
0.0119351
0.0119239
0.0119208
0.0119102
0.011907
0.011897
0.0118936
0.0118842
0.0118803
0.0118717
0.011866
0.0118645
0.0118276
0.0118768
0.0130905
0.0131241
0.0131538
0.0131725
0.0131946
0.0132022
0.0132116
0.0132073
0.0132076
0.0131956
0.0131882
0.0131679
0.0131499
0.01312
0.0130928
0.0130559
0.0130231
0.0129813
0.0129454
0.0129007
0.0128644
0.012819
0.0127846
0.0127415
0.0127099
0.0126702
0.012642
0.012606
0.0125803
0.0125468
0.0125222
0.0124898
0.0124659
0.0124326
0.0124104
0.0123765
0.0123554
0.0123238
0.0123028
0.012276
0.0122583
0.0122326
0.0122193
0.012195
0.0121831
0.0121607
0.0121503
0.0121285
0.0121187
0.0120974
0.0120882
0.0120673
0.0120586
0.012038
0.0120297
0.0120095
0.0120016
0.0119819
0.0119746
0.0119555
0.0119488
0.0119306
0.0119248
0.0119079
0.011903
0.0118872
0.0118829
0.0118679
0.011864
0.0118497
0.0118462
0.0118325
0.0118295
0.0118164
0.0118138
0.0118013
0.0117989
0.0117869
0.0117847
0.0117731
0.0117711
0.0117598
0.0117579
0.011747
0.0117451
0.0117347
0.0117327
0.0117228
0.0117207
0.0117114
0.011709
0.0117003
0.0116976
0.0116894
0.0116865
0.0116787
0.0116768
0.011663
0.0116913
0.011623
0.0127431
0.0127762
0.0128055
0.0128229
0.0128445
0.0128526
0.0128623
0.0128606
0.0128627
0.0128543
0.0128505
0.0128339
0.0128204
0.0127935
0.0127721
0.0127398
0.0127146
0.0126795
0.0126525
0.0126157
0.0125886
0.0125513
0.0125247
0.0124884
0.0124627
0.012428
0.0124041
0.0123716
0.012349
0.0123186
0.0122962
0.0122678
0.0122459
0.0122176
0.0121985
0.01217
0.0121536
0.0121268
0.0121118
0.0120895
0.0120758
0.0120543
0.0120436
0.012023
0.0120143
0.011995
0.0119873
0.0119687
0.0119623
0.0119451
0.0119402
0.0119239
0.0119199
0.0119039
0.0119
0.0118841
0.0118802
0.0118644
0.0118605
0.0118448
0.0118409
0.0118255
0.0118217
0.0118067
0.0118031
0.0117886
0.0117852
0.0117711
0.011768
0.0117545
0.0117516
0.0117386
0.011736
0.0117233
0.011721
0.0117087
0.0117066
0.0116946
0.0116926
0.0116809
0.011679
0.0116676
0.0116658
0.0116549
0.0116531
0.0116427
0.0116409
0.0116309
0.0116291
0.0116197
0.0116178
0.0116089
0.0116067
0.0115984
0.0115958
0.0115884
0.011584
0.0115836
0.0115487
0.0115979
0.0124718
0.0125025
0.0125306
0.0125496
0.0125689
0.0125771
0.0125865
0.0125852
0.0125886
0.0125819
0.0125817
0.0125684
0.0125587
0.0125353
0.0125185
0.0124914
0.012472
0.0124434
0.0124219
0.0123921
0.0123693
0.0123385
0.0123156
0.0122844
0.0122628
0.0122326
0.012213
0.0121848
0.0121675
0.0121414
0.0121253
0.012101
0.0120856
0.0120621
0.0120484
0.0120248
0.0120127
0.0119897
0.0119788
0.0119581
0.0119468
0.0119278
0.0119194
0.0119007
0.0118932
0.0118752
0.0118686
0.011851
0.0118456
0.0118287
0.0118241
0.011808
0.0118042
0.0117888
0.0117855
0.0117704
0.0117671
0.0117521
0.0117489
0.0117342
0.0117311
0.0117167
0.0117138
0.0116999
0.0116974
0.011684
0.0116817
0.0116689
0.0116668
0.0116543
0.0116522
0.0116399
0.0116377
0.0116255
0.0116231
0.011611
0.0116085
0.0115964
0.0115939
0.011582
0.0115795
0.011568
0.0115655
0.0115545
0.0115521
0.0115417
0.0115393
0.0115296
0.0115271
0.0115182
0.0115157
0.0115075
0.0115049
0.0114976
0.0114948
0.0114883
0.0114853
0.0114793
0.011477
0.0114669
0.0122579
0.0122818
0.0123054
0.0123251
0.0123452
0.0123516
0.012361
0.0123599
0.0123624
0.0123571
0.0123586
0.0123489
0.0123415
0.0123214
0.0123087
0.0122866
0.0122729
0.0122496
0.0122341
0.0122088
0.0121918
0.0121652
0.0121477
0.0121208
0.0121041
0.012078
0.0120634
0.0120391
0.0120267
0.012004
0.0119928
0.0119716
0.0119608
0.01194
0.0119303
0.0119088
0.0119003
0.0118793
0.0118704
0.0118518
0.0118425
0.0118245
0.0118175
0.0117995
0.0117925
0.0117753
0.0117694
0.0117526
0.0117471
0.0117309
0.0117261
0.0117107
0.0117067
0.011692
0.0116886
0.0116743
0.0116715
0.0116578
0.0116556
0.0116424
0.0116408
0.0116283
0.0116271
0.0116153
0.0116144
0.011603
0.0116023
0.0115911
0.0115903
0.011579
0.0115781
0.0115668
0.0115656
0.0115541
0.0115526
0.011541
0.0115392
0.0115277
0.0115257
0.0115144
0.0115124
0.0115014
0.0114993
0.0114885
0.0114863
0.0114761
0.0114736
0.0114639
0.0114611
0.0114519
0.011449
0.0114405
0.0114374
0.0114297
0.0114265
0.0114192
0.0114171
0.011404
0.0114315
0.0113649
0.0120965
0.0121075
0.0121354
0.012151
0.0121725
0.0121854
0.0121985
0.0121989
0.0122034
0.0121986
0.0122028
0.0121967
0.0121939
0.0121769
0.0121671
0.012147
0.0121352
0.0121139
0.0121005
0.0120782
0.0120643
0.0120414
0.0120275
0.0120044
0.0119909
0.0119686
0.0119566
0.0119355
0.0119253
0.0119056
0.0118964
0.0118775
0.0118686
0.0118495
0.0118413
0.0118216
0.011814
0.0117944
0.0117874
0.0117693
0.0117613
0.0117449
0.0117386
0.0117224
0.0117167
0.0117016
0.0116963
0.0116804
0.0116756
0.0116599
0.0116552
0.0116398
0.0116358
0.0116208
0.0116172
0.0116028
0.0115996
0.0115859
0.0115833
0.0115702
0.0115684
0.011556
0.0115548
0.0115429
0.0115421
0.0115306
0.0115301
0.0115188
0.0115184
0.0115072
0.0115066
0.0114954
0.0114947
0.0114836
0.0114829
0.011472
0.0114714
0.0114608
0.0114603
0.0114501
0.0114498
0.0114401
0.01144
0.0114308
0.0114308
0.011422
0.0114219
0.0114135
0.0114129
0.0114046
0.0114035
0.0113952
0.0113934
0.0113852
0.0113827
0.0113747
0.0113717
0.011364
0.0113609
0.0113514
0.011968
0.011982
0.0119985
0.0120177
0.0120359
0.0120413
0.012057
0.0120625
0.0120673
0.0120648
0.0120722
0.0120716
0.012076
0.0120665
0.0120626
0.0120454
0.0120326
0.0120096
0.0119951
0.0119732
0.0119608
0.0119399
0.0119287
0.0119075
0.0118966
0.0118757
0.0118654
0.0118457
0.0118367
0.0118175
0.0118091
0.0117905
0.0117819
0.011764
0.0117555
0.0117373
0.0117304
0.0117119
0.0117063
0.0116894
0.0116837
0.0116697
0.0116647
0.0116508
0.0116471
0.0116334
0.0116293
0.0116154
0.0116116
0.0115971
0.0115933
0.0115786
0.0115751
0.0115604
0.0115572
0.0115427
0.0115397
0.0115256
0.011523
0.0115097
0.0115078
0.0114952
0.0114939
0.0114819
0.0114811
0.0114695
0.011469
0.0114576
0.0114573
0.0114459
0.0114457
0.0114343
0.0114341
0.0114228
0.0114228
0.0114118
0.0114122
0.0114018
0.0114026
0.0113929
0.0113942
0.0113852
0.011387
0.0113787
0.0113808
0.0113732
0.0113753
0.0113682
0.01137
0.0113632
0.0113644
0.0113576
0.011358
0.0113511
0.0113504
0.0113434
0.0113416
0.0113346
0.0113319
0.0113229
0.0118776
0.0118883
0.0119043
0.0119204
0.0119346
0.0119462
0.0119533
0.0119543
0.0119618
0.0119591
0.0119679
0.0119727
0.011978
0.0119703
0.0119675
0.0119504
0.0119422
0.0119241
0.0119143
0.0118951
0.0118855
0.0118667
0.011857
0.0118371
0.0118271
0.0118063
0.0117964
0.0117763
0.0117668
0.0117479
0.0117388
0.0117212
0.0117126
0.0116953
0.0116878
0.0116703
0.0116637
0.0116467
0.0116416
0.0116256
0.0116204
0.011607
0.0116031
0.0115892
0.0115865
0.0115731
0.0115701
0.0115563
0.0115529
0.011539
0.0115358
0.0115227
0.0115203
0.0115075
0.0115055
0.0114932
0.0114914
0.0114792
0.0114778
0.0114658
0.0114649
0.0114532
0.0114526
0.0114414
0.011441
0.0114302
0.0114301
0.0114195
0.0114197
0.0114092
0.0114095
0.0113991
0.0113994
0.011389
0.0113892
0.0113789
0.0113789
0.0113688
0.0113687
0.0113587
0.0113586
0.0113491
0.011349
0.01134
0.01134
0.0113317
0.0113318
0.0113241
0.0113243
0.0113174
0.0113173
0.011311
0.0113104
0.0113047
0.0113033
0.0112983
0.0112946
0.0112964
0.0112614
0.0113107
0.0118092
0.011816
0.0118362
0.0118469
0.0118552
0.0118666
0.0118778
0.011879
0.0118808
0.011874
0.0118784
0.011878
0.0118815
0.0118733
0.0118714
0.01186
0.0118546
0.0118393
0.0118329
0.0118169
0.0118096
0.0117927
0.0117846
0.0117667
0.011758
0.0117391
0.0117301
0.0117109
0.011702
0.0116836
0.0116751
0.011658
0.0116497
0.0116338
0.0116263
0.0116104
0.0116052
0.0115886
0.0115848
0.0115691
0.011566
0.0115524
0.0115484
0.0115353
0.0115328
0.0115199
0.0115174
0.0115052
0.0115042
0.0114921
0.0114912
0.0114802
0.0114798
0.0114689
0.0114685
0.011457
0.0114566
0.0114452
0.0114451
0.011434
0.011434
0.0114231
0.0114232
0.0114125
0.0114125
0.011402
0.0114018
0.0113915
0.0113914
0.0113813
0.0113814
0.0113718
0.0113719
0.0113627
0.0113628
0.0113538
0.0113538
0.0113447
0.0113443
0.0113352
0.0113343
0.011325
0.0113236
0.0113142
0.0113124
0.0113031
0.011301
0.0112918
0.0112895
0.0112806
0.0112781
0.0112695
0.0112668
0.0112587
0.0112558
0.0112482
0.0112449
0.0112379
0.0112336
0.0112262
0.011732
0.011752
0.0117652
0.0117673
0.0117886
0.0117948
0.0118021
0.011804
0.011805
0.0117955
0.0118
0.0117958
0.0117994
0.0117929
0.0117926
0.0117809
0.0117753
0.0117611
0.0117546
0.0117396
0.0117346
0.0117209
0.0117163
0.0117029
0.0116977
0.0116829
0.0116769
0.0116609
0.0116544
0.0116387
0.0116326
0.0116169
0.0116113
0.0115956
0.0115906
0.0115751
0.0115692
0.0115547
0.0115497
0.0115348
0.0115317
0.011517
0.0115151
0.0115032
0.0115017
0.0114904
0.0114895
0.0114795
0.0114795
0.0114686
0.0114693
0.011459
0.0114595
0.0114487
0.0114491
0.0114384
0.0114376
0.0114267
0.0114259
0.011414
0.0114131
0.0114009
0.0113997
0.0113878
0.0113864
0.011375
0.0113736
0.0113622
0.011361
0.0113501
0.0113493
0.0113387
0.011338
0.0113281
0.0113274
0.011318
0.0113173
0.0113082
0.0113073
0.0112983
0.0112971
0.0112882
0.0112865
0.0112776
0.0112755
0.0112666
0.0112643
0.0112555
0.0112528
0.0112441
0.0112411
0.0112325
0.0112293
0.0112209
0.0112173
0.0112095
0.0112044
0.011203
0.0111703
0.0112155
0.0117038
0.0117105
0.0117292
0.0117415
0.0117536
0.0117596
0.0117702
0.0117683
0.0117736
0.0117659
0.0117691
0.0117637
0.0117642
0.0117539
0.0117476
0.0117332
0.0117261
0.0117095
0.0117041
0.0116899
0.0116852
0.0116715
0.0116667
0.0116528
0.011648
0.0116338
0.0116289
0.0116142
0.0116091
0.0115945
0.0115887
0.0115736
0.0115675
0.0115516
0.0115455
0.0115298
0.0115248
0.0115096
0.0115062
0.0114934
0.0114914
0.0114792
0.0114795
0.0114683
0.0114683
0.0114582
0.0114583
0.0114472
0.011447
0.0114361
0.0114356
0.0114244
0.0114244
0.0114129
0.0114119
0.0114004
0.0113991
0.0113873
0.011386
0.0113743
0.0113728
0.0113609
0.0113595
0.0113474
0.0113461
0.0113343
0.0113329
0.0113215
0.0113204
0.0113092
0.0113082
0.0112975
0.0112967
0.0112862
0.0112855
0.0112754
0.0112747
0.0112649
0.0112641
0.0112546
0.0112537
0.0112445
0.0112436
0.0112347
0.0112336
0.011225
0.0112237
0.0112154
0.011214
0.011206
0.0112043
0.0111966
0.0111946
0.0111872
0.0111849
0.0111779
0.0111753
0.0111688
0.0111653
0.0111581
0.0116514
0.0116521
0.0116616
0.0116678
0.0116769
0.011684
0.0116951
0.0117023
0.0117032
0.0116923
0.0116986
0.0116948
0.0116999
0.0116941
0.0116944
0.0116861
0.0116803
0.0116661
0.0116608
0.0116464
0.0116412
0.0116264
0.01162
0.0116042
0.011597
0.011581
0.0115746
0.0115595
0.0115547
0.011541
0.0115372
0.0115246
0.0115209
0.011509
0.0115058
0.0114937
0.0114913
0.0114785
0.0114777
0.0114665
0.011465
0.0114543
0.0114541
0.0114427
0.0114431
0.0114323
0.0114316
0.0114208
0.0114203
0.0114092
0.0114085
0.0113976
0.0113971
0.0113858
0.0113855
0.0113742
0.0113735
0.0113626
0.011362
0.0113508
0.0113501
0.0113389
0.0113382
0.0113271
0.0113264
0.0113153
0.0113146
0.0113037
0.0113031
0.0112924
0.0112918
0.0112814
0.0112809
0.0112707
0.0112702
0.0112603
0.0112598
0.0112502
0.0112497
0.0112403
0.0112397
0.0112306
0.01123
0.0112212
0.0112205
0.0112121
0.0112111
0.0112031
0.011202
0.0111943
0.011193
0.0111856
0.011184
0.0111771
0.0111752
0.0111686
0.0111663
0.0111602
0.0111571
0.0111502
0.0116387
0.0116327
0.0116602
0.0116684
0.0116737
0.0116835
0.0116905
0.0116954
0.0116982
0.0116943
0.0117044
0.0116983
0.011701
0.0116914
0.0116852
0.0116723
0.0116614
0.0116441
0.0116355
0.0116193
0.0116122
0.011597
0.0115906
0.0115754
0.0115693
0.0115542
0.0115491
0.0115355
0.011532
0.0115198
0.0115172
0.0115058
0.0115037
0.0114923
0.0114906
0.0114792
0.0114773
0.0114659
0.0114649
0.011454
0.0114531
0.0114422
0.0114422
0.0114313
0.0114313
0.0114209
0.0114211
0.0114106
0.0114103
0.0113996
0.0113994
0.0113886
0.0113886
0.0113778
0.0113777
0.0113669
0.0113666
0.0113558
0.0113555
0.0113447
0.0113442
0.0113334
0.0113329
0.011322
0.0113215
0.0113107
0.0113102
0.0112995
0.0112989
0.0112884
0.0112879
0.0112776
0.0112771
0.011267
0.0112666
0.0112567
0.0112563
0.0112467
0.0112462
0.011237
0.0112364
0.0112274
0.0112268
0.0112181
0.0112174
0.0112089
0.011208
0.0111999
0.0111987
0.0111909
0.0111896
0.0111822
0.0111805
0.0111734
0.0111715
0.0111646
0.0111636
0.0111511
0.0111777
0.0111161
0.0115959
0.011595
0.0116123
0.0116076
0.0116173
0.0116297
0.0116291
0.0116337
0.0116376
0.0116304