/*--------------------------------*- C++ -*----------------------------------*\
  =========                 |
  \\      /  F ield         | OpenFOAM: The Open Source CFD Toolbox
   \\    /   O peration     | Website:  https://openfoam.org
    \\  /    A nd           | Version:  8
     \\/     M anipulation  |
\*---------------------------------------------------------------------------*/
FoamFile
{
    version     2.0;
    format      ascii;
    class       volScalarField;
    location    "1.500023";
    object      p;
}
// * * * * * * * * * * * * * * * * * * * * * * * * * * * * * * * * * * * * * //

dimensions      [1 -1 -2 0 0 0 0];

internalField   nonuniform List<scalar> 
6800
(
100306
100437
100475
100495
100498
100534
100558
100575
100600
100627
100207
100357
100472
100495
100499
100530
100561
100593
100624
100643
100224
100225
100388
100486
100496
100526
100565
100597
100622
100649
100343
100255
100285
100471
100498
100525
100555
100591
100634
100668
100508
100650
100364
100491
100509
100529
100557
100608
100645
100675
100534
100813
100349
100459
100478
100507
100542
100590
100625
100673
100174
100615
100245
100386
100418
100467
100510
100582
100635
100684
99648.3
100353
100089
100267
100332
100414
100471
100555
100616
100678
99113.4
99989.6
99899.5
100133
100249
100381
100452
100539
100614
100680
98612.4
99700.8
99709.5
100012
100160
100339
100450
100545
100615
100678
100577
100550
100524
100514
100510
100508
100508
100510
100514
100520
100570
100543
100520
100510
100506
100504
100504
100505
100509
100515
100553
100529
100511
100503
100499
100497
100496
100497
100501
100508
100530
100514
100501
100495
100491
100488
100487
100487
100492
100503
100507
100499
100492
100488
100485
100482
100479
100479
100486
100509
100487
100487
100484
100484
100482
100480
100478
100475
100482
100525
100468
100478
100481
100486
100488
100487
100483
100482
100483
100548
100449
100469
100484
100495
100500
100497
100493
100503
100496
100558
100425
100459
100488
100504
100510
100510
100508
100510
100523
100568
100385
100452
100482
100505
100514
100513
100527
100567
100574
100589
100529
100547
100571
100600
100634
100671
100712
100755
100801
100847
100895
100943
100991
101039
101086
101133
101179
101222
101263
101301
101335
101367
101394
101418
101438
101454
101468
101478
101487
101493
101497
101500
101501
101502
101501
101500
101499
101497
101494
101492
101488
101485
101481
101477
101473
101468
101463
101458
101453
101448
101443
101439
101434
101429
101425
101420
101416
101412
101408
101404
101400
101397
101393
101390
101387
101384
101381
101378
101375
101373
101370
101368
101366
101364
101362
101360
101358
101356
101354
101352
101351
101349
101348
101346
101345
101343
101342
101341
101339
101338
101337
101336
101334
101333
101332
101331
101330
101329
101327
101327
100523
100543
100567
100596
100629
100667
100708
100752
100797
100843
100891
100939
100988
101036
101083
101130
101176
101219
101260
101299
101334
101365
101393
101416
101436
101453
101467
101477
101486
101492
101496
101499
101501
101501
101501
101500
101499
101497
101494
101491
101488
101485
101481
101477
101472
101468
101463
101458
101453
101448
101443
101438
101434
101429
101424
101420
101416
101411
101407
101404
101400
101396
101393
101390
101387
101384
101381
101378
101375
101373
101370
101368
101366
101364
101362
101360
101358
101356
101354
101352
101351
101349
101348
101346
101345
101343
101342
101341
101339
101338
101337
101336
101334
101333
101332
101331
101330
101329
101327
101327
100514
100535
100560
100589
100622
100660
100701
100745
100791
100837
100884
100932
100980
101029
101077
101124
101170
101214
101255
101294
101329
101361
101389
101413
101433
101450
101464
101475
101484
101490
101495
101498
101500
101500
101500
101499
101498
101496
101494
101491
101488
101484
101480
101476
101472
101467
101463
101458
101453
101448
101443
101438
101433
101429
101424
101420
101415
101411
101407
101403
101400
101396
101393
101390
101386
101383
101381
101378
101375
101373
101370
101368
101366
101364
101361
101359
101358
101356
101354
101352
101351
101349
101347
101346
101345
101343
101342
101340
101339
101338
101337
101335
101334
101333
101332
101331
101330
101329
101327
101326
100507
100529
100553
100582
100615
100653
100694
100736
100781
100829
100876
100924
100972
101020
101068
101115
101161
101206
101248
101287
101323
101355
101383
101407
101428
101446
101460
101471
101480
101487
101492
101495
101497
101498
101498
101497
101496
101494
101492
101489
101487
101483
101479
101475
101471
101467
101462
101457
101452
101447
101442
101437
101433
101428
101423
101419
101415
101411
101407
101403
101399
101396
101392
101389
101386
101383
101380
101378
101375
101372
101370
101368
101365
101363
101361
101359
101357
101356
101354
101352
101350
101349
101347
101346
101344
101343
101342
101340
101339
101338
101337
101335
101334
101333
101332
101331
101329
101328
101327
101326
100507
100525
100549
100577
100610
100647
100687
100729
100774
100820
100868
100915
100962
101010
101058
101105
101151
101196
101238
101277
101314
101346
101375
101400
101421
101439
101453
101465
101475
101482
101487
101491
101493
101494
101495
101494
101493
101492
101490
101487
101484
101481
101478
101474
101470
101465
101460
101456
101451
101446
101441
101436
101432
101427
101423
101418
101414
101410
101406
101402
101399
101395
101392
101389
101386
101383
101380
101377
101375
101372
101370
101367
101365
101363
101361
101359
101357
101355
101354
101352
101350
101349
101347
101346
101344
101343
101342
101340
101339
101338
101336
101335
101334
101333
101332
101331
101329
101328
101327
101326
100521
100531
100552
100578
100610
100645
100684
100725
100769
100814
100860
100906
100953
101001
101048
101095
101141
101185
101227
101267
101303
101336
101364
101390
101411
101430
101445
101457
101467
101475
101481
101485
101488
101489
101490
101490
101489
101488
101486
101484
101481
101479
101475
101472
101467
101463
101459
101454
101449
101444
101440
101435
101430
101426
101421
101417
101413
101409
101405
101401
101398
101394
101391
101388
101385
101382
101379
101377
101374
101372
101369
101367
101365
101363
101361
101359
101357
101355
101353
101352
101350
101348
101347
101345
101344
101343
101341
101340
101339
101338
101336
101335
101334
101333
101332
101331
101329
101328
101327
101326
100549
100551
100565
100587
100616
100648
100686
100726
100768
100811
100855
100900
100946
100992
101038
101084
101129
101173
101215
101254
101290
101323
101352
101378
101400
101418
101435
101448
101458
101466
101473
101478
101481
101483
101484
101484
101484
101483
101481
101479
101477
101475
101472
101468
101465
101460
101456
101451
101447
101442
101438
101433
101429
101424
101420
101416
101412
101408
101404
101400
101397
101393
101390
101387
101384
101381
101379
101376
101373
101371
101369
101366
101364
101362
101360
101358
101356
101355
101353
101351
101350
101348
101347
101345
101344
101342
101341
101340
101339
101337
101336
101335
101334
101333
101332
101330
101329
101328
101327
101326
100571
100578
100590
100607
100631
100660
100692
100728
100770
100812
100856
100897
100941
100985
101029
101072
101115
101158
101200
101239
101275
101307
101337
101362
101385
101404
101422
101435
101445
101454
101462
101467
101471
101473
101476
101476
101478
101477
101476
101474
101473
101470
101468
101464
101461
101457
101453
101448
101444
101439
101435
101431
101426
101422
101418
101414
101410
101406
101402
101399
101395
101392
101389
101386
101383
101380
101378
101375
101373
101370
101368
101366
101364
101361
101359
101358
101356
101354
101352
101351
101349
101348
101346
101345
101343
101342
101341
101340
101338
101337
101336
101335
101334
101333
101331
101330
101329
101328
101327
101326
100574
100596
100615
100632
100652
100678
100705
100740
100778
100819
100858
100899
100941
100983
101026
101067
101108
101148
101187
101224
101259
101291
101320
101346
101368
101389
101406
101421
101433
101443
101451
101457
101462
101465
101468
101469
101470
101469
101469
101467
101466
101463
101462
101459
101457
101453
101449
101445
101441
101437
101432
101428
101424
101420
101416
101412
101408
101404
101401
101397
101394
101391
101388
101385
101382
101379
101376
101374
101371
101369
101367
101365
101363
101361
101359
101357
101355
101353
101352
101350
101349
101347
101346
101344
101343
101342
101340
101339
101338
101337
101336
101335
101333
101332
101331
101330
101329
101328
101327
101325
100594
100614
100638
100659
100677
100700
100725
100755
100788
100824
100860
100899
100938
100978
101019
101058
101097
101134
101169
101204
101237
101268
101297
101323
101346
101367
101386
101402
101417
101427
101436
101443
101449
101454
101457
101459
101460
101459
101459
101457
101456
101455
101454
101453
101451
101447
101444
101440
101436
101432
101429
101425
101421
101417
101414
101410
101406
101403
101399
101396
101392
101389
101386
101383
101381
101378
101375
101373
101371
101368
101366
101364
101362
101360
101358
101356
101354
101353
101351
101350
101348
101347
101345
101344
101342
101341
101340
101339
101338
101336
101335
101334
101333
101332
101331
101330
101329
101328
101327
101325
100629
100639
100669
100691
100709
100731
100754
100782
100812
100845
100879
100915
100952
100989
101027
101064
101100
101135
101169
101202
101233
101262
101290
101315
101338
101358
101376
101392
101406
101417
101426
101433
101439
101444
101448
101450
101452
101452
101450
101451
101449
101448
101448
101448
101446
101442
101439
101435
101431
101428
101424
101421
101417
101414
101410
101407
101403
101400
101397
101393
101390
101387
101384
101381
101379
101376
101374
101371
101369
101367
101365
101363
101361
101359
101357
101355
101353
101352
101350
101349
101347
101346
101345
101343
101342
101341
101340
101338
101337
101336
101335
101334
101333
101332
101331
101330
101329
101328
101327
101325
100674
100688
100717
100738
100754
100774
100797
100822
100850
100880
100911
100944
100978
101012
101046
101080
101114
101146
101178
101208
101237
101264
101289
101312
101333
101352
101369
101384
101397
101408
101417
101424
101430
101435
101438
101440
101442
101441
101441
101442
101442
101441
101440
101439
101437
101435
101431
101428
101425
101422
101418
101415
101412
101409
101405
101402
101399
101396
101393
101390
101386
101384
101381
101378
101376
101373
101371
101369
101367
101365
101363
101361
101359
101357
101355
101354
101352
101350
101349
101348
101346
101345
101344
101342
101341
101340
101339
101338
101337
101336
101335
101334
101333
101332
101331
101330
101329
101328
101327
101325
100722
100733
100758
100776
100792
100810
100831
100855
100880
100908
100936
100966
100997
101028
101060
101091
101122
101153
101182
101211
101238
101262
101286
101307
101327
101345
101361
101376
101388
101399
101407
101415
101421
101426
101429
101432
101433
101434
101434
101435
101435
101434
101433
101433
101431
101428
101425
101422
101420
101417
101414
101411
101408
101405
101401
101398
101395
101392
101389
101387
101384
101381
101378
101376
101374
101371
101369
101367
101365
101363
101361
101359
101357
101355
101354
101352
101351
101349
101348
101347
101345
101344
101343
101341
101340
101339
101338
101337
101336
101335
101334
101333
101332
101331
101330
101329
101328
101327
101326
101325
100764
100776
100798
100815
100830
100847
100867
100889
100913
100938
100965
100992
101021
101050
101079
101107
101136
101163
101190
101215
101240
101264
101286
101306
101324
101341
101356
101370
101382
101392
101400
101407
101413
101418
101421
101424
101425
101427
101428
101429
101427
101426
101426
101426
101423
101421
101418
101416
101413
101411
101408
101405
101402
101400
101397
101394
101391
101388
101386
101383
101380
101378
101375
101373
101371
101368
101366
101364
101362
101361
101359
101357
101355
101354
101352
101351
101349
101348
101347
101345
101344
101343
101342
101341
101339
101338
101337
101336
101335
101335
101334
101333
101332
101331
101330
101329
101328
101327
101326
101325
100802
100816
100837
100853
100866
100883
100901
100921
100943
100966
100990
101015
101041
101067
101093
101119
101145
101171
101196
101219
101243
101264
101284
101303
101321
101336
101351
101363
101374
101384
101392
101399
101404
101409
101413
101416
101418
101419
101421
101421
101419
101419
101420
101419
101416
101414
101412
101410
101408
101405
101403
101400
101398
101395
101393
101390
101387
101385
101382
101380
101377
101375
101372
101370
101368
101366
101364
101362
101360
101359
101357
101355
101354
101352
101351
101349
101348
101347
101345
101344
101343
101342
101341
101340
101339
101338
101337
101336
101335
101334
101333
101332
101331
101331
101330
101329
101328
101327
101326
101325
100839
100852
100873
100888
100901
100917
100934
100952
100972
100993
101015
101038
101062
101086
101110
101134
101158
101181
101204
101226
101247
101267
101286
101303
101319
101333
101347
101358
101369
101378
101386
101392
101398
101402
101406
101409
101411
101413
101414
101413
101412
101413
101413
101411
101410
101408
101406
101404
101402
101400
101398
101395
101393
101390
101388
101386
101383
101381
101378
101376
101374
101372
101369
101367
101365
101363
101362
101360
101358
101356
101355
101353
101352
101350
101349
101348
101346
101345
101344
101343
101342
101341
101340
101339
101338
101337
101336
101335
101334
101333
101333
101332
101331
101330
101329
101329
101328
101327
101326
101325
100880
100889
100909
100923
100935
100950
100965
100982
101000
101020
101040
101061
101082
101104
101126
101147
101169
101190
101211
101231
101250
101269
101286
101302
101316
101330
101342
101353
101363
101372
101379
101385
101390
101395
101398
101401
101403
101406
101407
101405
101406
101407
101406
101404
101403
101401
101400
101398
101396
101394
101392
101390
101388
101386
101384
101381
101379
101377
101375
101373
101370
101368
101366
101365
101363
101361
101359
101358
101356
101354
101353
101351
101350
101349
101348
101346
101345
101344
101343
101342
101341
101340
101339
101338
101337
101336
101335
101334
101334
101333
101332
101331
101331
101330
101329
101328
101328
101327
101326
101325
100920
100929
100946
100958
100969
100982
100996
101012
101028
101045
101064
101083
101102
101122
101142
101161
101181
101200
101219
101237
101255
101272
101287
101302
101316
101328
101339
101349
101359
101366
101373
101379
101384
101388
101392
101395
101397
101399
101400
101398
101400
101400
101399
101398
101397
101395
101394
101392
101391
101389
101387
101385
101383
101381
101379
101377
101375
101373
101371
101369
101367
101365
101363
101362
101360
101358
101357
101355
101354
101352
101351
101349
101348
101347
101346
101345
101344
101343
101342
101341
101340
101339
101338
101337
101336
101335
101334
101334
101333
101332
101332
101331
101330
101330
101329
101328
101327
101327
101326
101325
100958
100966
100980
100991
101002
101013
101026
101040
101055
101071
101087
101104
101122
101139
101157
101175
101193
101210
101227
101243
101259
101274
101289
101302
101314
101326
101336
101346
101354
101361
101368
101373
101378
101382
101385
101388
101390
101391
101392
101391
101393
101393
101392
101392
101390
101388
101387
101386
101385
101383
101382
101380
101378
101377
101375
101373
101371
101369
101367
101365
101364
101362
101360
101359
101357
101356
101354
101353
101351
101350
101349
101348
101346
101345
101344
101343
101342
101341
101340
101339
101339
101338
101337
101336
101335
101334
101334
101333
101332
101332
101331
101330
101330
101329
101329
101328
101327
101327
101326
101325
100997
101004
101014
101024
101033
101043
101055
101068
101081
101095
101110
101125
101141
101157
101173
101189
101204
101220
101235
101250
101264
101278
101291
101303
101314
101325
101334
101343
101350
101357
101363
101368
101372
101376
101379
101381
101383
101385
101386
101386
101386
101387
101386
101385
101384
101383
101382
101380
101380
101378
101377
101375
101374
101372
101370
101369
101367
101365
101364
101362
101360
101359
101357
101356
101354
101353
101352
101350
101349
101348
101347
101346
101344
101343
101342
101342
101341
101340
101339
101338
101337
101337
101336
101335
101334
101334
101333
101332
101331
101331
101330
101330
101330
101329
101328
101328
101327
101327
101326
101325
101035
101040
101049
101057
101064
101073
101083
101095
101107
101119
101132
101146
101160
101174
101188
101202
101216
101230
101244
101257
101270
101282
101293
101304
101314
101324
101332
101340
101346
101353
101358
101363
101366
101370
101372
101375
101377
101378
101379
101380
101380
101379
101380
101379
101378
101377
101375
101374
101374
101373
101372
101370
101369
101367
101366
101364
101363
101361
101360
101358
101357
101355
101354
101353
101351
101350
101349
101348
101347
101346
101345
101344
101343
101342
101341
101340
101339
101338
101338
101337
101336
101335
101335
101334
101333
101333
101332
101331
101331
101330
101330
101329
101329
101329
101328
101328
101327
101326
101326
101325
101066
101074
101082
101089
101095
101101
101111
101121
101132
101142
101153
101166
101178
101191
101204
101216
101227
101240
101252
101264
101275
101286
101296
101306
101315
101323
101330
101337
101343
101349
101354
101358
101361
101364
101367
101369
101370
101372
101372
101374
101374
101374
101375
101374
101372
101372
101371
101369
101368
101368
101367
101366
101364
101363
101362
101360
101359
101358
101356
101355
101354
101352
101351
101350
101349
101348
101346
101345
101344
101343
101342
101342
101341
101340
101339
101338
101338
101337
101336
101336
101335
101334
101334
101333
101333
101332
101331
101331
101330
101330
101329
101329
101329
101328
101328
101327
101327
101326
101326
101325
101099
101106
101113
101120
101124
101129
101138
101147
101156
101166
101175
101186
101198
101208
101221
101230
101239
101250
101261
101271
101281
101290
101299
101307
101315
101322
101329
101335
101341
101345
101350
101353
101356
101359
101361
101363
101364
101365
101367
101368
101369
101369
101368
101367
101366
101366
101366
101364
101363
101362
101362
101361
101359
101358
101357
101356
101355
101353
101352
101351
101350
101349
101348
101347
101346
101345
101344
101343
101342
101341
101340
101339
101339
101338
101337
101337
101336
101336
101335
101334
101334
101333
101333
101332
101332
101331
101331
101330
101330
101329
101329
101328
101328
101328
101327
101327
101327
101326
101326
101325
101134
101139
101146
101150
101151
101156
101164
101171
101180
101188
101195
101206
101215
101225
101233
101241
101250
101260
101269
101278
101287
101295
101302
101309
101316
101322
101328
101333
101338
101342
101346
101349
101351
101354
101355
101357
101358
101359
101361
101362
101364
101363
101363
101362
101362
101361
101360
101359
101358
101357
101357
101356
101355
101354
101353
101352
101351
101350
101349
101348
101347
101346
101345
101344
101343
101342
101341
101340
101339
101339
101338
101338
101337
101336
101336
101335
101335
101334
101334
101333
101333
101332
101332
101331
101331
101330
101330
101330
101329
101329
101328
101328
101328
101327
101327
101327
101326
101326
101326
101325
101166
101168
101175
101179
101180
101185
101189
101195
101202
101208
101216
101225
101232
101239
101245
101253
101262
101270
101278
101286
101293
101300
101306
101312
101317
101323
101327
101332
101336
101339
101342
101344
101347
101349
101350
101351
101352
101354
101355
101356
101356
101357
101358
101355
101357
101356
101354
101354
101353
101352
101351
101351
101350
101349
101348
101347
101346
101346
101345
101344
101343
101342
101341
101340
101340
101339
101338
101338
101337
101336
101336
101335
101335
101334
101334
101333
101333
101333
101332
101332
101331
101331
101331
101330
101330
101330
101329
101329
101329
101328
101328
101328
101327
101327
101327
101326
101326
101326
101325
101325
101197
101198
101201
101205
101209
101214
101216
101219
101224
101229
101237
101245
101250
101256
101261
101267
101273
101280
101287
101293
101299
101304
101309
101314
101319
101323
101327
101330
101334
101336
101339
101341
101343
101344
101345
101346
101347
101349
101349
101351
101351
101352
101351
101350
101351
101350
101349
101348
101348
101347
101346
101346
101345
101344
101344
101343
101343
101342
101341
101340
101340
101339
101338
101338
101337
101336
101336
101336
101335
101334
101334
101333
101333
101333
101332
101332
101331
101331
101331
101331
101330
101330
101330
101329
101329
101329
101329
101328
101328
101328
101327
101327
101327
101327
101326
101326
101326
101326
101325
101325
101226
101232
101229
101232
101237
101238
101240
101245
101247
101252
101258
101264
101269
101272
101275
101280
101286
101290
101297
101302
101306
101310
101313
101317
101320
101323
101326
101329
101331
101334
101336
101338
101339
101340
101341
101342
101342
101343
101344
101345
101345
101346
101344
101345
101345
101344
101344
101343
101344
101342
101342
101341
101340
101340
101339
101338
101338
101338
101337
101336
101336
101335
101335
101334
101334
101334
101334
101333
101333
101332
101332
101331
101331
101331
101330
101330
101330
101330
101330
101329
101329
101329
101329
101328
101328
101328
101328
101328
101327
101327
101327
101327
101326
101326
101326
101326
101326
101326
101325
101325
101254
101257
101258
101263
101263
101265
101266
101266
101268
101272
101277
101282
101283
101287
101289
101292
101297
101300
101305
101309
101312
101315
101317
101319
101322
101324
101326
101328
101330
101331
101333
101334
101335
101337
101337
101336
101338
101338
101339
101339
101340
101340
101338
101340
101339
101339
101338
101338
101338
101338
101337
101336
101336
101336
101335
101334
101334
101333
101333
101332
101332
101332
101332
101331
101332
101332
101331
101331
101331
101330
101330
101330
101329
101329
101329
101328
101328
101328
101328
101328
101328
101328
101328
101328
101327
101327
101327
101327
101327
101327
101326
101326
101326
101326
101326
101326
101326
101325
101325
101325
101284
101282
101289
101289
101286
101293
101291
101286
101293
101293
101300
101301
101299
101303
101304
101305
101308
101309
101312
101314
101317
101319
101320
101322
101323
101324
101325
101327
101328
101329
101330
101331
101331
101332
101333
101332
101333
101333
101334
101335
101333
101334
101334
101334
101333
101333
101332
101332
101332
101334
101332
101332
101332
101332
101331
101331
101331
101330
101330
101329
101329
101329
101329
101329
101329
101329
101328
101328
101328
101328
101328
101328
101327
101327
101327
101327
101327
101327
101327
101327
101327
101327
101327
101327
101327
101326
101326
101326
101326
101326
101326
101326
101326
101326
101325
101325
101325
101325
101325
101325
101311
101311
101315
101312
101310
101314
101314
101311
101316
101316
101318
101318
101317
101318
101318
101318
101319
101319
101321
101321
101323
101323
101324
101324
101324
101325
101325
101326
101326
101326
101326
101327
101327
101327
101328
101328
101328
101328
101328
101329
101328
101328
101328
101328
101328
101327
101327
101327
101327
101328
101327
101327
101328
101327
101327
101327
101327
101327
101327
101327
101326
101326
101326
101327
101326
101326
101326
101326
101326
101326
101326
101326
101326
101326
101326
101326
101326
101326
101326
101326
101326
101326
101326
101326
101326
101325
101325
101325
101325
101325
101325
101325
101325
101325
101325
101325
101325
101325
101325
101325
100735
100732
100732
100721
100723
100715
100706
100691
100673
100657
100793
100783
100777
100759
100757
100752
100745
100727
100713
100702
100846
100834
100823
100812
100801
100793
100784
100767
100746
100741
100889
100875
100863
100852
100841
100831
100820
100809
100783
100774
100932
100918
100904
100893
100880
100870
100855
100848
100827
100809
100970
100956
100941
100931
100917
100908
100892
100884
100869
100852
101005
100992
100977
100967
100953
100944
100931
100919
100907
100893
101038
101025
101011
101001
100988
100978
100967
100954
100943
100930
101068
101056
101044
101033
101022
101011
101001
100989
100980
100968
101097
101085
101074
101063
101054
101043
101035
101022
101014
101005
101124
101112
101104
101093
101086
101074
101066
101056
101047
101038
101149
101138
101131
101121
101114
101106
101097
101088
101081
101070
101174
101163
101158
101149
101142
101135
101129
101119
101113
101105
101197
101188
101181
101177
101169
101163
101158
101149
101144
101141
101218
101212
101205
101203
101196
101190
101187
101179
101173
101172
101238
101234
101228
101226
101223
101216
101214
101208
101201
101199
101259
101256
101252
101248
101249
101246
101242
101236
101229
101224
101276
101276
101274
101272
101273
101272
101269
101265
101260
101254
101295
101294
101294
101293
101296
101291
101292
101291
101291
101287
101316
101314
101315
101313
101316
101312
101314
101314
101315
101313
101538
101519
101497
101453
101389
101283
101148
100914
100665
99982.9
101405
101356
101308
101240
101150
101026
100869
100586
100292
99505.7
101271
101200
101143
101059
100951
100785
100594
100264
99950.6
99075.3
101137
101054
100978
100874
100750
100580
100378
100015
99632.1
98779.4
101018
100928
100852
100743
100602
100394
100173
99800.6
99444.3
98489.1
100914
100820
100723
100594
100459
100266
100038
99675
99323.2
98191.5
100827
100729
100650
100529
100374
100162
99921.4
99528.4
99250.9
98019.1
100765
100669
100557
100436
100305
100109
99872.9
99501.8
99196.8
98136.3
100699
100619
100543
100423
100285
100085
99871.9
99485.5
99342.1
98049.1
100688
100612
100543
100424
100306
100112
99924.8
99539.8
99434.8
98238.6
102637
102728
102830
102939
103063
103193
103331
103465
103589
103694
102622
102715
102814
102923
103039
103169
103297
103424
103531
103651
102563
102651
102742
102843
102947
103062
103180
103288
103376
103471
102489
102564
102652
102732
102832
102918
103019
103103
103150
103193
102388
102456
102534
102609
102681
102768
102833
102886
102895
102865
102272
102331
102392
102451
102505
102545
102611
102616
102577
102482
102149
102196
102249
102272
102321
102335
102336
102323
102229
102030
101995
102028
102081
102084
102080
102076
102044
101986
101866
101545
101855
101860
101897
101889
101859
101822
101753
101625
101462
101027
101687
101680
101687
101669
101616
101549
101455
101275
101064
100500
101326
101326
101327
101327
101327
101327
101327
101327
101327
101327
101327
101327
101327
101327
101327
101327
101328
101328
101328
101328
101328
101329
101329
101329
101330
101330
101330
101330
101331
101331
101332
101332
101333
101333
101334
101335
101335
101336
101337
101338
101339
101340
101341
101342
101344
101345
101346
101348
101350
101351
101353
101355
101358
101360
101363
101365
101369
101372
101376
101379
101383
101387
101392
101397
101403
101408
101415
101421
101428
101435
101444
101452
101462
101472
101483
101494
101508
101520
101536
101551
101569
101586
101607
101627
101652
101676
101704
101733
101767
101802
101843
101885
101936
101989
102052
102120
102202
102291
102400
102521
101326
101326
101326
101326
101327
101327
101327
101327
101327
101327
101327
101327
101327
101327
101327
101327
101328
101328
101328
101328
101328
101329
101329
101329
101330
101330
101330
101330
101331
101331
101332
101332
101333
101333
101334
101335
101335
101336
101337
101338
101339
101340
101341
101342
101344
101345
101346
101348
101350
101351
101353
101355
101358
101360
101363
101365
101369
101372
101376
101379
101383
101387
101392
101397
101403
101408
101414
101420
101428
101435
101444
101452
101462
101472
101484
101494
101508
101520
101536
101551
101569
101586
101607
101627
101652
101675
101705
101732
101767
101801
101843
101883
101935
101986
102050
102115
102197
102283
102390
102506
101326
101326
101326
101326
101327
101327
101327
101327
101327
101327
101327
101327
101327
101327
101327
101327
101328
101328
101328
101328
101328
101329
101329
101329
101329
101330
101330
101330
101331
101331
101332
101332
101333
101333
101334
101335
101335
101336
101337
101338
101339
101340
101341
101342
101343
101345
101346
101348
101350
101351
101353
101355
101358
101360
101363
101365
101369
101372
101375
101379
101383
101387
101392
101397
101402
101408
101414
101420
101428
101435
101444
101452
101462
101472
101483
101494
101508
101520
101536
101550
101568
101586
101606
101627
101651
101675
101703
101732
101765
101800
101839
101881
101929
101982
102040
102106
102180
102265
102360
102467
101326
101326
101326
101326
101327
101327
101327
101327
101327
101327
101327
101327
101327
101327
101327
101327
101328
101328
101328
101328
101328
101329
101329
101329
101329
101330
101330
101330
101331
101331
101332
101332
101333
101333
101334
101335
101335
101336
101337
101338
101339
101340
101341
101342
101343
101345
101346
101348
101350
101351
101353
101355
101358
101360
101363
101365
101369
101372
101375
101379
101383
101387
101392
101397
101402
101408
101414
101420
101428
101435
101444
101452
101462
101472
101483
101494
101508
101520
101536
101550
101568
101585
101606
101626
101651
101674
101703
101730
101764
101796
101837
101876
101924
101972
102031
102089
102161
102233
102321
102407
101326
101326
101326
101326
101327
101327
101327
101327
101327
101327
101327
101327
101327
101327
101327
101327
101328
101328
101328
101328
101328
101329
101329
101329
101329
101330
101330
101330
101331
101331
101332
101332
101333
101333
101334
101334
101335
101336
101337
101338
101339
101340
101341
101342
101343
101345
101346
101348
101349
101351
101353
101355
101358
101360
101363
101365
101368
101371
101375
101379
101383
101387
101392
101397
101402
101408
101414
101420
101428
101435
101444
101452
101462
101471
101483
101494
101507
101520
101535
101550
101568
101585
101605
101625
101649
101672
101701
101728
101760
101792
101831
101869
101915
101960
102014
102067
102131
102192
102261
102327
101326
101326
101326
101326
101327
101326
101327
101327
101327
101327
101327
101327
101327
101327
101327
101327
101328
101328
101328
101328
101328
101329
101329
101329
101329
101330
101330
101330
101331
101331
101332
101332
101333
101333
101334
101334
101335
101336
101337
101338
101339
101340
101341
101342
101343
101344
101346
101347
101349
101351
101353
101355
101357
101360
101362
101365
101368
101371
101375
101379
101383
101387
101392
101397
101402
101408
101414
101420
101428
101435
101443
101452
101462
101472
101483
101494
101507
101521
101535
101551
101567
101585