/*--------------------------------*- C++ -*----------------------------------*\
  =========                 |
  \\      /  F ield         | OpenFOAM: The Open Source CFD Toolbox
   \\    /   O peration     | Website:  https://openfoam.org
    \\  /    A nd           | Version:  8
     \\/     M anipulation  |
\*---------------------------------------------------------------------------*/
FoamFile
{
    version     2.0;
    format      ascii;
    class       surfaceScalarField;
    location    "1.500023";
    object      phi;
}
// * * * * * * * * * * * * * * * * * * * * * * * * * * * * * * * * * * * * * //

dimensions      [1 0 -1 0 0 0 0];

internalField   nonuniform List<scalar> 
13330
(
-0.1061
0.727843
-0.621743
0.227692
-0.214687
-0.119105
0.664099
-0.734348
0.297941
1.29788
-1.31348
0.679697
1.96855
-1.81539
1.14472
2.47035
-2.0833
1.58149
2.77753
-2.17445
1.86727
2.99805
-2.20332
1.9828
3.17483
-2.21267
2.03588
-2.2165
2.05636
3.33497
0.0219451
0.705898
0.510829
-0.70357
1.11047
-1.33399
1.76178
-1.96479
2.20481
-2.25842
2.46224
-2.34073
2.64931
-2.36151
2.80665
-2.36066
2.95056
-2.35658
-2.34309
3.07715
0.219371
0.486528
0.826776
-1.31098
1.47926
-1.98648
1.89907
-2.38461
2.13094
-2.49028
2.29855
-2.50834
2.44311
-2.50608
2.57138
-2.48893
2.69318
-2.47838
-2.45275
2.80284
0.430459
0.056069
1.09923
-1.97975
1.56842
-2.45566
1.79888
-2.61507
1.95181
-2.64321
2.08423
-2.64075
2.2061
-2.62794
2.31678
-2.59961
2.42179
-2.58339
-2.56027
2.5293
0.828775
-0.772706
1.28358
-2.43455
1.48629
-2.65838
1.63541
-2.76419
1.75095
-2.75876
1.86081
-2.75061
1.95653
-2.72367
2.04525
-2.68833
2.13862
-2.67675
-2.65629
2.23464
0.80301
-1.57572
1.06801
-2.69955
1.2474
-2.83776
1.38997
-2.90676
1.50043
-2.86921
1.60011
-2.8503
1.68388
-2.80743
1.77727
-2.78172
1.8726
-2.77208
-2.74783
1.96413
0.580433
-2.15615
0.88835
-3.00747
1.05921
-3.00862
1.19204
-3.03959
1.28213
-2.9593
1.36941
-2.93757
1.4524
-2.89043
1.52946
-2.85877
1.59579
-2.83841
-2.8185
1.66646
0.49823
-2.65438
0.699534
-3.20877
0.839727
-3.14881
0.956342
-3.1562
1.03807
-3.04103
1.11918
-3.01869
1.19568
-2.96693
1.27055
-2.93364
1.33891
-2.90677
-2.88329
1.4037
0.350488
-3.00487
0.542179
-3.40046
0.672152
-3.27879
0.758965
-3.24301
0.829689
-3.11175
0.886461
-3.07546
0.940071
-3.02054
0.99595
-2.98952
1.04637
-2.95718
-2.93046
1.09353
0.289606
-3.29447
0.411644
-3.5225
0.502405
-3.36955
0.563696
-3.30431
0.628851
-3.17691
0.676019
-3.12263
0.703588
-3.04811
0.733146
-3.01908
0.765836
-2.98987
0.797449
-2.96207
-0.104347
0.104347
-0.189295
0.0849483
-0.263645
0.0743502
-0.333061
0.0694152
-0.399401
0.0663403
-0.463691
0.0642906
-0.526201
0.0625098
-0.58646
0.060259
-0.643643
0.0571826
0.053911
-0.697554
-0.0960308
0.200378
-0.177164
0.166082
-0.246891
0.144077
-0.310593
0.133117
-0.370233
0.125981
-0.426622
0.12068
-0.479811
0.115698
-0.528995
0.109444
-0.572205
0.100392
0.0904219
-0.608716
-0.0867774
0.287156
-0.154262
0.233567
-0.212728
0.202543
-0.263485
0.183874
-0.308554
0.171051
-0.347936
0.160061
-0.380936
0.148699
-0.40594
0.134447
-0.41986
0.114313
0.0909267
-0.420365
-0.0711938
0.35835
-0.122425
0.284798
-0.163496
0.243613
-0.195416
0.215794
-0.218581
0.194216
-0.232708
0.174188
-0.236594
0.152586
-0.226201
0.124054
-0.194834
0.0829456
0.0310811
-0.134988
-0.0509298
0.40928
-0.0835301
0.317399
-0.103736
0.26382
-0.111732
0.22379
-0.105202
0.187686
-0.0829218
0.151908
-0.0430301
0.112694
0.0160836
0.0649401
0.108514
-0.00948445
-0.123656
0.26325
-0.0340203
0.4433
-0.0471109
0.33049
-0.0447462
0.261455
-0.0196966
0.198741
0.0316731
0.136316
0.106846
0.0767354
0.213828
0.00571146
0.361848
-0.0830799
0.568389
-0.216025
-0.428879
0.873612
-0.0232829
0.466583
-0.0225903
0.329797
0.00736863
0.231496
0.0793671
0.126742
0.188639
0.027044
0.346784
-0.0814091
0.581514
-0.229018
0.908199
-0.409765
1.29862
-0.606447
-0.906708
1.77645
-0.0269573
0.49354
-0.0139849
0.316825
0.0650886
0.152423
0.20489
-0.013059
0.414374
-0.18244
0.722645
-0.38968
1.15164
-0.658013
1.67896
-0.937086
2.27072
-1.19821
-1.45843
2.82244
-0.0464139
0.539954
-0.002006
0.272417
0.163104
-0.0126869
0.415066
-0.265021
0.789299
-0.556674
1.30392
-0.904296
1.93412
-1.28822
2.56713
-1.57009
3.11813
-1.74921
-1.84449
3.5042
-0.0817884
0.0715231
0.356777
0.771454
1.3595
2.0367
2.61574
3.02845
3.31513
3.527
-0.726568
0.0290144
-0.741534
0.0149662
-0.745117
0.00358246
-0.737023
-0.00809347
-0.718631
-0.0183927
-0.691226
-0.0274041
-0.655802
-0.0354243
-0.61319
-0.0426122
-0.564278
-0.0489119
-0.509467
-0.0548106
-0.449114
-0.0603539
-0.38352
-0.0655936
-0.312703
-0.070817
-0.237251
-0.0754515
-0.157395
-0.0798568
-0.0738197
-0.0835749
0.0140213
-0.0878411
0.105708
-0.0916871
0.20011
-0.0944018
0.296506
-0.0963957
0.393363
-0.0968576
0.489665
-0.0963018
0.584496
-0.0948304
0.677089
-0.0925931
0.766863
-0.0897744
0.853415
-0.0865524
0.936521
-0.083106
1.01606
-0.0795431
1.09205
-0.0759834
1.16456
-0.0725158
1.23376
-0.0691916
1.29984
-0.0660799
1.36307
-0.0632316
1.42376
-0.0606982
1.48226
-0.0584972
1.53884
-0.056574
1.5937
-0.0548682
1.64698
-0.0532717
1.69866
-0.0516846
1.74875
-0.0500881
1.7972
-0.048456
1.84395
-0.0467411
1.88888
-0.0449314
1.93191
-0.04303
1.97296
-0.0410523
2.01198
-0.0390236
2.04896
-0.0369801
2.08392
-0.0349542
2.11689
-0.0329741
2.14796
-0.0310685
2.17721
-0.0292543
2.20476
-0.0275492
2.23073
-0.0259622
2.25522
-0.0244989
2.27838
-0.0231605
2.30033
-0.0219433
2.32117
-0.0208386
2.34101
-0.019841
2.35995
-0.0189413
2.37808
-0.0181319
2.39548
-0.0174005
2.41222
-0.0167352
2.42834
-0.0161221
2.44389
-0.0155507
2.4589
-0.0150115
2.4734
-0.0144966
2.4874
-0.0139998
2.50091
-0.0135161
2.51396
-0.0130441
2.52654
-0.0125822
2.53867
-0.0121296
2.55036
-0.0116858
2.56161
-0.0112507
2.57243
-0.0108243
2.58284
-0.0104066
2.59284
-0.00999856
2.60244
-0.00960124
2.61165
-0.00921623
2.6205
-0.00884519
2.62899
-0.00848984
2.63714
-0.00815076
2.64497
-0.00782922
2.65249
-0.0075259
2.65973
-0.00724077
2.66671
-0.00697315
2.67343
-0.00672195
2.67992
-0.00648571
2.68618
-0.00626262
2.69223
-0.00605126
2.69808
-0.00584939
2.70374
-0.00565686
2.70921
-0.00546978
2.7145
-0.00529253
2.71961
-0.00511332
2.72456
-0.00495261
2.72933
-0.00476895
2.73397
-0.00463871
2.73839
-0.00442223
2.74277
-0.00437725
-0.00393622
-0.627425
0.0477231
-0.63527
0.0228114
-0.631709
2.09097e-05
-0.617616
-0.0221865
-0.593797
-0.042211
-0.561425
-0.0597758
-0.521712
-0.075138
-0.475774
-0.0885496
-0.424466
-0.10022
-0.367913
-0.111364
-0.306715
-0.121552
-0.241915
-0.130393
-0.174544
-0.138188
-0.10278
-0.147216
-0.0251248
-0.157512
0.0576321
-0.166332
0.144153
-0.174362
0.233503
-0.181037
0.325153
-0.186052
0.418161
-0.189403
0.511843
-0.19054
0.605166
-0.189626
0.697188
-0.186852
0.787114
-0.182519
0.874325
-0.176986
0.958369
-0.170596
1.039
-0.163736
1.11605
-0.156595
1.18951
-0.149439
1.25945
-0.142463
1.326
-0.135741
1.38937
-0.129445
1.44982
-0.123682
1.50768
-0.11856
1.56332
-0.114136
1.61704
-0.110298
1.66912
-0.106946
1.71969
-0.103846
1.76877
-0.100762
1.81636
-0.0976794
1.86246
-0.0945542
1.90699
-0.0912679
1.94984
-0.0877861
1.99092
-0.0841107
2.03014
-0.0802697
2.06743
-0.0763109
2.10276
-0.0723119
2.13614
-0.0683388
2.16762
-0.0644494
2.19726
-0.0607051
2.22514
-0.0571387
2.25138
-0.0537883
2.27609
-0.0506718
2.29939
-0.0478008
2.32141
-0.0451784
2.34226
-0.0427966
2.36206
-0.0406361
2.38091
-0.0386873
2.3989
-0.0369316
2.41612
-0.0353552
2.43265
-0.0339331
2.44856
-0.0326418
2.46389
-0.0314518
2.47868
-0.0303427
2.49296
-0.0292952
2.50676
-0.028294
2.52009
-0.0273263
2.53295
-0.0263822
2.54537
-0.0254605
2.55735
-0.0245577
2.56889
-0.0236723
2.58001
-0.0228037
2.59071
-0.0219518
2.601
-0.0211168
2.61089
-0.020299
2.62039
-0.0195004
2.62952
-0.0187234
2.63827
-0.0179715
2.64667
-0.0172475
2.65474
-0.0165551
2.66248
-0.015896
2.66993
-0.0152726
2.67709
-0.0146857
2.68398
-0.0141349
2.69063
-0.0136185
2.69704
-0.0131339
2.70323
-0.0126783
2.70922
-0.0122476
2.71501
-0.0118395
2.7206
-0.0114486
2.72602
-0.0110765
2.73127
-0.0107125
2.73634
-0.0103707
2.74125
-0.0100193
2.74601
-0.00971236
2.75059
-0.00934691
2.75505
-0.00910054
2.75929
-0.00865753
2.76343
-0.00852213
-0.00792682
-0.424185
0.0515431
-0.41831
0.0169361
-0.402167
-0.0161215
-0.377859
-0.0464949
-0.346126
-0.0739441
-0.308469
-0.0974322
-0.26611
-0.117497
-0.220962
-0.133698
-0.17044
-0.150742
-0.113376
-0.168429
-0.0517188
-0.183208
0.01438
-0.196492
0.0857379
-0.209546
0.161143
-0.22262
0.238429
-0.234798
0.318383
-0.246287
0.400894
-0.256873
0.485742
-0.265884
0.572416
-0.272726
0.6601
-0.277087
0.748045
-0.278484
0.835354
-0.276935
0.921172
-0.27267
1.00476
-0.266104
1.08553
-0.257763
1.16309
-0.248156
1.23728
-0.237928
1.30796
-0.227265
1.37515
-0.216631
1.43905
-0.206368
1.49985
-0.196536
1.55781
-0.187406
1.61319
-0.179067
1.6663
-0.171664
1.71747
-0.165311
1.76695
-0.159773
1.81495
-0.154948
1.86154
-0.150436
1.90662
-0.14584
1.95018
-0.141242
1.99225
-0.136623
2.03276
-0.131775
2.07162
-0.126645
2.10875
-0.121246
2.1441
-0.115618
2.17762
-0.109828
2.2093
-0.103998
2.23919
-0.0982238
2.26732
-0.0925845
2.29379
-0.0871761
2.31869
-0.0820346
2.34212
-0.0772206
2.3642
-0.072752
2.38505
-0.0686446
2.40477
-0.0649019
2.42348
-0.0615072
2.44127
-0.0584252
2.45823
-0.0556453
2.47443
-0.0531385
2.48997
-0.0508891
2.50489
-0.0488593
2.51927
-0.0470164
2.53313
-0.0453133
2.54651
-0.043723
2.55943
-0.0422166
2.57191
-0.040774
2.58396
-0.0393757
2.59559
-0.0380079
2.6068
-0.0366726
2.61761
-0.0353642
2.62801
-0.0340808
2.63803
-0.032822
2.64767
-0.0315876
2.65693
-0.0303785
2.66583
-0.0291949
2.67437
-0.028041
2.68256
-0.0269205
2.69043
-0.025839
2.69798
-0.0248002
2.70524
-0.0238099
2.71221
-0.0228697
2.71892
-0.0219833
2.72539
-0.0211513
2.73163
-0.0203721
2.73765
-0.0196429
2.74347
-0.0189589
2.74911
-0.0183159
2.75457
-0.0177069
2.75986
-0.0171299
2.76499
-0.0165747
2.76996
-0.0160471
2.77477
-0.0155271
2.77944
-0.0150424
2.78396
-0.014537
2.78835
-0.0141039
2.79258
-0.0135759
2.79671
-0.0132278
2.80065
-0.0125994
2.80451
-0.0123761
-0.0116096
-0.116794
0.0333483
-0.0956248
-0.00423273
-0.0689066
-0.0428397
-0.0368728
-0.0785286
0.000723106
-0.11154
0.0432725
-0.139982
0.0916111
-0.165836
0.14692
-0.189007
0.206701
-0.210524
0.267493
-0.22922
0.330637
-0.246353
0.39606
-0.261916
0.464242
-0.277728
0.535329
-0.293707
0.609101
-0.30857
0.684998
-0.322184
0.762643
-0.334518
0.841845
-0.345086
0.922152
-0.353034
1.00276
-0.357691
1.08284
-0.358564
1.16162
-0.355717
1.23839
-0.349443
1.3125
-0.340216
1.38352
-0.328784
1.4512
-0.315828
1.51564
-0.302369
1.57679
-0.288419
1.63484
-0.274681
1.69013
-0.26166
1.74286
-0.24926
1.79336
-0.237907
1.84187
-0.22758
1.88862
-0.218413
1.93393
-0.210617
1.97784
-0.203692
2.02053
-0.197629
2.06188
-0.191792
2.10161
-0.185573
2.13969
-0.17932
2.17622
-0.173146
2.21113
-0.166693
2.24439
-0.1599
2.27596
-0.152813
2.30583
-0.145489
2.33399
-0.137992
2.3605
-0.130505
2.38541
-0.123141
2.40881
-0.115984
2.43081
-0.109172
2.45149
-0.102717
2.47098
-0.0967117
2.48938
-0.0911537
2.5068
-0.086061
2.52334
-0.0814373
2.53908
-0.077249
2.55409
-0.0734362
2.56844
-0.069994
2.58218
-0.066881
2.59538
-0.0640874
2.60808
-0.0615631
2.62034
-0.059271
2.63216
-0.0571409
2.64359
-0.0551459
2.65462
-0.0532471
2.66527
-0.051424
2.67554
-0.0496498
2.68544
-0.0479082
2.69498
-0.0462106
2.70416
-0.044547
2.713
-0.0429154
2.72149
-0.0413156
2.72965
-0.0397479
2.73749
-0.0382141
2.74501
-0.0367144
2.75222
-0.0352563
2.75915
-0.0338448
2.7658
-0.0324882
2.77218
-0.0311899
2.77833
-0.0299583
2.78426
-0.0287927
2.78997
-0.0276988
2.7955
-0.0266761
2.80085
-0.025721
2.80603
-0.0248287
2.81106
-0.023992
2.81595
-0.0232055
2.82071
-0.0224583
2.82533
-0.0217498
2.82981
-0.021064
2.83418
-0.0204137
2.83842
-0.0197662
2.84255
-0.0191683
2.84654
-0.0185348
2.85044
-0.0180026
2.85421
-0.0173402
2.85789
-0.0169122
2.86144
-0.0161432
2.8649
-0.0158387
-0.0149491
0.304947
-0.00834837
0.345923
-0.045209
0.387125
-0.0840412
0.429919
-0.121323
0.47503
-0.15665
0.521995
-0.186947
0.572533
-0.216373
0.625836
-0.242309
0.681836
-0.266524
0.740039
-0.287423
0.800368
-0.306682
0.86206
-0.323608
0.925662
-0.34133
0.991575
-0.35962
1.05966
-0.376652
1.12922
-0.391745
1.19976
-0.405063
1.27113
-0.416452
1.34283
-0.424736
1.414
-0.428862
1.48384
-0.428396
1.55164
-0.423518
1.61681
-0.414619
1.67894
-0.402342
1.73787
-0.387718
1.79352
-0.371481
1.8464
-0.355246
1.89638
-0.338403
1.94377
-0.322067
1.98911
-0.306998
2.03255
-0.292705
2.07453
-0.279888
2.11523
-0.268277
2.15472
-0.257901
2.19332
-0.249214
2.23079
-0.241167
2.26728
-0.234116
2.3025
-0.227017
2.33589
-0.218961
2.36739
-0.21082
2.39729
-0.203046
2.42557
-0.194975
2.45219
-0.186515
2.4772
-0.17782
2.50065
-0.168946
2.52258
-0.159917
2.54308
-0.151003
2.56225
-0.142314
2.58018
-0.133919
2.59703
-0.126021
2.61287
-0.118558
2.62784
-0.111682
2.64202
-0.105334
2.6555
-0.0995353
2.66836
-0.0942993
2.68067
-0.0895632
2.69247
-0.0852283
2.70378
-0.0813088
2.71465
-0.0777462
2.72511
-0.074549
2.7352
-0.0716561
2.74497
-0.069035
2.7544
-0.0665775
2.76353
-0.0642692
2.77233
-0.0620564
2.78084
-0.0599268
2.78903
-0.0578431
2.79691
-0.0557883
2.80449
-0.0537943
2.81179
-0.0518392
2.81879
-0.0499214
2.82552
-0.0480416
2.83197
-0.046201
2.83816
-0.0444031
2.84409
-0.0426477
2.84979
-0.0409484
2.85525
-0.0393108
2.86051
-0.0377469
2.86558
-0.0362572
2.87047
-0.0348542
2.87521
-0.0335305
2.87981
-0.0322959
2.88428
-0.0311469
2.88864
-0.0300774
2.89289
-0.0290799
2.89704
-0.0281444
2.9011
-0.0272644
2.90506
-0.0264243
2.90894
-0.025627
2.91273
-0.0248485
2.91643
-0.0241125
2.92003
-0.0233703
2.92355
-0.0226929
2.92698
-0.021962
2.93034
-0.0213613
2.9336
-0.0206004
2.9368
-0.0201149
2.93992
-0.019261
2.94296
-0.018879
-0.0179368
0.908477
-0.0432138
0.946514
-0.0832462
0.985022
-0.122549
1.02333
-0.159627
1.06339
-0.19671
1.10259
-0.226148
1.14569
-0.259479
1.18978
-0.286396
1.23556
-0.312307
1.28331
-0.33517
1.33412
-0.357496
1.38679
-0.376278
1.44212
-0.396653
1.49993
-0.417435
1.55939
-0.436109
1.61983
-0.452184
1.68071
-0.465949
1.7418
-0.477541
1.80255
-0.485481
1.86206
-0.488371
1.91948
-0.485819
1.97422
-0.47826
2.02594
-0.466343
2.07445
-0.450848
2.11996
-0.433224
2.16238
-0.413907
2.20293
-0.395791
2.24106
-0.376533
2.27719
-0.358196
2.31212
-0.341933
2.3459
-0.326482
2.37904
-0.313026
2.41162
-0.300865
2.44344
-0.289713
2.47495
-0.280729
2.50539
-0.271606
2.5351
-0.263831
2.56366
-0.255572
2.59012
-0.245418
2.61416
-0.234866
2.63676
-0.225642
2.65789
-0.21611
2.67734
-0.205959
2.69533
-0.195812
2.71204
-0.185655
2.72746
-0.17534
2.74176
-0.165298
2.75504
-0.155601
2.7674
-0.146278
2.77903
-0.13765
2.78997
-0.129491
2.80037
-0.122085
2.81028
-0.115246
2.81976
-0.10901
2.82889
-0.10343
2.83771
-0.0983896
2.84622
-0.0937355
2.85443
-0.0895157
2.86233
-0.0856494
2.86996
-0.0821783
2.87734
-0.0790405
2.88453
-0.0762197
2.89149
-0.0735375
2.89824
-0.0710148
2.90475
-0.0685677
2.91103
-0.066213
2.91708
-0.0638918
2.92288
-0.0615893
2.92846
-0.0593758
2.93383
-0.0572016
2.93897
-0.0550671
2.94391
-0.0529749
2.94863
-0.0509274
2.95316
-0.0489323
2.9575
-0.0469877
2.96167
-0.0451187
2.96569
-0.043328
2.96958
-0.0416338
2.97335
-0.0400287
2.97703
-0.0385329
2.98062
-0.0371228
2.98414
-0.0358193
2.98761
-0.0346114
2.99102
-0.033491
2.99439
-0.0324469
2.99771
-0.0314666
3.00099
-0.0305426
3.00422
-0.0296545
3.0074
-0.0288102
3.01053
-0.0279766
3.01361
-0.0271917
3.01663
-0.0263886
3.0196
-0.0256652
3.02251
-0.0248708
3.02538
-0.0242309
3.02819
-0.0234137
3.03097
-0.0228903
3.03372
-0.022019
3.0364
-0.0215528
-0.020652
1.76444
-0.0312061
1.75826
-0.0770613
1.7589
-0.123189
1.76295
-0.163677
1.77333
-0.207095
1.78337
-0.236185
1.80268
-0.278788
1.82419
-0.307904
1.84902
-0.337141
1.87703
-0.363182
1.91171
-0.392176
1.94989
-0.414457
1.99246
-0.439225
2.03809
-0.463065
2.08597
-0.483988
2.13497
-0.501183
2.18412
-0.515094
2.23299
-0.526416
2.28094
-0.533428
2.32672
-0.534155
2.36951
-0.528605
2.40901
-0.517755
2.44535
-0.502686
2.4786
-0.484102
2.50957
-0.464188
2.53783
-0.442166
2.56583
-0.423795
2.59196
-0.402659
2.61678
-0.383019
2.64147
-0.36662
2.66575
-0.350768
2.69003
-0.3373
2.71455
-0.325382
2.73801
-0.313174
2.76206
-0.304785
2.78443
-0.293975
2.80651
-0.285914
2.82764
-0.276703
2.84655
-0.264322
2.86222
-0.250538
2.87703
-0.240452
2.89067
-0.229753
2.90262
-0.217906
2.91344
-0.206633
2.92348
-0.195694
2.93259
-0.184446
2.94097
-0.173682
2.94873
-0.163361
2.9559
-0.153452
2.96275
-0.144496
2.96921
-0.135955
2.97551
-0.12838
2.98158
-0.121317
2.98745
-0.114878
2.99324
-0.10922
2.99894
-0.104091
3.00451
-0.0993072
3.00991
-0.0949183
3.01513
-0.0908692
3.02016
-0.0872051
3.02505
-0.0839277
3.02986
-0.0810348
3.03454
-0.0782176
3.0391
-0.0755761
3.04349
-0.0729587
3.04774
-0.0704586
3.05182
-0.0679697
3.05571
-0.0654794
3.05946
-0.0631286
3.06307
-0.060809
3.06653
-0.0585311
3.06985
-0.0562976
3.07304
-0.0541127
3.0761
-0.0519918
3.07904
-0.0499293
3.08189
-0.04797
3.08467
-0.0461046
3.0874
-0.0443635
3.09009
-0.0427225
3.09277
-0.0412162
3.09544
-0.0397884
3.09811
-0.0384854
3.10077
-0.0372793
3.10345
-0.0361649
3.10613
-0.0351248
3.10881
-0.0341473
3.11149
-0.0332218
3.11416
-0.0323255
3.11682
-0.0314701
3.11946
-0.0306168
3.12208
-0.0298152
3.12468
-0.028985
3.12726
-0.0282452
3.12981
-0.027424
3.13235
-0.0267688
3.13488
-0.0259432
3.13738
-0.0253957
3.13995
-0.024588
3.14242
-0.0240199
-0.0232756
2.76723
0.0240066
2.70652
-0.0163575
2.6536
-0.0702643
2.60789
-0.11797
2.56994
-0.16914
2.5394
-0.205648
2.518
-0.257386
2.50686
-0.296771
2.50387
-0.334149
2.50315
-0.362466
2.5152
-0.404225
2.53159
-0.430847
2.55482
-0.462447
2.58182
-0.490065
2.61289
-0.515066
2.64601
-0.534296
2.67976
-0.54885
2.71284
-0.559498
2.74434
-0.564925
2.77271
-0.562525
2.79746
-0.553359
2.81899
-0.53928
2.83808
-0.521778
2.85509
-0.501107
2.87172
-0.480819
2.887
-0.45745
2.90223
-0.439024
2.91816
-0.418594
2.9336
-0.398458
2.95037
-0.383391
2.96748
-0.367875
2.98447
-0.354286
3.00248
-0.343393
3.01729
-0.327983
3.03381
-0.321308
3.04652
-0.306685
3.05957
-0.298966
3.07068
-0.287812
3.08146
-0.275097
3.08946
-0.258542
3.09621
-0.247201
3.10092
-0.234462
3.10522
-0.222208
3.10905
-0.21046
3.11343
-0.200073
3.11722
-0.188245
3.12083
-0.177282
3.12419
-0.166725
3.12739
-0.156648
3.13076
-0.14787
3.13406
-0.139255
3.13764
-0.131955
3.14119
-0.124872
3.14462
-0.118308
3.14824
-0.112842
3.1518
-0.10765
3.15537
-0.102871
3.15869
-0.0982423
3.16195
-0.0941328
3.16495
-0.0902017
3.16791
-0.0868925
3.17089
-0.0840154
3.17378
-0.0811036
3.17662
-0.0784167
3.17933
-0.0756693
3.18197
-0.0731004
3.18451
-0.0705015
3.18688
-0.0678587
3.18922
-0.0654614
3.19148
-0.0630699
3.19368
-0.0607312
3.19581
-0.058431
3.19788
-0.0561771
3.1999
-0.0540104
3.20187
-0.0519064
3.20385
-0.0499435
3.20582
-0.0480789
3.20783
-0.0463729
3.20987
-0.0447662
3.21199
-0.0433288
3.21413
-0.0419343
3.21633
-0.0406818
3.21856
-0.0395155
3.22085
-0.0384475
3.22317
-0.0374467
3.22553
-0.0365093
3.22792
-0.035614
3.23034
-0.0347433
3.23277
-0.0339042
3.23522
-0.0330644
3.23768
-0.0322704
3.24014
-0.0314488
3.24261
-0.0307138
3.24509
-0.0299061
3.24758
-0.0292522
3.2501
-0.0284657
3.25262
-0.027916
3.25523
-0.027201
3.25787
-0.0266621
-0.0260248
3.44712
0.081086
3.38786
0.0429025
3.32767
-0.0100818
3.27333
-0.0636212
3.22266
-0.118476
3.18299
-0.165981
3.14321
-0.2176
3.10898
-0.262541
3.08465
-0.309825
3.06505
-0.342863
3.04916
-0.388334
3.04101
-0.422702
3.03471
-0.456146
3.03033
-0.485679
3.02785
-0.512586
3.0276
-0.534049
3.02886
-0.550106
3.03038
-0.561026
3.03071
-0.565248
3.03133
-0.563146
3.03263
-0.55466
3.03513
-0.541779
3.03916
-0.525807
3.04463
-0.506579
3.05136
-0.48755
3.0602
-0.466288
3.06963
-0.448458
3.08064
-0.429604
3.09154
-0.409357
3.10332
-0.395174
3.11599
-0.380538
3.12826
-0.366557
3.14222
-0.357359
3.15441
-0.340172
3.1663
-0.333195
3.17666
-0.317049
3.18657
-0.308872
3.19373
-0.294971
3.20223
-0.283599
3.20974
-0.266048
3.21857
-0.256033
3.22384
-0.239731
3.22947
-0.227839
3.23408
-0.215075
3.24106
-0.207047
3.24652
-0.19371
3.25208
-0.182842
3.2571
-0.17175
3.26135
-0.160894
3.26548
-0.152
3.26873
-0.142507
3.27224
-0.135462
3.27533
-0.127966
3.27767
-0.120645
3.28036
-0.115529
3.28257
-0.109861
3.285
-0.105309
3.2868
-0.100037
3.28891
-0.0962487
3.29053
-0.0918194
3.29244
-0.0888032
3.29445
-0.0860217
3.29638
-0.083031
3.2983
-0.0803422
3.30011
-0.0774766
3.30198
-0.0749719
3.30383
-0.0723511
3.30553
-0.0695571
3.30737
-0.0672981
3.30918
-0.0648809
3.31101
-0.0625619
3.31283
-0.0602523
3.31464
-0.0579861
3.31647
-0.0558386
3.31829
-0.0537351
3.32017
-0.0518235
3.32209
-0.0499916
3.32408
-0.0483623
3.32611
-0.0468018
3.32825
-0.0454712
3.33043
-0.0441064
3.33267
-0.0429244
3.33497
-0.0418143
3.33735
-0.0408269
3.33979
-0.0398907
3.34231
-0.0390273
3.34488
-0.0381833
3.3475
-0.0373686
3.35016
-0.0365613
3.35286
-0.0357678
3.35559
-0.0349929
3.35836
-0.0342176
3.36114
-0.0334929
3.36397
-0.0327444
3.36682
-0.0320959
3.36975
-0.0314002
3.37269
-0.030856
3.37574
-0.0302537
3.37888
-0.0297962
-0.029287
3.48559
0.122489
3.44257
0.0859223
3.40028
0.0322075
3.35933
-0.0226659
3.31876
-0.0779037
3.28132
-0.128541
3.24394
-0.180227
3.20996
-0.228557
3.17709
-0.276959
3.15221
-0.317982
3.12335
-0.359466
3.09846
-0.397816
3.07508
-0.432769
3.0537
-0.464296
3.03303
-0.491919
3.01449
-0.5155
2.99784
-0.533465
2.98363
-0.546808
2.97151
-0.553127
2.96238
-0.554022
2.9563
-0.548574
2.95371
-0.539199
2.95488
-0.526978
2.95905
-0.510743
2.96579
-0.494295
2.9753
-0.475794
2.9853
-0.458462
2.99675
-0.441045
3.01088
-0.423486
3.02428
-0.408578
3.03812
-0.39438
3.05155
-0.379987
3.06363
-0.369438
3.07781
-0.354351
3.08988
-0.345265
3.10351
-0.330675
3.11638
-0.32175
3.12885
-0.307434
3.14068
-0.295431
3.1526
-0.277968
3.16468
-0.26812
3.17697
-0.252017
3.1895
-0.240368
3.20175
-0.22732
3.21407
-0.219372
3.22615
-0.205787
3.23813
-0.194826
3.25012
-0.18374
3.26195
-0.172727
3.2735
-0.163546
3.28468
-0.153685
3.29541
-0.146192
3.30561
-0.138172
3.31492
-0.129954
3.32349
-0.124094
3.3317
-0.118073
3.33946
-0.113064
3.34664
-0.107225
3.35349
-0.103096
3.36003
-0.0983572
3.36666
-0.0954378
3.37277
-0.0921233
3.37812
-0.0883859
3.38319
-0.0854116
3.38761
-0.0818971
3.39196
-0.0793228
3.39596
-0.0763463
3.3992
-0.0727977
3.40256
-0.0706644
3.40561
-0.0679265
3.40857
-0.0655234
3.4114
-0.0630819
3.41414
-0.0607275
3.41687
-0.0585638
3.41956
-0.0564329
3.42231
-0.0545648
3.42506
-0.0527448
3.42787
-0.0511774
3.4307
-0.049629
3.43363
-0.0484012
3.43651
-0.0469888
3.43949
-0.045898
3.44252
-0.0448526
3.44569
-0.0439927
3.44893
-0.043132
3.45229
-0.042382
3.4557
-0.0415988
3.4592
-0.04087
3.46273
-0.0400925
3.46634
-0.0393738
3.46996
-0.0386079
3.47365
-0.0379133
3.47734
-0.0371828
3.48113
-0.0365345
3.4849
-0.035868
3.48881
-0.0353087
3.4927
-0.0347431
3.49675
-0.0343041
3.50086
-0.0339087
-0.0336734
3.87925
0.133108
-3.88987
3.87017
0.0950052
3.85553
0.0468376
3.84058
-0.00771431
3.82423
-0.0615542
3.80813
-0.112436
3.79069
-0.162785
3.77232
-0.210194
3.75216
-0.256795
3.73225
-0.298075
3.71135
-0.338564
3.68969
-0.376159
3.66705
-0.410126
3.64381
-0.441055
3.61957
-0.467679
3.59464
-0.490576
3.56894
-0.507766
3.543
-0.520867
3.51705
-0.527174
3.49208
-0.529047
3.46843
-0.524924
3.44754
-0.518316
3.42898
-0.508412
3.41343
-0.495194
3.40028
-0.481146
3.38958
-0.465097
3.38096
-0.449842
3.37405
-0.434131
3.36933
-0.418774
3.3653
-0.404539
3.36216
-0.391245
3.35969
-0.377518
3.3573
-0.367044
3.35547
-0.352528
3.35423
-0.344026
3.35249
-0.328933
3.35154
-0.320797
3.35169
-0.30758
3.34874
-0.292484
3.35083
-0.280056
3.35103
-0.268322
3.35143
-0.252421
3.35122
-0.240154
3.35199
-0.228089
3.3525
-0.219885
3.35362
-0.206911
3.35529
-0.196489
3.3574
-0.185848
3.36016
-0.175492
3.36302
-0.1664
3.36647
-0.157144
3.36961
-0.149324
3.37277
-0.141338
3.37676
-0.133945
3.37999
-0.127324
3.38338
-0.121456
3.38602
-0.115709
3.38918
-0.110384
3.39154
-0.105458
3.39426
-0.101078
3.39594
-0.0971136
3.3974
-0.0935809
3.39858
-0.0895654
3.39948
-0.0863184
3.40017
-0.0825788
3.40054
-0.0797012
3.40069
-0.076487
3.40045
-0.0725675
3.40013
-0.0703436
3.39948
-0.0672698
3.3986
-0.0646425
3.39744
-0.0619232
3.396
-0.0592889
3.39438
-0.0569449
3.39247
-0.0545233
3.39039
-0.0524855
3.38804
-0.0503919
3.38549
-0.0486311
3.38264
-0.0467746
3.37983
-0.0455896
3.37652
-0.0436853
3.37316
-0.0425379
3.36956
-0.0412478
3.36592
-0.0403549
3.36213
-0.0393373
3.35831
-0.0385623
3.3544
-0.0376928
3.3505
-0.0369736
3.34656
-0.0361479
3.34268
-0.0354971
3.33878
-0.0347103
3.33501
-0.0341349
3.33122
-0.0333967
3.32759
-0.032908
3.32396
-0.0322305
3.32052
-0.0318708
3.31706
-0.0312808
3.31387
-0.0311186
3.31058
-0.0306178
-0.0306165
3.84847
0.143236
-3.8586
3.83918
0.104302
3.82802
0.057998
3.81608
0.00422533
3.80305
-0.0485287
3.78952
-0.0989065
3.77448
-0.147743
3.7583
-0.194011
3.74027
-0.238768
3.72195
-0.279758
3.70221
-0.318824
3.68107
-0.355018
3.65888
-0.387938
3.63546
-0.417631
3.61103
-0.443252
3.5856
-0.465147
3.55967
-0.481833
3.53339
-0.494589
3.50782
-0.501601
3.4841
-0.505327
3.46322
-0.504048
3.44427
-0.499367
3.42709
-0.491229
3.41253
-0.480629
3.40023
-0.468845
3.39039
-0.455261
3.3823
-0.441755
3.37586
-0.42769
3.37107
-0.413985
3.36699
-0.400457
3.36387
-0.388118
3.36135
-0.375002
3.35878
-0.364478
3.35726
-0.350999
3.35543
-0.3422
3.35381
-0.327313
3.35337
-0.320362
3.35318
-0.307387
3.35094
-0.290244
3.35155
-0.280665
3.35213
-0.268903
3.35435
-0.254639
3.35425
-0.24005
3.35525
-0.229093
3.35542
-0.22005
3.3571
-0.208593
3.35869
-0.198083
3.36101
-0.188164
3.36378
-0.17826
3.36689
-0.169517
3.37027
-0.160526
3.37369
-0.152736
3.37724
-0.144891
3.38103
-0.137739
3.38457
-0.130857
3.38806
-0.124947
3.39132
-0.118967
3.39462
-0.113688
3.39765
-0.108488
3.40061
-0.104039
3.4032
-0.0997073
3.40553
-0.095902
3.40786
-0.091903
3.40986
-0.0883196
3.41197
-0.0846895
3.41364
-0.0813624
3.41524
-0.0780883
3.41727
-0.0746009
3.41877
-0.0718383
3.42038
-0.0688892
3.4218
-0.0660609
3.42322
-0.0633381
3.42451
-0.060582
3.42571
-0.0581444
3.42676
-0.0555773
3.42767
-0.053389
3.42841
-0.0511346
3.42898
-0.0492043
3.42937
-0.0471574
3.42957
-0.0457922
3.42955
-0.0436698
3.42937
-0.0423572
3.42898
-0.0408519
3.42837
-0.0397452
3.42739
-0.0383624
3.42618
-0.0373499
3.42465
-0.0361638
3.42295
-0.0352754
3.42104
-0.034231
3.41903
-0.0334889
3.41685
-0.0325354
3.41464
-0.0319225
3.41229
-0.031051
3.40993
-0.0305433
3.40746
-0.0297577
3.40497
-0.0293808
3.4024
-0.0287174
3.39974
-0.0284525
3.39715
-0.0280314
-0.0283214
3.81875
0.152124
-3.82764
3.81032
0.112728
3.80096
0.0673564
3.79061
0.0145791
3.77892
-0.0368415
3.76623
-0.0862147
3.75208
-0.133594
3.73674
-0.17867
3.71985
-0.221878
3.70214
-0.262042
3.68319
-0.29988
3.66315
-0.334972
3.64218
-0.366971
3.62026
-0.395709
3.59763
-0.420626
3.57444
-0.441958
3.55112
-0.458509
3.5281
-0.471571
3.50585
-0.479348
3.48495
-0.484433
3.46587
-0.484959
3.44821
-0.481711
3.4324
-0.47542
3.41873
-0.466963
3.4068
-0.456909
3.39715
-0.445614
3.38912
-0.433721
3.38276
-0.42133
3.37787
-0.409101
3.3739
-0.396485
3.37107
-0.385292
3.3686
-0.37253
3.36664
-0.362517
3.36536
-0.34972
3.36356
-0.340402
3.36322
-0.326964
3.36255
-0.319693
3.36207
-0.306913
3.36211
-0.290278
3.36237
-0.280931
3.3631
-0.269627
3.36396
-0.255502
3.3647
-0.240787
3.36611
-0.23051
3.36617
-0.220109
3.36737
-0.209795
3.36887
-0.199583
3.37084
-0.190133
3.37329
-0.180711
3.37594
-0.172165
3.37889
-0.163475
3.38192
-0.155766
3.385
-0.147968
3.38822
-0.140965
3.39137
-0.134
3.39444
-0.128017
3.39737
-0.121898
3.40026
-0.116584
3.403
-0.111222
3.40562
-0.106659
3.40797
-0.102057
3.41012
-0.0980571
3.41212
-0.0939052
3.41399
-0.090186
3.41574
-0.0864421
3.41734
-0.0829634
3.41888
-0.0796252
3.42053
-0.0762471
3.42191
-0.07322
3.42332
-0.0702958
3.42464
-0.0673847
3.42595
-0.0646478
3.42722
-0.0618535
3.4284
-0.0593275
3.42954
-0.0567113
3.43054
-0.0543923
3.43144
-0.0520368
3.43222
-0.0499826
3.43294
-0.047879
3.43337
-0.0462164
3.43397
-0.0442716
3.43443
-0.0428189
3.43487
-0.0412886
3.43519
-0.0400712
3.43553
-0.0386977
3.43582
-0.0376433
3.4361
-0.0364456
3.43638
-0.0355476
3.43662
-0.034479
3.43688
-0.033743
3.43711
-0.032764
3.43735
-0.0321695
3.43758
-0.0312745
3.4378
-0.0307642
3.43799
-0.0299542
3.43818
-0.0295621
3.43834
-0.0288824
3.43845
-0.0285669
3.4385
-0.0280738
-0.028158
3.79436
0.159855
-3.80209
3.78717
0.119912
3.77836
0.0761691
3.76829
0.0246478
3.75708
-0.0256319
3.74499
-0.0741209
3.73167
-0.120271
3.71721
-0.164216
3.70144
-0.20611
3.6848
-0.245396
3.6672
-0.282283
3.64868
-0.316457
3.62937
-0.347652
3.6093
-0.375642
3.58867
-0.399995
3.5676
-0.420887
3.54663
-0.437545
3.52583
-0.450772
3.50617
-0.45968
3.48701
-0.465273
3.46905
-0.467001
3.45273
-0.465389
3.43812
-0.460814
3.42556
-0.454405
3.41472
-0.44607
3.40582
-0.436715
3.39818
-0.426074
3.39218
-0.415334
3.38713
-0.404048
3.3832
-0.392555
3.37969
-0.381789
3.3771
-0.369934
3.37442
-0.359842
3.37266
-0.347959
3.37049
-0.338236
3.36987
-0.326343
3.36773
-0.317552
3.36628
-0.305459
3.36619
-0.290189
3.36786
-0.282598
3.36753
-0.269301
3.36727
-0.255247
3.36729
-0.240804
3.3688
-0.232021
3.3696
-0.220906
3.37096
-0.211153
3.37276
-0.201382
3.37483
-0.19221
3.37729
-0.183168
3.37991
-0.174785
3.38278
-0.166347
3.38568
-0.158661
3.38863
-0.150922
3.39161
-0.143941
3.39453
-0.136923
3.39732
-0.130811
3.40002
-0.12459
3.4026
-0.119164
3.40505
-0.113675
3.40734
-0.108953
3.40947
-0.10418
3.41141
-0.100003
3.41325
-0.0957391
3.41495
-0.0918858
3.41655
-0.0880501
3.41805
-0.0844632
3.41944
-0.0810145
3.42083
-0.0776333
3.42209
-0.0744782
3.42329
-0.0714935
3.42442
-0.0685217
3.42552
-0.0657442
3.42658
-0.0629176
3.4276
-0.060341
3.42858
-0.0576926
3.4295
-0.05531
3.43036
-0.0529047
3.43115
-0.0507696
3.43189
-0.0486178
3.43251
-0.0468367
3.43316
-0.0449205
3.4337
-0.0433636
3.43421
-0.0417989
3.43467
-0.0405267
3.43514
-0.0391713
3.4356
-0.0380992
3.43608
-0.0369258
3.43655
-0.0360206
3.43705
-0.0349782
3.43755
-0.0342411
3.43808
-0.0332948
3.43862
-0.0327119
3.43921
-0.0318634
3.43981
-0.0313611
3.44046
-0.0306074
3.44114
-0.0302375
3.44186
-0.029611
3.44263
-0.0293371
3.44338