/*--------------------------------*- C++ -*----------------------------------*\
  =========                 |
  \\      /  F ield         | OpenFOAM: The Open Source CFD Toolbox
   \\    /   O peration     | Website:  https://openfoam.org
    \\  /    A nd           | Version:  8
     \\/     M anipulation  |
\*---------------------------------------------------------------------------*/
FoamFile
{
    version     2.0;
    format      ascii;
    class       volScalarField;
    location    "1.500023";
    object      r_crit;
}
// * * * * * * * * * * * * * * * * * * * * * * * * * * * * * * * * * * * * * //

dimensions      [0 1 0 0 0 0 0];

internalField   nonuniform List<scalar> 
6800
(
1.06e-09
1.06133e-09
1.06087e-09
1.05828e-09
1.05249e-09
1.04067e-09
1.02791e-09
1.02219e-09
1.02018e-09
1.01974e-09
1.06058e-09
1.06148e-09
1.0585e-09
1.0509e-09
1.03526e-09
1.02392e-09
1.02011e-09
1.01888e-09
1.01885e-09
1.0193e-09
1.05992e-09
1.05809e-09
1.05079e-09
1.03458e-09
1.02333e-09
1.01956e-09
1.01824e-09
1.01828e-09
1.01916e-09
1.02048e-09
1.05945e-09
1.04744e-09
1.03963e-09
1.02372e-09
1.01845e-09
1.01721e-09
1.01772e-09
1.0186e-09
1.01973e-09
1.0207e-09
1.05537e-09
1.03757e-09
1.02771e-09
1.01891e-09
1.01703e-09
1.01708e-09
1.01772e-09
1.01881e-09
1.01996e-09
1.02099e-09
1.05757e-09
1.02738e-09
1.02455e-09
1.01752e-09
1.01671e-09
1.01698e-09
1.0185e-09
1.01997e-09
1.02101e-09
1.02134e-09
1.05387e-09
1.02488e-09
1.01944e-09
1.01479e-09
1.01593e-09
1.01721e-09
1.01915e-09
1.02013e-09
1.02041e-09
1.02007e-09
1.04129e-09
1.01363e-09
1.01561e-09
1.0138e-09
1.01595e-09
1.01736e-09
1.01924e-09
1.01978e-09
1.01977e-09
1.01976e-09
1.03222e-09
1.0105e-09
1.01251e-09
1.01331e-09
1.01517e-09
1.01669e-09
1.01877e-09
1.01964e-09
1.01985e-09
1.0196e-09
1.01975e-09
1.00388e-09
1.00851e-09
1.01288e-09
1.01587e-09
1.01655e-09
1.01773e-09
1.01825e-09
1.01907e-09
1.01942e-09
1.06029e-09
1.06051e-09
1.06074e-09
1.06078e-09
1.06074e-09
1.06066e-09
1.06056e-09
1.06044e-09
1.06031e-09
1.06019e-09
1.06028e-09
1.06053e-09
1.06073e-09
1.06078e-09
1.06075e-09
1.06067e-09
1.06057e-09
1.06044e-09
1.06031e-09
1.06017e-09
1.06025e-09
1.06054e-09
1.06073e-09
1.06078e-09
1.06075e-09
1.06068e-09
1.06058e-09
1.06045e-09
1.06029e-09
1.06012e-09
1.0602e-09
1.06054e-09
1.06072e-09
1.06077e-09
1.06076e-09
1.0607e-09
1.06061e-09
1.0605e-09
1.06036e-09
1.06014e-09
1.06016e-09
1.06055e-09
1.06072e-09
1.06077e-09
1.06077e-09
1.06072e-09
1.06065e-09
1.06058e-09
1.06049e-09
1.06034e-09
1.0602e-09
1.06057e-09
1.06074e-09
1.06079e-09
1.06076e-09
1.06069e-09
1.06059e-09
1.06053e-09
1.06055e-09
1.06053e-09
1.06024e-09
1.06062e-09
1.06078e-09
1.06077e-09
1.06068e-09
1.06052e-09
1.06026e-09
1.05992e-09
1.05963e-09
1.05848e-09
1.06026e-09
1.06069e-09
1.06081e-09
1.06074e-09
1.06058e-09
1.0602e-09
1.05945e-09
1.05793e-09
1.05596e-09
1.04979e-09
1.06036e-09
1.06081e-09
1.06092e-09
1.06083e-09
1.06034e-09
1.05883e-09
1.0563e-09
1.05101e-09
1.04565e-09
1.03282e-09
1.05997e-09
1.06102e-09
1.06136e-09
1.06059e-09
1.05857e-09
1.05393e-09
1.04676e-09
1.03529e-09
1.0267e-09
1.02185e-09
1.06004e-09
1.05987e-09
1.05971e-09
1.0596e-09
1.05952e-09
1.05946e-09
1.05944e-09
1.05945e-09
1.05948e-09
1.05954e-09
1.05962e-09
1.05971e-09
1.05982e-09
1.05994e-09
1.06006e-09
1.06017e-09
1.06027e-09
1.06037e-09
1.06044e-09
1.06049e-09
1.06052e-09
1.06051e-09
1.06048e-09
1.06042e-09
1.06033e-09
1.06021e-09
1.06005e-09
1.05985e-09
1.05962e-09
1.05937e-09
1.05908e-09
1.05875e-09
1.05838e-09
1.05797e-09
1.05751e-09
1.05702e-09
1.05649e-09
1.05594e-09
1.05537e-09
1.0548e-09
1.05422e-09
1.05366e-09
1.05312e-09
1.05262e-09
1.05215e-09
1.05173e-09
1.05135e-09
1.05102e-09
1.05073e-09
1.05048e-09
1.05027e-09
1.05009e-09
1.04994e-09
1.04982e-09
1.04972e-09
1.04963e-09
1.04955e-09
1.04947e-09
1.04939e-09
1.0493e-09
1.04921e-09
1.0491e-09
1.04898e-09
1.04885e-09
1.04871e-09
1.04855e-09
1.04838e-09
1.04819e-09
1.048e-09
1.0478e-09
1.0476e-09
1.04739e-09
1.04717e-09
1.04696e-09
1.04674e-09
1.04653e-09
1.04632e-09
1.04612e-09
1.04592e-09
1.04573e-09
1.04554e-09
1.04536e-09
1.04519e-09
1.04502e-09
1.04485e-09
1.04469e-09
1.04454e-09
1.04439e-09
1.04425e-09
1.04412e-09
1.04399e-09
1.04386e-09
1.04374e-09
1.04364e-09
1.04353e-09
1.04344e-09
1.04333e-09
1.04326e-09
1.04316e-09
1.04306e-09
1.05999e-09
1.05978e-09
1.0596e-09
1.05946e-09
1.05936e-09
1.05929e-09
1.05926e-09
1.05925e-09
1.05927e-09
1.05933e-09
1.0594e-09
1.0595e-09
1.0596e-09
1.05973e-09
1.05986e-09
1.06e-09
1.06013e-09
1.06026e-09
1.06037e-09
1.06047e-09
1.06055e-09
1.0606e-09
1.06062e-09
1.06061e-09
1.06056e-09
1.06046e-09
1.06032e-09
1.06014e-09
1.05993e-09
1.05968e-09
1.05938e-09
1.05904e-09
1.05866e-09
1.05823e-09
1.05774e-09
1.05722e-09
1.05667e-09
1.0561e-09
1.05552e-09
1.05494e-09
1.05437e-09
1.05382e-09
1.0533e-09
1.05283e-09
1.05239e-09
1.05199e-09
1.05163e-09
1.05132e-09
1.05104e-09
1.0508e-09
1.0506e-09
1.05043e-09
1.05028e-09
1.05016e-09
1.05005e-09
1.04995e-09
1.04986e-09
1.04977e-09
1.04967e-09
1.04957e-09
1.04946e-09
1.04934e-09
1.0492e-09
1.04906e-09
1.0489e-09
1.04873e-09
1.04854e-09
1.04835e-09
1.04815e-09
1.04795e-09
1.04774e-09
1.04752e-09
1.0473e-09
1.04708e-09
1.04687e-09
1.04666e-09
1.04645e-09
1.04624e-09
1.04605e-09
1.04585e-09
1.04567e-09
1.04549e-09
1.04531e-09
1.04514e-09
1.04498e-09
1.04482e-09
1.04466e-09
1.04452e-09
1.04437e-09
1.04424e-09
1.04411e-09
1.04399e-09
1.04387e-09
1.04376e-09
1.04365e-09
1.04356e-09
1.04346e-09
1.04338e-09
1.04329e-09
1.04319e-09
1.05992e-09
1.05964e-09
1.05942e-09
1.05924e-09
1.0591e-09
1.05901e-09
1.05895e-09
1.05893e-09
1.05894e-09
1.05897e-09
1.05903e-09
1.05911e-09
1.05921e-09
1.05933e-09
1.05947e-09
1.05963e-09
1.0598e-09
1.05999e-09
1.06018e-09
1.06037e-09
1.06054e-09
1.06069e-09
1.06081e-09
1.06088e-09
1.06091e-09
1.06088e-09
1.06079e-09
1.06065e-09
1.06046e-09
1.06022e-09
1.05992e-09
1.05957e-09
1.05915e-09
1.05867e-09
1.05814e-09
1.05756e-09
1.05697e-09
1.05638e-09
1.05579e-09
1.05521e-09
1.05467e-09
1.05415e-09
1.05367e-09
1.05324e-09
1.05284e-09
1.05247e-09
1.05215e-09
1.05186e-09
1.0516e-09
1.05138e-09
1.05118e-09
1.051e-09
1.05085e-09
1.05072e-09
1.05059e-09
1.05047e-09
1.05035e-09
1.05024e-09
1.05012e-09
1.04999e-09
1.04985e-09
1.0497e-09
1.04955e-09
1.04938e-09
1.0492e-09
1.04902e-09
1.04882e-09
1.04862e-09
1.04841e-09
1.0482e-09
1.04798e-09
1.04776e-09
1.04754e-09
1.04732e-09
1.0471e-09
1.04689e-09
1.04668e-09
1.04648e-09
1.04628e-09
1.04609e-09
1.0459e-09
1.04572e-09
1.04555e-09
1.04537e-09
1.04521e-09
1.04505e-09
1.04489e-09
1.04475e-09
1.0446e-09
1.04447e-09
1.04434e-09
1.04422e-09
1.0441e-09
1.044e-09
1.04389e-09
1.0438e-09
1.04369e-09
1.04361e-09
1.04353e-09
1.04342e-09
1.0599e-09
1.05951e-09
1.05923e-09
1.05901e-09
1.05884e-09
1.05871e-09
1.05863e-09
1.05858e-09
1.05856e-09
1.05856e-09
1.05859e-09
1.05864e-09
1.05872e-09
1.05882e-09
1.05896e-09
1.05913e-09
1.05934e-09
1.05958e-09
1.05985e-09
1.06014e-09
1.06043e-09
1.06071e-09
1.06095e-09
1.06114e-09
1.06126e-09
1.0613e-09
1.06126e-09
1.06115e-09
1.06099e-09
1.06075e-09
1.06043e-09
1.06003e-09
1.05955e-09
1.05901e-09
1.05842e-09
1.05778e-09
1.05716e-09
1.05655e-09
1.05597e-09
1.05543e-09
1.05492e-09
1.05446e-09
1.05405e-09
1.05367e-09
1.05333e-09
1.05302e-09
1.05274e-09
1.05247e-09
1.05224e-09
1.05202e-09
1.05183e-09
1.05165e-09
1.05148e-09
1.05132e-09
1.05117e-09
1.05102e-09
1.05087e-09
1.05072e-09
1.05057e-09
1.0504e-09
1.05024e-09
1.05006e-09
1.04988e-09
1.0497e-09
1.0495e-09
1.0493e-09
1.0491e-09
1.04888e-09
1.04867e-09
1.04845e-09
1.04823e-09
1.04801e-09
1.04779e-09
1.04757e-09
1.04736e-09
1.04715e-09
1.04695e-09
1.04675e-09
1.04655e-09
1.04636e-09
1.04618e-09
1.04599e-09
1.04582e-09
1.04565e-09
1.04548e-09
1.04532e-09
1.04516e-09
1.04502e-09
1.04488e-09
1.04474e-09
1.04461e-09
1.04449e-09
1.04438e-09
1.04427e-09
1.04417e-09
1.04408e-09
1.04398e-09
1.0439e-09
1.04382e-09
1.04371e-09
1.05996e-09
1.05939e-09
1.05902e-09
1.05875e-09
1.05855e-09
1.0584e-09
1.05831e-09
1.05825e-09
1.05821e-09
1.05818e-09
1.05816e-09
1.05816e-09
1.05818e-09
1.05823e-09
1.05833e-09
1.05848e-09
1.05869e-09
1.05897e-09
1.05932e-09
1.0597e-09
1.06011e-09
1.06052e-09
1.06089e-09
1.06119e-09
1.06139e-09
1.06146e-09
1.06142e-09
1.06132e-09
1.06118e-09
1.06092e-09
1.06055e-09
1.06009e-09
1.05954e-09
1.05891e-09
1.05825e-09
1.05756e-09
1.0569e-09
1.05631e-09
1.05578e-09
1.05529e-09
1.05486e-09
1.05449e-09
1.05415e-09
1.05385e-09
1.05357e-09
1.05332e-09
1.05308e-09
1.05285e-09
1.05263e-09
1.05243e-09
1.05224e-09
1.05205e-09
1.05187e-09
1.05169e-09
1.05151e-09
1.05133e-09
1.05115e-09
1.05097e-09
1.05078e-09
1.05059e-09
1.0504e-09
1.0502e-09
1.05e-09
1.0498e-09
1.0496e-09
1.04939e-09
1.04919e-09
1.04897e-09
1.04876e-09
1.04855e-09
1.04833e-09
1.04812e-09
1.0479e-09
1.0477e-09
1.04749e-09
1.04729e-09
1.0471e-09
1.04691e-09
1.04672e-09
1.04654e-09
1.04636e-09
1.04618e-09
1.04601e-09
1.04584e-09
1.04568e-09
1.04552e-09
1.04537e-09
1.04523e-09
1.04509e-09
1.04496e-09
1.04484e-09
1.04473e-09
1.04462e-09
1.04452e-09
1.04442e-09
1.04433e-09
1.04424e-09
1.04415e-09
1.04409e-09
1.04396e-09
1.05977e-09
1.05902e-09
1.05855e-09
1.05825e-09
1.05805e-09
1.05791e-09
1.05785e-09
1.05778e-09
1.05771e-09
1.05764e-09
1.05756e-09
1.05748e-09
1.0574e-09
1.05736e-09
1.05737e-09
1.05747e-09
1.05766e-09
1.05797e-09
1.05838e-09
1.05886e-09
1.05937e-09
1.05986e-09
1.06028e-09
1.0606e-09
1.06079e-09
1.06078e-09
1.06071e-09
1.06056e-09
1.06041e-09
1.06009e-09
1.05966e-09
1.05911e-09
1.05846e-09
1.05775e-09
1.05702e-09
1.05631e-09
1.05566e-09
1.05515e-09
1.05471e-09
1.05433e-09
1.05402e-09
1.05376e-09
1.05354e-09
1.05334e-09
1.05315e-09
1.05296e-09
1.05278e-09
1.05259e-09
1.05241e-09
1.05222e-09
1.05203e-09
1.05185e-09
1.05165e-09
1.05145e-09
1.05126e-09
1.05105e-09
1.05085e-09
1.05065e-09
1.05044e-09
1.05024e-09
1.05003e-09
1.04983e-09
1.04964e-09
1.04944e-09
1.04924e-09
1.04905e-09
1.04886e-09
1.04866e-09
1.04846e-09
1.04827e-09
1.04807e-09
1.04788e-09
1.04769e-09
1.0475e-09
1.04732e-09
1.04715e-09
1.04697e-09
1.0468e-09
1.04663e-09
1.04647e-09
1.0463e-09
1.04614e-09
1.04598e-09
1.04582e-09
1.04567e-09
1.04552e-09
1.04538e-09
1.04525e-09
1.04512e-09
1.04501e-09
1.04489e-09
1.04479e-09
1.04469e-09
1.0446e-09
1.04451e-09
1.04443e-09
1.04435e-09
1.04428e-09
1.04422e-09
1.04409e-09
1.05759e-09
1.05722e-09
1.05683e-09
1.05676e-09
1.05661e-09
1.05659e-09
1.05662e-09
1.05646e-09
1.05635e-09
1.05623e-09
1.05605e-09
1.0559e-09
1.05569e-09
1.0555e-09
1.0554e-09
1.05539e-09
1.05552e-09
1.05579e-09
1.05621e-09
1.0567e-09
1.05721e-09
1.05769e-09
1.05802e-09
1.05822e-09
1.05827e-09
1.05812e-09
1.05802e-09
1.05779e-09
1.05755e-09
1.05714e-09
1.05661e-09
1.05597e-09
1.05527e-09
1.05454e-09
1.05383e-09
1.05319e-09
1.05262e-09
1.05229e-09
1.05205e-09
1.05183e-09
1.0517e-09
1.05162e-09
1.05155e-09
1.05146e-09
1.05138e-09
1.05128e-09
1.05117e-09
1.05105e-09
1.05092e-09
1.05078e-09
1.05062e-09
1.05045e-09
1.05027e-09
1.05009e-09
1.0499e-09
1.04971e-09
1.04952e-09
1.04933e-09
1.04914e-09
1.04894e-09
1.04876e-09
1.04858e-09
1.04842e-09
1.04825e-09
1.0481e-09
1.04794e-09
1.04779e-09
1.04764e-09
1.04748e-09
1.04733e-09
1.04718e-09
1.04703e-09
1.04688e-09
1.04674e-09
1.0466e-09
1.04647e-09
1.04633e-09
1.0462e-09
1.04606e-09
1.04592e-09
1.04579e-09
1.04565e-09
1.04552e-09
1.04538e-09
1.04526e-09
1.04513e-09
1.04502e-09
1.04491e-09
1.0448e-09
1.04471e-09
1.04462e-09
1.04453e-09
1.04445e-09
1.04438e-09
1.04431e-09
1.04425e-09
1.04418e-09
1.04412e-09
1.04408e-09
1.04395e-09
1.0501e-09
1.05076e-09
1.05141e-09
1.05179e-09
1.05218e-09
1.05243e-09
1.0524e-09
1.0524e-09
1.05234e-09
1.05229e-09
1.05185e-09
1.05187e-09
1.05157e-09
1.05111e-09
1.05077e-09
1.05053e-09
1.05047e-09
1.05056e-09
1.05081e-09
1.05113e-09
1.05143e-09
1.05174e-09
1.05163e-09
1.0515e-09
1.05134e-09
1.05128e-09
1.05106e-09
1.05077e-09
1.05028e-09
1.04978e-09
1.04915e-09
1.04848e-09
1.04785e-09
1.04734e-09
1.04685e-09
1.04658e-09
1.04637e-09
1.0464e-09
1.0465e-09
1.04659e-09
1.04676e-09
1.047e-09
1.0471e-09
1.04716e-09
1.04719e-09
1.04724e-09
1.04724e-09
1.04727e-09
1.04727e-09
1.04725e-09
1.04721e-09
1.04713e-09
1.04702e-09
1.04691e-09
1.0468e-09
1.04669e-09
1.0466e-09
1.04647e-09
1.04636e-09
1.04621e-09
1.04609e-09
1.04598e-09
1.04588e-09
1.04579e-09
1.04572e-09
1.04565e-09
1.04558e-09
1.04551e-09
1.04544e-09
1.04536e-09
1.04529e-09
1.04522e-09
1.04515e-09
1.04508e-09
1.04501e-09
1.04495e-09
1.04488e-09
1.0448e-09
1.04472e-09
1.04464e-09
1.04456e-09
1.04447e-09
1.04439e-09
1.0443e-09
1.04421e-09
1.04413e-09
1.04406e-09
1.04398e-09
1.04392e-09
1.04386e-09
1.0438e-09
1.04375e-09
1.0437e-09
1.04366e-09
1.04362e-09
1.04357e-09
1.04354e-09
1.04349e-09
1.04347e-09
1.04337e-09
1.03376e-09
1.03523e-09
1.0367e-09
1.03784e-09
1.03879e-09
1.0397e-09
1.04028e-09
1.04072e-09
1.04094e-09
1.04084e-09
1.0406e-09
1.04081e-09
1.04044e-09
1.04014e-09
1.03969e-09
1.0392e-09
1.03866e-09
1.03826e-09
1.03804e-09
1.03791e-09
1.03769e-09
1.03751e-09
1.03741e-09
1.03717e-09
1.03714e-09
1.03701e-09
1.03675e-09
1.03652e-09
1.03606e-09
1.03558e-09
1.03525e-09
1.03465e-09
1.03457e-09
1.03439e-09
1.03428e-09
1.0346e-09
1.03513e-09
1.03566e-09
1.0362e-09
1.03669e-09
1.03714e-09
1.03772e-09
1.0381e-09
1.03848e-09
1.03875e-09
1.03905e-09
1.03936e-09
1.03961e-09
1.03991e-09
1.04026e-09
1.04072e-09
1.04089e-09
1.04099e-09
1.04102e-09
1.04113e-09
1.04124e-09
1.04152e-09
1.04159e-09
1.04164e-09
1.04149e-09
1.04153e-09
1.04144e-09
1.04142e-09
1.04145e-09
1.04152e-09
1.04159e-09
1.04166e-09
1.04173e-09
1.04179e-09
1.04186e-09
1.04191e-09
1.04197e-09
1.04203e-09
1.04208e-09
1.04213e-09
1.04217e-09
1.04221e-09
1.04224e-09
1.04226e-09
1.04228e-09
1.04229e-09
1.04229e-09
1.04228e-09
1.04227e-09
1.04225e-09
1.04224e-09
1.04223e-09
1.04222e-09
1.04221e-09
1.0422e-09
1.0422e-09
1.04219e-09
1.04219e-09
1.04219e-09
1.04219e-09
1.04219e-09
1.04218e-09
1.04217e-09
1.04217e-09
1.04215e-09
1.02257e-09
1.02348e-09
1.02447e-09
1.02529e-09
1.02592e-09
1.02647e-09
1.02682e-09
1.027e-09
1.02712e-09
1.02709e-09
1.02705e-09
1.02702e-09
1.02699e-09
1.02714e-09
1.02735e-09
1.02774e-09
1.02826e-09
1.02882e-09
1.02945e-09
1.02993e-09
1.03042e-09
1.0306e-09
1.03077e-09
1.03098e-09
1.03103e-09
1.03082e-09
1.03082e-09
1.03071e-09
1.03046e-09
1.02999e-09
1.02971e-09
1.02948e-09
1.0294e-09
1.02936e-09
1.02952e-09
1.02997e-09
1.03044e-09
1.03097e-09
1.03151e-09
1.03169e-09
1.0321e-09
1.03227e-09
1.03229e-09
1.03239e-09
1.03246e-09
1.0325e-09
1.03254e-09
1.03256e-09
1.03258e-09
1.03257e-09
1.03258e-09
1.03251e-09
1.0326e-09
1.03255e-09
1.0328e-09
1.03287e-09
1.03295e-09
1.03318e-09
1.03346e-09
1.03359e-09
1.03354e-09
1.03362e-09
1.03384e-09
1.03412e-09
1.03444e-09
1.03477e-09
1.0351e-09
1.03543e-09
1.03575e-09
1.03605e-09
1.03635e-09
1.03663e-09
1.0369e-09
1.03716e-09
1.0374e-09
1.03763e-09
1.03784e-09
1.03803e-09
1.03821e-09
1.03837e-09
1.03853e-09
1.03866e-09
1.03879e-09
1.0389e-09
1.039e-09
1.03909e-09
1.03919e-09
1.03927e-09
1.03936e-09
1.03943e-09
1.03952e-09
1.03959e-09
1.03966e-09
1.03973e-09
1.0398e-09
1.03985e-09
1.03992e-09
1.03996e-09
1.04002e-09
1.04006e-09
1.02061e-09
1.02102e-09
1.02162e-09
1.02213e-09
1.02251e-09
1.02281e-09
1.02303e-09
1.02316e-09
1.0233e-09
1.0234e-09
1.02353e-09
1.02374e-09
1.02405e-09
1.02452e-09
1.02508e-09
1.02576e-09
1.02653e-09
1.02728e-09
1.02802e-09
1.02858e-09
1.02912e-09
1.02936e-09
1.02957e-09
1.03005e-09
1.03002e-09
1.02992e-09
1.02984e-09
1.02972e-09
1.02934e-09
1.02934e-09
1.02917e-09
1.02905e-09
1.0288e-09
1.02882e-09
1.02912e-09
1.02963e-09
1.03008e-09
1.03059e-09
1.03094e-09
1.03119e-09
1.03121e-09
1.03133e-09
1.03117e-09
1.03123e-09
1.03129e-09
1.03123e-09
1.03109e-09
1.03089e-09
1.03067e-09
1.0304e-09
1.03013e-09
1.02982e-09
1.02956e-09
1.02928e-09
1.02905e-09
1.02886e-09
1.02871e-09
1.02858e-09
1.02853e-09
1.02856e-09
1.02855e-09
1.02862e-09
1.02863e-09
1.02869e-09
1.02878e-09
1.02889e-09
1.02901e-09
1.02916e-09
1.02932e-09
1.02951e-09
1.02972e-09
1.02994e-09
1.03019e-09
1.03044e-09
1.03073e-09
1.03101e-09
1.03132e-09
1.03164e-09
1.03198e-09
1.03232e-09
1.03269e-09
1.03304e-09
1.03338e-09
1.0337e-09
1.03401e-09
1.03429e-09
1.03457e-09
1.03482e-09
1.03507e-09
1.03528e-09
1.03549e-09
1.03568e-09
1.03586e-09
1.03603e-09
1.03618e-09
1.03634e-09
1.03646e-09
1.03662e-09
1.03671e-09
1.03687e-09
1.02139e-09
1.02156e-09
1.02191e-09
1.0221e-09
1.02227e-09
1.02245e-09
1.02263e-09
1.02279e-09
1.02297e-09
1.02313e-09
1.02337e-09
1.02369e-09
1.02414e-09
1.02469e-09
1.02538e-09
1.0261e-09
1.02679e-09
1.02748e-09
1.0281e-09
1.02864e-09
1.02896e-09
1.02924e-09
1.02923e-09
1.02955e-09
1.02927e-09
1.02952e-09
1.02948e-09
1.02938e-09
1.02924e-09
1.02882e-09
1.02874e-09
1.02855e-09
1.02854e-09
1.02879e-09
1.02915e-09
1.02958e-09
1.02996e-09
1.03014e-09
1.03025e-09
1.0305e-09
1.03071e-09
1.03072e-09
1.03077e-09
1.03083e-09
1.03088e-09
1.03086e-09
1.03074e-09
1.03055e-09
1.03036e-09
1.03012e-09
1.0299e-09
1.02966e-09
1.02943e-09
1.0292e-09
1.02899e-09
1.0288e-09
1.02861e-09
1.02848e-09
1.02836e-09
1.02828e-09
1.0282e-09
1.02816e-09
1.0281e-09
1.02807e-09
1.02804e-09
1.028e-09
1.02797e-09
1.02791e-09
1.02787e-09
1.02781e-09
1.02779e-09
1.02778e-09
1.02777e-09
1.02779e-09
1.02782e-09
1.02787e-09
1.02791e-09
1.02797e-09
1.02803e-09
1.02815e-09
1.02826e-09
1.02842e-09
1.02858e-09
1.02881e-09
1.02902e-09
1.02929e-09
1.02952e-09
1.02977e-09
1.02998e-09
1.03022e-09
1.03041e-09
1.03064e-09
1.03082e-09
1.03106e-09
1.03122e-09
1.03147e-09
1.03163e-09
1.03191e-09
1.03204e-09
1.03247e-09
1.02171e-09
1.02184e-09
1.02206e-09
1.02222e-09
1.0224e-09
1.02261e-09
1.02285e-09
1.02307e-09
1.02329e-09
1.02353e-09
1.0238e-09
1.02413e-09
1.02453e-09
1.02502e-09
1.02556e-09
1.02614e-09
1.02674e-09
1.02739e-09
1.02791e-09
1.02837e-09
1.02867e-09
1.0289e-09
1.02903e-09
1.02912e-09
1.02905e-09
1.02936e-09
1.02918e-09
1.02902e-09
1.02863e-09
1.0286e-09
1.02843e-09
1.02831e-09
1.02837e-09
1.02852e-09
1.02888e-09
1.02894e-09
1.02946e-09
1.02976e-09
1.02983e-09
1.03005e-09
1.03029e-09
1.0303e-09
1.03032e-09
1.0304e-09
1.03046e-09
1.03044e-09
1.03036e-09
1.03024e-09
1.03007e-09
1.02989e-09
1.0297e-09
1.02953e-09
1.02934e-09
1.02918e-09
1.02899e-09
1.02885e-09
1.02871e-09
1.0286e-09
1.02849e-09
1.02842e-09
1.02836e-09
1.0283e-09
1.02828e-09
1.02823e-09
1.02822e-09
1.02819e-09
1.02817e-09
1.02814e-09
1.02811e-09
1.02806e-09
1.02803e-09
1.02798e-09
1.02793e-09
1.0279e-09
1.02786e-09
1.02785e-09
1.02784e-09
1.02783e-09
1.02783e-09
1.02783e-09
1.02783e-09
1.02784e-09
1.02785e-09
1.02788e-09
1.0279e-09
1.02791e-09
1.02793e-09
1.02796e-09
1.028e-09
1.02805e-09
1.02811e-09
1.02817e-09
1.02822e-09
1.02829e-09
1.02833e-09
1.0284e-09
1.02844e-09
1.0285e-09
1.02856e-09
1.02865e-09
1.02177e-09
1.02195e-09
1.02222e-09
1.02231e-09
1.02244e-09
1.02264e-09
1.02289e-09
1.02314e-09
1.02337e-09
1.02362e-09
1.02386e-09
1.02417e-09
1.02452e-09
1.02499e-09
1.02545e-09
1.02602e-09
1.02654e-09
1.02707e-09
1.02749e-09
1.02784e-09
1.02814e-09
1.02832e-09
1.02842e-09
1.02845e-09
1.02841e-09
1.02834e-09
1.02825e-09
1.02816e-09
1.02813e-09
1.02809e-09
1.02808e-09
1.02812e-09
1.02824e-09
1.02846e-09
1.0286e-09
1.02896e-09
1.02933e-09
1.02959e-09
1.02974e-09
1.03005e-09
1.03025e-09
1.03027e-09
1.03025e-09
1.03031e-09
1.0303e-09
1.0303e-09
1.03022e-09
1.03012e-09
1.02997e-09
1.02982e-09
1.02965e-09
1.02949e-09
1.02933e-09
1.02919e-09
1.02907e-09
1.02896e-09
1.02886e-09
1.02876e-09
1.02869e-09
1.02863e-09
1.02858e-09
1.02854e-09
1.02851e-09
1.02848e-09
1.02847e-09
1.02844e-09
1.02844e-09
1.02843e-09
1.02842e-09
1.02841e-09
1.02841e-09
1.0284e-09
1.02838e-09
1.02837e-09
1.02835e-09
1.02834e-09
1.02831e-09
1.0283e-09
1.02828e-09
1.02828e-09
1.02826e-09
1.02825e-09
1.02824e-09
1.02822e-09
1.02821e-09
1.02819e-09
1.02817e-09
1.02815e-09
1.02813e-09
1.02811e-09
1.02809e-09
1.02808e-09
1.02807e-09
1.02806e-09
1.02805e-09
1.02802e-09
1.028e-09
1.02799e-09
1.02798e-09
1.02797e-09
1.02174e-09
1.02184e-09
1.02225e-09
1.0224e-09
1.02247e-09
1.0226e-09
1.02279e-09
1.02304e-09
1.0233e-09
1.02357e-09
1.02385e-09
1.02416e-09
1.02449e-09
1.02495e-09
1.02535e-09
1.02586e-09
1.02631e-09
1.02681e-09
1.02724e-09
1.02761e-09
1.02791e-09
1.02809e-09
1.02823e-09
1.02827e-09
1.02828e-09
1.02825e-09
1.02819e-09
1.02814e-09
1.02809e-09
1.0281e-09
1.02811e-09
1.02817e-09
1.02835e-09
1.02846e-09
1.0287e-09
1.02902e-09
1.02934e-09
1.02946e-09
1.02973e-09
1.02997e-09
1.02999e-09
1.03004e-09
1.03009e-09
1.03012e-09
1.0301e-09
1.03007e-09
1.03006e-09
1.03001e-09
1.02992e-09
1.02979e-09
1.02965e-09
1.0295e-09
1.02936e-09
1.02923e-09
1.02911e-09
1.02899e-09
1.02889e-09
1.02878e-09
1.0287e-09
1.02864e-09
1.02859e-09
1.02855e-09
1.02853e-09
1.02852e-09
1.02851e-09
1.0285e-09
1.0285e-09
1.0285e-09
1.0285e-09
1.02851e-09
1.02851e-09
1.02851e-09
1.02851e-09
1.0285e-09
1.02849e-09
1.02847e-09
1.02845e-09
1.02842e-09
1.0284e-09
1.02838e-09
1.02835e-09
1.02834e-09
1.02832e-09
1.0283e-09
1.02829e-09
1.02827e-09
1.02826e-09
1.02824e-09
1.02822e-09
1.02821e-09
1.02819e-09
1.02818e-09
1.02817e-09
1.02816e-09
1.02814e-09
1.02814e-09
1.02813e-09
1.02813e-09
1.02812e-09
1.02811e-09
1.02197e-09
1.02198e-09
1.02235e-09
1.02268e-09
1.02282e-09
1.02289e-09
1.02299e-09
1.02319e-09
1.02343e-09
1.02374e-09
1.02404e-09
1.02438e-09
1.02471e-09
1.02512e-09
1.02551e-09
1.02598e-09
1.0264e-09
1.02686e-09
1.02722e-09
1.02756e-09
1.02783e-09
1.02802e-09
1.02818e-09
1.02822e-09
1.02826e-09
1.02825e-09
1.02821e-09
1.02817e-09
1.02812e-09
1.02815e-09
1.02821e-09
1.02836e-09
1.02854e-09
1.02864e-09
1.02888e-09
1.02911e-09
1.02927e-09
1.02946e-09
1.02961e-09
1.02985e-09
1.02979e-09
1.0298e-09
1.02982e-09
1.02986e-09
1.02979e-09
1.02977e-09
1.02979e-09
1.0298e-09
1.02975e-09
1.02966e-09
1.02956e-09
1.02943e-09
1.02931e-09
1.02919e-09
1.02908e-09
1.02897e-09
1.02887e-09
1.02876e-09
1.02868e-09
1.0286e-09
1.02854e-09
1.02848e-09
1.02845e-09
1.02841e-09
1.02839e-09
1.02836e-09
1.02836e-09
1.02834e-09
1.02833e-09
1.02831e-09
1.0283e-09
1.02827e-09
1.02826e-09
1.02822e-09
1.0282e-09
1.02816e-09
1.02815e-09
1.02809e-09
1.02809e-09
1.02808e-09
1.02808e-09
1.02809e-09
1.0281e-09
1.0282e-09
1.0282e-09
1.02825e-09
1.02828e-09
1.02829e-09
1.02828e-09
1.02827e-09
1.02825e-09
1.02824e-09
1.02824e-09
1.02824e-09
1.02824e-09
1.02827e-09
1.02826e-09
1.02828e-09
1.0283e-09
1.02824e-09
1.02265e-09
1.02272e-09
1.02283e-09
1.02316e-09
1.02339e-09
1.02353e-09
1.02363e-09
1.02373e-09
1.02396e-09
1.02422e-09
1.02451e-09
1.02481e-09
1.02511e-09
1.02546e-09
1.02581e-09
1.0262e-09
1.02658e-09
1.02698e-09
1.02733e-09
1.02766e-09
1.02791e-09
1.02811e-09
1.02824e-09
1.02829e-09
1.02835e-09
1.02831e-09
1.02831e-09
1.02831e-09
1.02834e-09
1.0284e-09
1.02845e-09
1.02859e-09
1.02871e-09
1.0288e-09
1.029e-09
1.0291e-09
1.02924e-09
1.02943e-09
1.02957e-09
1.02971e-09
1.0296e-09
1.02963e-09
1.02968e-09
1.0297e-09
1.02967e-09
1.02968e-09
1.02968e-09
1.02972e-09
1.02971e-09
1.02965e-09
1.02956e-09
1.02945e-09
1.02934e-09
1.02922e-09
1.02913e-09
1.02904e-09
1.02896e-09
1.02888e-09
1.02881e-09
1.02875e-09
1.02869e-09
1.02865e-09
1.02861e-09
1.0286e-09
1.02858e-09
1.02857e-09
1.02856e-09
1.02855e-09
1.02855e-09
1.02854e-09
1.02853e-09
1.02851e-09
1.02849e-09
1.02846e-09
1.02844e-09
1.02841e-09
1.0284e-09
1.02836e-09
1.02833e-09
1.02828e-09
1.02824e-09
1.0282e-09
1.02816e-09
1.02814e-09
1.02811e-09
1.02809e-09
1.02806e-09
1.02802e-09
1.02801e-09
1.02801e-09
1.02801e-09
1.028e-09
1.02801e-09
1.02802e-09
1.02807e-09
1.02812e-09
1.02823e-09
1.02823e-09
1.02825e-09
1.02826e-09
1.02333e-09
1.02325e-09
1.02335e-09
1.02363e-09
1.02389e-09
1.02407e-09
1.02418e-09
1.02427e-09
1.02444e-09
1.02465e-09
1.02493e-09
1.02518e-09
1.02548e-09
1.02576e-09
1.02609e-09
1.0264e-09
1.02676e-09
1.02708e-09
1.02741e-09
1.02768e-09
1.02793e-09
1.02808e-09
1.02821e-09
1.02828e-09
1.02832e-09
1.02833e-09
1.02834e-09
1.02838e-09
1.02845e-09
1.02853e-09
1.02861e-09
1.02875e-09
1.02882e-09
1.02893e-09
1.02908e-09
1.02916e-09
1.02929e-09
1.02946e-09
1.02963e-09
1.02967e-09
1.02964e-09
1.02963e-09
1.02967e-09
1.02966e-09
1.02968e-09
1.02972e-09
1.02972e-09
1.02976e-09
1.02975e-09
1.02973e-09
1.02967e-09
1.02959e-09
1.0295e-09
1.02941e-09
1.02932e-09
1.02926e-09
1.02919e-09
1.02915e-09
1.0291e-09
1.02907e-09
1.02904e-09
1.02902e-09
1.029e-09
1.02898e-09
1.02897e-09
1.02896e-09
1.02893e-09
1.02891e-09
1.02889e-09
1.02888e-09
1.02887e-09
1.02885e-09
1.02884e-09
1.02881e-09
1.02879e-09
1.02876e-09
1.02874e-09
1.02869e-09
1.02867e-09
1.02868e-09
1.0287e-09
1.02869e-09
1.02868e-09
1.02865e-09
1.02864e-09
1.02861e-09
1.0286e-09
1.02858e-09
1.02857e-09
1.02856e-09
1.02855e-09
1.02853e-09
1.02853e-09
1.02853e-09
1.02853e-09
1.02854e-09
1.02856e-09
1.02861e-09
1.02866e-09
1.02866e-09
1.02393e-09
1.0239e-09
1.0239e-09
1.02412e-09
1.02431e-09
1.0245e-09
1.02472e-09
1.02486e-09
1.0249e-09
1.02502e-09
1.02524e-09
1.02542e-09
1.0257e-09
1.02595e-09
1.02627e-09
1.02656e-09
1.02688e-09
1.02717e-09
1.02746e-09
1.02771e-09
1.02793e-09
1.02811e-09
1.02823e-09
1.02832e-09
1.02837e-09
1.02842e-09
1.02848e-09
1.02852e-09
1.02861e-09
1.02865e-09
1.02872e-09
1.02884e-09
1.02887e-09
1.029e-09
1.02908e-09
1.02919e-09
1.02931e-09
1.0294e-09
1.02958e-09
1.02956e-09
1.02961e-09
1.02968e-09
1.02967e-09
1.02972e-09
1.02977e-09
1.02977e-09
1.02976e-09
1.02976e-09
1.02978e-09
1.02978e-09
1.02977e-09
1.02975e-09
1.02972e-09
1.02967e-09
1.02962e-09
1.02956e-09
1.0295e-09
1.02945e-09
1.02939e-09
1.02935e-09
1.02931e-09
1.0293e-09
1.02928e-09
1.02926e-09
1.02925e-09
1.02922e-09
1.02921e-09
1.02918e-09
1.02915e-09
1.02912e-09
1.02911e-09
1.02907e-09
1.02905e-09
1.02901e-09
1.029e-09
1.02899e-09
1.02894e-09
1.02893e-09
1.02892e-09
1.02891e-09
1.0289e-09
1.02896e-09
1.02894e-09
1.02895e-09
1.02902e-09
1.02909e-09
1.02907e-09
1.0291e-09
1.02912e-09
1.02912e-09
1.02912e-09
1.02913e-09
1.02911e-09
1.02911e-09
1.02912e-09
1.02911e-09
1.02912e-09
1.02912e-09
1.02912e-09
1.02911e-09
1.02424e-09
1.02438e-09
1.02459e-09
1.02454e-09
1.02465e-09
1.02483e-09
1.02506e-09
1.02518e-09
1.02533e-09
1.02542e-09
1.02557e-09
1.02567e-09
1.02588e-09
1.02612e-09
1.02643e-09
1.02673e-09
1.02702e-09
1.0273e-09
1.02756e-09
1.02781e-09
1.028e-09
1.0282e-09
1.0283e-09
1.02841e-09
1.02845e-09
1.02851e-09
1.02854e-09
1.02857e-09
1.02865e-09
1.02867e-09
1.02876e-09
1.02883e-09
1.02887e-09
1.02896e-09
1.02906e-09
1.02913e-09
1.02924e-09
1.02937e-09
1.02952e-09
1.02952e-09
1.02958e-09
1.02972e-09
1.02975e-09
1.02984e-09
1.02983e-09
1.02987e-09
1.02987e-09
1.02985e-09
1.02984e-09
1.02983e-09
1.02982e-09
1.0298e-09
1.0298e-09
1.02979e-09
1.02975e-09
1.02972e-09
1.02967e-09
1.02964e-09
1.02959e-09
1.02956e-09
1.02953e-09
1.0295e-09
1.02947e-09
1.02942e-09
1.0294e-09
1.02935e-09
1.02932e-09
1.02929e-09
1.02927e-09
1.02925e-09
1.02922e-09
1.0292e-09
1.02919e-09
1.02914e-09
1.02912e-09
1.02909e-09
1.02912e-09
1.02913e-09
1.02918e-09
1.02916e-09
1.02917e-09
1.02922e-09
1.0292e-09
1.02924e-09
1.02924e-09
1.02924e-09
1.02927e-09
1.02926e-09
1.02929e-09
1.02927e-09
1.02928e-09
1.02929e-09
1.0293e-09
1.02934e-09
1.02939e-09
1.02938e-09
1.02938e-09
1.02938e-09
1.02935e-09
1.02933e-09
1.02454e-09
1.02484e-09
1.02504e-09
1.02501e-09
1.02492e-09
1.025e-09
1.02526e-09
1.0255e-09
1.02572e-09
1.02588e-09
1.02598e-09
1.02602e-09
1.02616e-09
1.02639e-09
1.02671e-09
1.02701e-09
1.0273e-09
1.02756e-09
1.02778e-09
1.02799e-09
1.02814e-09
1.02829e-09
1.02837e-09
1.02846e-09
1.02849e-09
1.02856e-09
1.02859e-09
1.02865e-09
1.02872e-09
1.02874e-09
1.02884e-09
1.02887e-09
1.02896e-09
1.02903e-09
1.02911e-09
1.0292e-09
1.0293e-09
1.02943e-09
1.02954e-09
1.02956e-09
1.02967e-09
1.02981e-09
1.02983e-09
1.02985e-09
1.02988e-09
1.02993e-09
1.02991e-09
1.02991e-09
1.02988e-09
1.02988e-09
1.02985e-09
1.02984e-09
1.02981e-09
1.0298e-09
1.02977e-09
1.02975e-09
1.02973e-09
1.0297e-09
1.02969e-09
1.02965e-09
1.02964e-09
1.02959e-09
1.02954e-09
1.0295e-09
1.02942e-09
1.02937e-09
1.02929e-09
1.02924e-09
1.02917e-09
1.02913e-09
1.02907e-09
1.02905e-09
1.029e-09
1.02894e-09
1.02895e-09
1.029e-09
1.02908e-09
1.02906e-09
1.02907e-09
1.02909e-09
1.02911e-09
1.0292e-09
1.02921e-09
1.02928e-09
1.02933e-09
1.0294e-09
1.02937e-09
1.02937e-09
1.02938e-09
1.02944e-09
1.02945e-09
1.02951e-09
1.02949e-09
1.02948e-09
1.02942e-09
1.02937e-09
1.02931e-09
1.02927e-09
1.02921e-09
1.02918e-09
1.02492e-09
1.02508e-09
1.02544e-09
1.0256e-09
1.02559e-09
1.02551e-09
1.02571e-09
1.02587e-09
1.02633e-09
1.0267e-09
1.02685e-09
1.02719e-09
1.02718e-09
1.02701e-09
1.02704e-09
1.02721e-09
1.02744e-09
1.02766e-09
1.02788e-09
1.02806e-09
1.02824e-09
1.02839e-09
1.02851e-09
1.02861e-09
1.02868e-09
1.02877e-09
1.02884e-09
1.02893e-09
1.029e-09
1.02905e-09
1.02914e-09
1.02919e-09
1.02924e-09
1.0293e-09
1.02935e-09
1.02937e-09
1.02946e-09
1.02955e-09
1.0296e-09
1.02963e-09
1.02973e-09
1.02987e-09
1.02988e-09
1.02987e-09
1.02992e-09
1.02996e-09
1.02991e-09
1.02989e-09
1.02984e-09
1.02984e-09
1.02978e-09
1.0298e-09
1.02981e-09
1.02978e-09
1.02973e-09
1.02968e-09
1.02962e-09
1.02956e-09
1.02952e-09
1.02947e-09
1.02944e-09
1.0294e-09
1.02934e-09
1.02931e-09
1.02925e-09
1.02921e-09
1.02915e-09
1.0291e-09
1.02904e-09
1.02897e-09
1.02891e-09
1.02886e-09
1.02882e-09
1.02879e-09
1.02877e-09
1.02875e-09
1.02873e-09
1.02871e-09
1.0287e-09
1.0287e-09
1.02867e-09
1.02867e-09
1.02869e-09
1.02871e-09
1.02876e-09
1.02885e-09
1.02885e-09
1.02885e-09
1.02892e-09
1.02892e-09
1.02896e-09
1.02901e-09
1.02907e-09
1.02906e-09
1.02907e-09
1.02908e-09
1.02912e-09
1.02912e-09
1.02908e-09
1.02903e-09
1.02532e-09
1.02537e-09
1.02575e-09
1.02602e-09
1.02626e-09
1.02621e-09
1.02614e-09
1.02616e-09
1.02659e-09
1.027e-09
1.02745e-09
1.02754e-09
1.0273e-09
1.02747e-09
1.02732e-09
1.02741e-09
1.02762e-09
1.02784e-09
1.02806e-09
1.02825e-09
1.02843e-09
1.02858e-09
1.02867e-09
1.02874e-09
1.02879e-09
1.02883e-09
1.0289e-09
1.029e-09
1.02905e-09
1.02912e-09
1.02924e-09
1.0293e-09
1.02936e-09
1.02938e-09
1.0294e-09
1.02942e-09
1.02949e-09
1.02954e-09
1.02955e-09
1.02967e-09
1.02977e-09
1.02979e-09
1.02976e-09
1.02979e-09
1.0298e-09
1.02982e-09
1.0298e-09
1.02975e-09
1.02968e-09
1.02961e-09
1.02962e-09
1.02958e-09
1.02961e-09
1.02958e-09
1.02952e-09
1.02945e-09
1.02938e-09
1.02932e-09
1.02927e-09
1.02922e-09
1.02917e-09
1.0291e-09
1.02903e-09
1.02895e-09
1.02887e-09