/*--------------------------------*- C++ -*----------------------------------*\
  =========                 |
  \\      /  F ield         | OpenFOAM: The Open Source CFD Toolbox
   \\    /   O peration     | Website:  https://openfoam.org
    \\  /    A nd           | Version:  8
     \\/     M anipulation  |
\*---------------------------------------------------------------------------*/
FoamFile
{
    version     2.0;
    format      ascii;
    class       volScalarField;
    location    "1.500023";
    object      r_het;
}
// * * * * * * * * * * * * * * * * * * * * * * * * * * * * * * * * * * * * * //

dimensions      [0 1 0 0 0 0 0];

internalField   nonuniform List<scalar> 
6800
(
0.00444314
0.00448165
0.0046474
0.0046974
0.00469907
0.00469501
0.00467912
0.00465884
0.0046576
0.00465546
0.00444478
0.00460172
0.00470063
0.00470806
0.00469803
0.00467786
0.00466116
0.00466785
0.00469782
0.00475225
0.0044427
0.00464746
0.00471683
0.00470812
0.00468135
0.00466817
0.00468249
0.00472374
0.0048144
0.0048425
0.00443795
0.00473573
0.00472637
0.00468927
0.00467559
0.0046943
0.0047538
0.0048347
0.00487002
0.00487552
0.0048048
0.00477533
0.00471041
0.00468281
0.0047027
0.00476699
0.00485026
0.00488181
0.00489987
0.00490179
0.00483931
0.00472272
0.0046903
0.00470047
0.00476892
0.00485491
0.00489192
0.00492279
0.00493844
0.00493247
0.0048435
0.00468811
0.00469339
0.00474228
0.00486348
0.00489307
0.0049426
0.00496236
0.00495966
0.00494579
0.00485291
0.00467891
0.00472317
0.00482922
0.00490418
0.0049472
0.0049813
0.00498125
0.00497767
0.00496661
0.00486348
0.00467816
0.00478086
0.00486651
0.00495481
0.00497453
0.00500325
0.00500861
0.00500199
0.00499157
0.00487322
0.004693
0.00483319
0.00493967
0.0049946
0.00501559
0.00503502
0.00502915
0.0050192
0.00501863
0.00444442
0.00445265
0.00445613
0.00445987
0.00446287
0.00446645
0.0044698
0.00447374
0.00447765
0.00448208
0.00444362
0.00445178
0.00445515
0.00445879
0.00446178
0.00446526
0.0044682
0.0044714
0.0044737
0.00447489
0.00444335
0.00445084
0.00445407
0.00445674
0.00445794
0.00445709
0.00445399
0.00444557
0.00442924
0.00440373
0.00444319
0.00444998
0.00445152
0.00445122
0.00444579
0.00443007
0.00440647
0.00437669
0.00434776
0.00433552
0.00444295
0.00444792
0.00444733
0.00444034
0.00442252
0.00440083
0.00438386
0.00436326
0.00434313
0.00439161
0.00444206
0.00444512
0.0044413
0.00442927
0.00441316
0.00440223
0.00438576
0.0043951
0.00440456
0.00452634
0.00444137
0.00444331
0.00443868
0.00442822
0.0044127
0.00441462
0.00445271
0.00451775
0.00458201
0.00464479
0.00444057
0.0044412
0.0044357
0.00442843
0.00445152
0.00452389
0.00462003
0.00466438
0.00467671
0.0046768
0.0044402
0.00443997
0.00443366
0.00448133
0.00461453
0.00467396
0.00468788
0.0046872
0.00468269
0.00467125
0.00443948
0.00443701
0.00449883
0.00464782
0.00469223
0.0046945
0.00469245
0.00468074
0.00466736
0.00465622
0.00448802
0.00449309
0.00449875
0.00450375
0.00450872
0.00451393
0.00451802
0.0045231
0.00452616
0.00453068
0.0045327
0.00453591
0.00453792
0.00454083
0.00454194
0.00454244
0.00454414
0.0045464
0.00454903
0.00455138
0.00455317
0.00455321
0.00455344
0.00455332
0.00455345
0.00455357
0.0045532
0.00455222
0.00455019
0.00454784
0.00454538
0.00454258
0.00453998
0.00453711
0.00453471
0.00453227
0.00453014
0.00452827
0.00452628
0.00452477
0.00452266
0.00452114
0.00451924
0.00451748
0.00451557
0.00451354
0.00451246
0.00450926
0.0045078
0.00450614
0.00450696
0.00450381
0.00450476
0.00450427
0.00450364
0.00450192
0.0045003
0.00449839
0.00449692
0.00449537
0.00449432
0.00449276
0.00449181
0.00448958
0.00448822
0.00448525
0.00448345
0.00447995
0.00447792
0.00447425
0.00447211
0.00446837
0.00446617
0.0044624
0.00446018
0.0044564
0.00445418
0.00445041
0.00444822
0.00444448
0.00444232
0.00443864
0.00443651
0.0044329
0.0044308
0.00442728
0.0044252
0.0044218
0.00441972
0.00441645
0.00441437
0.00441124
0.00440916
0.00440615
0.00440409
0.00440117
0.00439914
0.00439639
0.00439384
0.00439003
0.00447393
0.00447486
0.00447758
0.0044751
0.00447768
0.00448067
0.00448579
0.00449128
0.00449849
0.00450524
0.0045132
0.00452466
0.00453385
0.00454477
0.00455544
0.00456385
0.00457153
0.0045765
0.00457942
0.00458173
0.00458077
0.00458056
0.00458002
0.00457974
0.00457908
0.00457878
0.0045785
0.00457905
0.00457957
0.00457834
0.00457602
0.00457296
0.00456984
0.00456642
0.00456326
0.00456018
0.00455739
0.0045549
0.00455261
0.00455062
0.00454877
0.00454712
0.00454563
0.00454423
0.00454286
0.00454164
0.00454011
0.00453861
0.00453735
0.00453518
0.00453372
0.00453135
0.00452857
0.00452661
0.00452426
0.00452031
0.00451863
0.00451861
0.00451905
0.00451785
0.00451685
0.00451409
0.00451232
0.00450876
0.00450665
0.00450288
0.00450061
0.00449673
0.00449438
0.00449044
0.00448805
0.00448409
0.00448168
0.00447773
0.00447534
0.00447142
0.00446907
0.00446521
0.00446292
0.00445913
0.00445692
0.00445321
0.00445109
0.00444748
0.00444545
0.00444195
0.00443999
0.00443662
0.00443471
0.0044315
0.00442961
0.00442655
0.00442466
0.00442174
0.00441984
0.00441701
0.00441507
0.00441242
0.00440987
0.00440607
0.00438184
0.00438279
0.00438116
0.00439019
0.00439974
0.00441138
0.00442504
0.00443885
0.00445527
0.00447316
0.00448502
0.0045021
0.00452108
0.00453956
0.00455853
0.00457214
0.00458239
0.0045876
0.00459075
0.00459035
0.00459046
0.00459021
0.00458838
0.00458769
0.00458531
0.00458636
0.00458413
0.00458511
0.00458431
0.00458215
0.00457915
0.00457533
0.00457175
0.00456756
0.00456402
0.00456037
0.00455714
0.00455425
0.0045516
0.00454918
0.00454728
0.00454508
0.00454371
0.00454176
0.00454065
0.00453882
0.00453782
0.00453613
0.0045352
0.0045334
0.00453228
0.00453019
0.00452902
0.00452638
0.00452488
0.00452171
0.00451975
0.00451612
0.00451377
0.00450989
0.00450738
0.0045034
0.00450082
0.00449679
0.00449417
0.0044901
0.00448745
0.00448337
0.00448071
0.00447663
0.00447398
0.00446995
0.00446734
0.00446336
0.00446082
0.00445692
0.00445447
0.00445067
0.00444833
0.00444463
0.00444241
0.00443883
0.00443674
0.00443329
0.00443134
0.00442804
0.00442622
0.00442307
0.00442138
0.00441837
0.00441676
0.00441389
0.00441229
0.00440956
0.0044079
0.00440527
0.00440354
0.00440085
0.00439961
0.00439403
0.00433217
0.00433712
0.00436467
0.00437613
0.00439689
0.00440638
0.00442262
0.00443649
0.00445289
0.0044734
0.00449007
0.00451537
0.00454463
0.00457082
0.00458546
0.00459452
0.00459746
0.00459792
0.00459664
0.00459598
0.00459429
0.004593
0.00459015
0.00458878
0.00458584
0.00458476
0.00458469
0.00458482
0.00458203
0.0045778
0.00457245
0.00456667
0.00456122
0.00455508
0.00455023
0.00454507
0.00454053
0.00453696
0.00453266
0.00452988
0.00452639
0.00452343
0.00452048
0.00451733
0.00451403
0.00451053
0.00450649
0.00450405
0.00449989
0.00449613
0.00449213
0.00448923
0.00448639
0.00448088
0.00447863
0.00447915
0.00447904
0.00447693
0.00447473
0.00447069
0.0044677
0.00446329
0.00446011
0.00445564
0.00445246
0.00444803
0.00444491
0.00444056
0.00443751
0.00443326
0.0044303
0.00442617
0.00442333
0.00441933
0.00441661
0.00441274
0.00441016
0.00440642
0.00440398
0.00440038
0.0043981
0.00439466
0.00439254
0.00438928
0.00438735
0.00438428
0.00438254
0.00437964
0.00437808
0.00437535
0.00437392
0.00437131
0.00436994
0.00436745
0.00436602
0.00436365
0.00436204
0.00435988
0.00435744
0.00435395
0.00438245
0.004385
0.0043946
0.00440859
0.00442834
0.00444474
0.00446958
0.0044927
0.00452135
0.0045444
0.00456891
0.00458811
0.00459952
0.00460463
0.00460559
0.00460493
0.00460301
0.00460094
0.00459912
0.00459696
0.00459501
0.00459178
0.00458715
0.00458491
0.00458512
0.00458321
0.00457926
0.00457188
0.00456505
0.00455574
0.00454769
0.00453817
0.00452997
0.00452121
0.00451406
0.00450657
0.0045013
0.00449543
0.00449209
0.00448781
0.00448553
0.00448222
0.00448037
0.00447722
0.00447529
0.00447185
0.00446955
0.00446548
0.00446256
0.00445809
0.00445466
0.00444978
0.00444595
0.0044409
0.00443692
0.00443175
0.00442775
0.00442268
0.00441882
0.00441391
0.0044102
0.00440544
0.00440188
0.00439728
0.00439387
0.00438944
0.0043862
0.00438193
0.00437886
0.00437477
0.00437185
0.00436794
0.00436519
0.00436143
0.00435884
0.00435523
0.00435278
0.00434931
0.00434702
0.0043437
0.00434157
0.00433844
0.0043365
0.00433356
0.00433182
0.00432909
0.00432755
0.00432502
0.00432364
0.00432127
0.00432002
0.00431774
0.00431655
0.00431428
0.00431307
0.0043108
0.00430941
0.00430728
0.00430501
0.00430173
0.00452348
0.00452795
0.00453892
0.00455321
0.00456915
0.00458581
0.00459974
0.00460936
0.00461565
0.004619
0.00461938
0.0046194
0.00461759
0.00461384
0.00461046
0.00460695
0.00460306
0.00459976
0.00459566
0.00459082
0.00458698
0.00458282
0.00457895
0.00457303
0.0045661
0.00455678
0.00454677
0.00453547
0.00452383
0.00451149
0.00449958
0.00448746
0.00447658
0.00446597
0.00445709
0.00444878
0.00444227
0.00443623
0.00443176
0.00442712
0.00442369
0.00441975
0.00441685
0.00441315
0.00441037
0.00440668
0.00440389
0.00440012
0.00439726
0.00439337
0.00439037
0.00438633
0.00438315
0.00437896
0.00437564
0.00437134
0.00436794
0.0043636
0.00436018
0.00435585
0.00435249
0.00434822
0.00434497
0.00434083
0.00433773
0.00433376
0.00433082
0.00432705
0.00432431
0.00432073
0.0043182
0.00431483
0.0043125
0.00430931
0.00430716
0.00430413
0.00430213
0.00429925
0.0042974
0.00429468
0.00429299
0.00429044
0.00428894
0.00428655
0.00428523
0.00428299
0.00428182
0.00427969
0.00427861
0.00427651
0.00427544
0.00427329
0.00427217
0.00426987
0.00426865
0.00426616
0.00426471
0.0042621
0.00426006
0.00425672
0.00464502
0.00464672
0.00464864
0.00464963
0.00465166
0.00465121
0.00464931
0.00464525
0.00464033
0.00463542
0.00462986
0.00462456
0.00461876
0.00461216
0.00460572
0.00459746
0.00458974
0.00458121
0.00457295
0.0045643
0.00455555
0.00454622
0.00453635
0.00452523
0.00451374
0.00450082
0.00448773
0.00447383
0.00445994
0.0044461
0.00443306
0.00442111
0.00441039
0.00440132
0.00439383
0.00438799
0.00438357
0.00438015
0.00437751
0.00437478
0.00437244
0.00436964
0.00436714
0.00436382
0.00436088
0.00435705
0.00435384
0.00434977
0.00434657
0.00434252
0.00433946
0.00433556
0.00433267
0.00432892
0.00432615
0.00432249
0.00431977
0.00431614
0.00431339
0.00430975
0.00430697
0.00430333
0.00430054
0.00429696
0.0042942
0.00429076
0.0042881
0.00428485
0.00428235
0.00427934
0.00427704
0.00427426
0.00427218
0.0042696
0.00426774
0.00426528
0.00426364
0.00426128
0.00425982
0.00425757
0.00425628
0.00425416
0.00425301
0.00425101
0.00424997
0.00424804
0.00424705
0.00424512
0.00424411
0.00424205
0.00424096
0.00423868
0.00423743
0.00423484
0.00423342
0.00423043
0.00422884
0.00422535
0.00422379
0.00421912
0.00467683
0.00467617
0.00467417
0.0046706
0.00466632
0.00466063
0.00465478
0.00464737
0.00463973
0.00463064
0.00462021
0.00460972
0.00459643
0.00458434
0.0045692
0.00455395
0.00453844
0.00452422
0.00451082
0.00449895
0.00448741
0.00447649
0.00446527
0.00445383
0.0044424
0.00443068
0.00441909
0.00440715
0.00439595
0.00438529
0.00437584
0.0043675
0.00436042
0.00435488
0.00435053
0.00434767
0.00434569
0.00434431
0.00434346
0.00434276
0.00434203
0.00434061
0.00433851
0.00433526
0.00433149
0.00432671
0.00432206
0.00431664
0.00431192
0.00430656
0.00430226
0.0042974
0.00429369
0.00428938
0.0042862
0.00428228
0.00427943
0.00427574
0.00427301
0.00426941
0.00426668
0.0042631
0.00426035
0.00425681
0.00425405
0.00425061
0.0042479
0.00424464
0.00424206
0.00423902
0.00423661
0.00423381
0.00423161
0.00422899
0.00422698
0.00422447
0.00422266
0.00422021
0.00421861
0.00421623
0.00421483
0.00421256
0.00421132
0.00420918
0.00420806
0.00420598
0.00420492
0.00420284
0.00420175
0.00419952
0.00419829
0.00419585
0.00419442
0.00419166
0.00419
0.00418681
0.00418496
0.00418123
0.00417926
0.00417475
0.0046683
0.00466256
0.00465699
0.0046498
0.00464115
0.00463122
0.00461957
0.00460621
0.004591
0.00457462
0.00455698
0.00453861
0.00452108
0.00450322
0.00448831
0.0044762
0.00446673
0.00445901
0.00445298
0.00444732
0.00444179
0.00443577
0.00442862
0.00442069
0.00441186
0.00440214
0.00439194
0.0043814
0.00437139
0.0043618
0.00435336
0.00434571
0.00433959
0.00433518
0.00433191
0.00433001
0.00432872
0.004328
0.00432692
0.00432601
0.0043248
0.00432208
0.00431884
0.00431358
0.00430804
0.00430081
0.00429378
0.0042855
0.00427791
0.00426961
0.0042623
0.00425448
0.00424787
0.00424115
0.00423564
0.00422992
0.00422539
0.00422045
0.00421648
0.00421211
0.0042086
0.0042047
0.00420152
0.00419796
0.004195
0.00419167
0.00418882
0.00418565
0.00418287
0.00417988
0.0041772
0.00417436
0.00417177
0.00416905
0.00416654
0.00416386
0.00416144
0.00415876
0.00415651
0.00415382
0.00415182
0.00414912
0.00414743
0.00414474
0.00414329
0.00414069
0.00413935
0.00413681
0.00413552
0.00413291
0.00413156
0.00412879
0.00412731
0.00412423
0.0041226
0.00411911
0.00411729
0.00411329
0.00411153
0.00410627
0.00464574
0.00463176
0.00461936
0.00460537
0.00459269
0.00457802
0.00456435
0.00454856
0.00453416
0.00451847
0.00450433
0.00449042
0.00447824
0.00446772
0.0044593
0.0044527
0.0044482
0.00444441
0.00444191
0.00443854
0.00443522
0.00443008
0.00442389
0.00441608
0.00440764
0.00439778
0.00438779
0.00437752
0.00436801
0.00435842
0.00435025
0.00434268
0.00433703
0.00433294
0.00433092
0.00433002
0.00432945
0.00432851
0.00432743
0.00432469
0.00432238
0.00431751
0.00431285
0.00430554
0.00429889
0.0042895
0.00428131
0.00427059
0.00426152
0.00425039
0.00424144
0.00423086
0.00422246
0.00421257
0.00420501
0.00419601
0.0041893
0.00418124
0.00417529
0.00416803
0.00416262
0.00415622
0.00415159
0.00414607
0.00414202
0.00413713
0.00413348
0.00412918
0.0041259
0.00412207
0.00411914
0.00411577
0.00411312
0.00411013
0.00410765
0.00410486
0.0041024
0.00409962
0.00409716
0.00409428
0.00409187
0.00408882
0.00408653
0.00408326
0.00408117
0.00407769
0.0040758
0.00407219
0.00407033
0.0040667
0.00406478
0.00406098
0.00405898
0.00405495
0.00405282
0.0040485
0.00404619
0.00404163
0.00403903
0.00403412
0.00470579
0.00468336
0.00466565
0.00464585
0.0046303
0.004611
0.00459562
0.00457606
0.00456119
0.00454298
0.00453032
0.00451629
0.00450805
0.00450004
0.00449667
0.00449363
0.00449278
0.00449113
0.00448975
0.00448622
0.00448299
0.00447474
0.00446792
0.004457
0.00444702
0.00443449
0.00442352
0.00441104
0.00440033
0.00438894
0.00438012
0.00437134
0.00436555
0.00435976
0.00435684
0.00435344
0.00435144
0.00434825
0.00434576
0.00434084
0.00433638
0.00432946
0.00432298
0.00431433
0.00430645
0.00429622
0.00428708
0.0042756
0.00426559
0.00425341
0.00424292
0.00423051
0.00422042
0.00420837
0.00419886
0.0041876
0.00417904
0.00416873
0.00416122
0.00415198
0.0041454
0.004137
0.00413112
0.00412339
0.00411809
0.00411095
0.00410602
0.00409939
0.00409471
0.00408854
0.0040841
0.00407841
0.00407426
0.00406908
0.00406528
0.00406063
0.00405719
0.00405302
0.00404996
0.00404606
0.00404333
0.00403942
0.00403682
0.00403265
0.00403012
0.00402561
0.00402313
0.00401824
0.00401575
0.00401057
0.00400792
0.00400263
0.00399989
0.00399432
0.00399151
0.00398576
0.00398282
0.00397698
0.00397386
0.00396782
0.00477027
0.00474653
0.00472745
0.00470554
0.0046885
0.00466827
0.00465261
0.00463364
0.00461935
0.00460213
0.00459004
0.00457563
0.00456665
0.00455543
0.00454929
0.00454051
0.00453549
0.00452723
0.00452168
0.00451234
0.00450497
0.0044936
0.00448367
0.00447042
0.00445866
0.00444417
0.00443193
0.00441741
0.00440593
0.00439336
0.00438456
0.00437537
0.00436992
0.00436384
0.00436074
0.00435624
0.00435346
0.00434889
0.00434533
0.00433957
0.00433474
0.00432739
0.00432091
0.00431234
0.00430452
0.0042947
0.00428579
0.00427479
0.00426512
0.00425322
0.00424302
0.00423089
0.00422113
0.00420933
0.00420021
0.004189
0.00418071
0.00417029
0.00416293
0.00415326
0.00414669
0.0041377
0.00413178
0.00412326
0.00411781
0.00410962
0.00410438
0.00409652
0.00409137
0.00408383
0.00407874
0.00407152
0.00406648
0.00405952
0.00405457
0.00404789
0.00404314
0.00403682
0.0040325
0.00402663
0.00402283
0.00401722
0.00401381
0.00400831
0.00400519
0.00399953
0.00399647
0.00399036
0.00398718
0.00398055
0.0039772
0.00397015
0.00396658
0.0039593
0.00395559
0.00394817
0.00394439
0.00393695
0.003933
0.0039255
0.00479954
0.00477546
0.00475654
0.00473423
0.00471745
0.004697
0.0046815
0.00466227
0.00464741
0.00462934
0.00461571
0.00459952
0.0045882
0.00457465
0.00456592
0.00455456
0.00454727
0.00453677
0.00452933
0.00451803
0.00450912
0.00449649
0.00448591
0.004472
0.00445998
0.00444554
0.0044327
0.004418
0.00440662
0.00439453
0.00438635
0.00437729
0.00437208
0.00436577
0.00436237
0.00435712
0.00435429
0.00434887
0.00434594
0.00434011
0.00433605
0.00432865
0.00432292
0.00431452
0.00430745
0.0042982
0.00429005
0.00427995
0.00427099
0.00426019
0.0042509
0.00423965
0.00423043
0.00421903
0.00421033
0.00419911
0.00419133
0.0041806
0.00417389
0.00416382
0.00415811
0.00414868
0.00414374
0.00413485
0.00413039
0.00412188
0.00411761
0.0041093
0.00410507
0.00409678
0.00409249
0.00408425
0.00407992
0.00407186
0.00406758
0.00405979
0.0040556
0.00404805
0.00404396
0.00403657
0.00403257
0.00402518
0.00402127
0.0040138
0.00400996
0.00400233
0.00399845
0.00399064
0.00398667
0.00397881
0.00397477
0.00396668
0.00396255
0.00395412
0.00394983
0.00394107
0.00393653
0.00392769
0.00392267
0.00391344
0.00481063
0.00478626
0.00476784
0.0047451
0.00472825
0.00470745
0.00469189
0.00467238
0.00465726
0.00463863
0.00462436
0.00460755
0.00459539
0.00458135
0.00457167
0.00455963
0.0045515
0.00454004
0.00453179
0.00451945
0.00450967
0.0044964
0.00448553
0.00447129
0.00445925
0.00444457
0.00443202
0.00441823
0.00440796
0.00439706
0.00438945
0.00438134
0.00437623
0.00437088
0.00436761
0.00436363
0.00436118
0.00435767
0.00435494
0.00435076
0.00434773
0.00434174
0.00433788
0.00432983
0.00432447
0.00431526
0.00430853
0.00429819
0.00429033
0.00427914
0.00427056
0.00425897
0.00425031
0.00423877
0.00423058
0.00421943
0.00421203
0.00420142
0.00419497
0.00418496
0.0041794
0.00416997
0.00416506
0.00415613
0.00415163
0.00414305
0.00413876
0.00413039
0.00412614
0.00411788
0.00411353
0.00410531
0.00410078
0.00409259
0.0040879
0.00407978
0.00407502
0.00406707
0.00406232
0.00405458
0.00404989
0.00404232
0.00403771
0.00403025
0.00402571
0.00401827
0.00401381
0.0040063
0.00400194
0.00399424
0.00398995
0.00398198
0.0039777
0.00396944
0.00396511
0.00395653
0.00395215
0.0039433
0.00393951
0.00392743
0.00481533
0.00479032
0.00477222
0.00474926
0.00473194
0.00471036
0.00469447
0.00467467
0.00465983
0.00464133
0.00462747
0.00461092
0.00459881
0.00458505
0.004575
0.00456325
0.00455451
0.0045433
0.00453469
0.00452277
0.0045133
0.00450024
0.0044895
0.00447576
0.00446441
0.00445112
0.00444057
0.00442865
0.00441987
0.00441014
0.00440365
0.00439623
0.00439208
0.00438668
0.00438405
0.0043799
0.00437766
0.00437306
0.00437019
0.00436444
0.00436074
0.00435292
0.00434786
0.00433907
0.00433302
0.00432346
0.0043167
0.00430638
0.00429897
0.00428794
0.00428024
0.0042689
0.00426135
0.00425009
0.00424293
0.00423192
0.00422523
0.00421464
0.00420854
0.00419847
0.004193
0.00418346
0.0041785
0.00416936
0.00416471
0.00415586
0.00415133
0.00414267
0.00413817
0.00412958
0.00412504
0.00411644
0.00411185
0.00410322
0.00409853
0.00408992
0.00408517
0.00407671
0.00407195
0.00406376
0.00405908
0.00405116
0.00404663
0.00403891
0.00403458
0.00402698
0.00402284
0.00401527
0.00401127
0.00400371
0.0039998
0.00399219
0.00398831
0.00398062
0.00397667
0.00396892
0.00396478
0.00395717
0.0039519
0.00394313
0.00482586
0.00479981
0.00478223
0.00475931
0.00474237
0.00472021
0.0047039
0.00468388
0.00466938
0.00465153
0.00463874
0.00462285
0.00461187
0.00459803
0.0045888
0.00457663
0.00456855
0.00455692
0.00454893
0.00453656
0.00452797
0.0045146
0.00450538
0.00449153
0.00448201
0.00446866
0.00445966
0.00444755
0.00444006
0.00442989
0.00442428
0.00441602
0.00441185
0.00440439
0.00440061
0.00439357
0.00438966
0.00438256
0.00437836
0.00437069
0.00436549
0.00435682
0.00435085
0.00434153
0.00433484
0.00432503
0.00431792
0.00430766
0.0043002
0.00428946
0.00428199
0.00427106
0.00426393
0.00425313
0.00424648
0.00423591
0.00422966
0.00421943
0.00421358
0.00420371
0.00419829
0.00418882
0.00418378
0.0041746
0.00416982
0.00416085
0.00415621
0.00414737
0.00414275
0.00413397
0.00412932
0.00412054
0.00411585
0.00410707
0.00410236
0.00409366
0.00408902
0.00408049
0.00407599
0.00406775
0.00406344
0.00405544
0.00405128
0.00404351
0.0040395
0.00403185
0.00402797
0.00402044
0.00401663
0.00400921
0.00400547
0.00399816
0.00399447
0.00398722
0.00398349
0.00397627
0.00397238
0.00396494
0.00396177
0.00394982
0.00483985
0.0048156
0.00479763
0.00477563
0.00475949
0.00473785
0.00472218
0.00470184
0.0046879
0.00466993
0.00465757
0.00464148
0.00463052
0.00461606
0.00460675
0.00459374
0.0045857
0.00457346
0.00456567
0.00455326
0.0045449
0.00453163
0.00452248
0.00450857
0.00449923
0.00448556
0.00447666
0.00446411
0.0044563
0.00444519
0.0044385
0.00442873
0.00442289
0.00441391
0.00440879
0.00440045
0.00439527
0.0043876
0.00438211
0.00437413
0.00436786
0.00435929
0.00435261
0.00434347
0.0043364
0.0043268
0.00431951
0.0043096
0.00430226
0.00429216
0.00428492
0.0042748
0.00426795
0.00425801
0.00425173
0.00424207
0.00423626
0.00422687
0.0042214
0.00421232
0.00420714
0.00419835
0.00419337
0.00418475
0.0041799
0.00417132
0.0041665
0.00415791
0.00415308
0.00414442
0.00413955
0.00413078
0.00412584
0.00411691
0.00411193
0.00410299
0.00409797
0.00408909
0.00408407
0.00407537
0.00407051
0.00406215
0.00405761
0.00404961
0.00404539
0.00403777
0.00403382
0.00402648
0.0040228
0.00401572
0.00401218
0.00400525
0.00400173
0.00399497
0.00399137
0.00398477
0.00398099
0.0039748
0.00396957
0.00396146
0.00484969
0.00482654
0.00480891
0.00478777
0.00477203
0.0047514
0.00473599
0.00471594
0.00470213
0.00468401
0.00467197
0.00465544
0.00464451
0.00462938
0.00461959
0.00460575
0.004597
0.00458389
0.00457545
0.00456237
0.00455348
0.00453995
0.00453046
0.0045168
0.0045072
0.00449415
0.00448535
0.0044734
0.00446597
0.00445527
0.00444881
0.00443903
0.00443304
0.00442369
0.00441819
0.0044091
0.00440372
0.00439521
0.00438972
0.00438102
0.00437492
0.004366
0.00435964
0.00435053
0.00434387
0.00433467
0.00432791
0.00431865
0.00431205
0.00430288
0.00429663
0.00428758
0.00428176
0.00427299
0.00426779
0.00425936
0.0042547
0.00424645
0.00424205
0.00423373
0.00422933
0.00422086
0.00421627
0.0042076
0.00420283
0.00419398
0.00418897
0.00417997
0.00417481
0.00416578
0.00416052
0.00415146
0.00414613
0.00413704
0.00413168
0.00412267
0.00411733
0.00410848
0.00410328
0.00409464
0.00408972
0.00408136
0.00407674
0.00406871
0.00406443
0.00405678
0.00405279
0.00404544
0.0040417
0.00403464
0.0040311
0.00402423
0.00402076
0.00401404
0.00401057
0.00400394
0.00400038
0.00399353
0.00399062
0.00397903
0.00485582
0.00483343
0.00481645
0.00479579
0.00478052
0.00476042
0.00474576
0.00472594
0.004712
0.0046934
0.00468135
0.00466442
0.00465373
0.00463828
0.00462853
0.00461441
0.00460535
0.0045921
0.00458345
0.00457051
0.00456186
0.00454882
0.00453998
0.00452697
0.00451837
0.00450596
0.00449812
0.00448649
0.00447934
0.0044681
0.0044613
0.00445082
0.00444437
0.00443455
0.00442884
0.00441937
0.00441421
0.00440497
0.00440002
0.00439078
0.00438561
0.00437649
0.00437108
0.00436183
0.00435615
0.00434687
0.00434109
0.00433195
0.00432638
0.00431743
0.00431212
0.00430336
0.00429839
0.00428985
0.00428524
0.00427693
0.00427264
0.00426441
0.00426024
0.00425198
0.00424776
0.00423936
0.00423506
0.00422633
0.00422187
0.00421284
0.00420815
0.00419897
0.00419407
0.0041848
0.00417985
0.00417056
0.00416557
0.00415638
0.00415142
0.00414242
0.00413749
0.00412871
0.00412398
0.00411539
0.00411086
0.0041025
0.00409822
0.00409007
0.00408596
0.00407805
0.00407407
0.0040663
0.00406243
0.00405476
0.00405093
0.00404331
0.00403947
0.00403187
0.004028
0.00402037
0.00401634
0.00400884
0.00400379
0.00399528
0.00485899
0.00483747
0.0048215
0.00480055
0.00478616
0.00476639
0.0047529
0.00473332
0.00472009
0.00470127
0.00468908
0.00467171
0.00466084
0.00464523
0.0046356
0.00462138
0.00461252
0.00459929
0.00459088
0.00457823
0.00456987
0.00455728
0.00454871
0.00453597
0.00452734
0.0045146
0.00450623
0.00449367
0.00448589
0.00447388
0.00446674
0.00445571
0.00444915
0.00443904
0.00443345
0.00442408
0.00441933
0.0044107
0.0044064
0.00439772
0.00439332
0.00438461
0.00437975
0.00437055
0.00436512
0.00435552
0.00434978
0.00434009
0.00433439
0.00432497
0.0043196
0.00431063
0.00430572
0.00429712
0.00429248
0.00428394
0.00427945
0.00427095
0.00426664
0.00425821
0.00425393
0.00424545
0.00424116
0.00423243
0.00422799
0.00421908
0.00421455
0.0042055
0.00420093
0.00419187
0.00418728
0.00417828
0.00417374
0.00416483
0.00416037
0.00415167
0.00414736
0.00413885
0.00413463
0.00412624
0.00412204
0.00411375
0.00410959
0.00410134
0.00409722
0.00408902
0.00408494
0.00407676
0.00407266
0.00406443
0.00406027
0.00405199
0.00404781
0.00403941
0.00403519
0.00402668
0.00402235
0.00401361
0.0040098
0.0039981
0.00486131
0.00483996
0.00482515
0.00480387
0.00478974
0.00476973
0.00475712
0.00473825
0.00472592
0.0047076
0.0046958
0.00467853
0.00466826
0.00465303
0.00464416
0.00463008
0.00462153
0.0046079
0.0045993
0.00458594
0.0045772
0.00456391
0.00455496
0.00454169
0.00453275
0.00451974
0.0045112
0.0044986
0.00449075
0.0044787
0.00447168
0.0044607
0.0044545
0.00444478
0.00443969
0.00443118
0.00442688
0.00441892
0.00441482
0.00440663
0.00440232
0.00439379
0.00438903
0.00437958
0.00437416
0.00436431
0.00435853
0.0043486
0.00434273
0.00433293
0.00432714
0.00431745
0.00431176
0.00430219
0.00429668
0.00428729
0.00428218
0.00427314
0.00426855
0.00425981
0.00425538
0.00424668
0.00424226
0.00423339
0.00422877
0.00421977
0.00421499
0.00420592
0.00420108
0.00419205
0.00418724
0.00417831
0.00417367
0.00416489
0.00416049
0.00415214
0.00414802
0.00413987
0.00413578
0.00412768
0.00412362
0.00411554
0.00411148
0.00410339
0.00409935
0.00409127
0.00408715
0.00407893
0.00407473
0.00406639
0.00406206
0.00405357
0.00404911
0.00404029
0.00403575
0.00402669
0.00402206
0.00401278
0.00400869
0.00399674
0.00486321
0.00484115
0.00482806
0.00480713
0.00479399
0.00477411
0.00476271
0.00474393
0.00473348
0.00471594
0.00470508
0.00468779
0.00467711
0.00466055
0.00465076
0.00463595
0.00462733
0.00461333
0.00460509
0.00459135
0.0045833
0.00457001
0.00456212
0.00454909
0.00454128
0.00452862
0.00452099
0.00450879
0.00450155
0.00448969
0.00448319
0.00447196
0.0044661
0.00445581
0.00445043
0.00444053
0.00443558
0.00442612
0.00442127
0.00441193
0.00440725
0.0043981
0.00439328
0.00438376
0.00437861
0.00436874
0.004363
0.00435285
0.00434683
0.00433656
0.00433047
0.00432011
0.00431416
0.00430376
0.00429794
0.00428777
0.00428233
0.00427256
0.0042675
0.00425802
0.00425316
0.00424378
0.00423887
0.00422951
0.00422452
0.00421513
0.00421006
0.00420066
0.00419556
0.0041862
0.00418119
0.00417208
0.00416727
0.00415846
0.00415387
0.00414531
0.0041409
0.00413252
0.00412823
0.00412004
0.00411579
0.00410773
0.00410371
0.00409577
0.00409177
0.00408384
0.00407978
0.00407162
0.00406747
0.0040592
0.00405493
0.00404648
0.00404208
0.00403341
0.00402884
0.00401981
0.00401503
0.00400573
0.00400031
0.00399041
0.00486394
0.00484263
0.00483016
0.00480997
0.00479749
0.00477794
0.00476625
0.0047484
0.0047383
0.00472152
0.00471152
0.00469417
0.00468358
0.00466662
0.00465715
0.00464172
0.00463366
0.0046193
0.00461155
0.00459784
0.00459041
0.00457715
0.00456961
0.00455628
0.00454877
0.0045356
0.00452839
0.00451582
0.00450888
0.00449669
0.00449019
0.0044784
0.00447206
0.00446079
0.00445472
0.00444396
0.00443833
0.00442801
0.00442265
0.00441296
0.00440813
0.00439855
0.00439357
0.00438375
0.00437859
0.00436845
0.00436296
0.00435225
0.00434636
0.00433545
0.00432934
0.00431841
0.00431219
0.00430114
0.00429487
0.00428377
0.00427774
0.00426685
0.0042611
0.00425043
0.00424478
0.00423419
0.00422855
0.00421805
0.0042125
0.00420228
0.00419701
0.00418709
0.00418206
0.00417248
0.00416765
0.00415831
0.00415362
0.00414448
0.00413991
0.00413093
0.00412645
0.0041176
0.00411318
0.00410441
0.00410001
0.00409125
0.00408687
0.00407809
0.00407367
0.0040649
0.00406049
0.00405167
0.00404724
0.00403841
0.00403397
0.00402513
0.0040207
0.00401184
0.00400736
0.0039985
0.00399382
0.00398517
0.00397957
0.00396998
0.00486459
0.00484347
0.00483065
0.00481089
0.00479969
0.00478042
0.00476929
0.00475125
0.00474117
0.0047252
0.00471574
0.00469963
0.00469056
0.0046744
0.00466432
0.00464803
0.00463887
0.0046239
0.00461589
0.00460188
0.0045944
0.00458062
0.0045731
0.00455936
0.00455186
0.0045382
0.00453093
0.00451769
0.00451066
0.00449802
0.00449138
0.00447935
0.00447307
0.0044617
0.00445569
0.00444461
0.00443868
0.00442802
0.00442272
0.00441245
0.00440723
0.00439698
0.00439155
0.00438101
0.0043752
0.00436449
0.00435834
0.00434736
0.00434101
0.00432979
0.00432326
0.00431185
0.00430511
0.00429345
0.00428659
0.00427495
0.00426829
0.00425691
0.00425056
0.00423947
0.00423342
0.00422252
0.00421667
0.00420605
0.00420042
0.00419018
0.00418485
0.00417499
0.00416991
0.00416044
0.00415552
0.0041463
0.00414135
0.00413223
0.00412713
0.00411804
0.00411273
0.00410359
0.00409802
0.00408884
0.00408304
0.00407383
0.00406793
0.00405867
0.00405277
0.00404349
0.00403775
0.00402853
0.00402305
0.00401398
0.00400877
0.00399984
0.00399488
0.0039861
0.00398134
0.00397268
0.00396805
0.00395936
0.00395564
0.00394282
0.00486482
0.00484364
0.00483143
0.00481185
0.00480056
0.00478256
0.00477166
0.00475428
0.00474464
0.00472812
0.00471984
0.00470409
0.00469603
0.00468031
0.00467084
0.00465448
0.0046451
0.00462923
0.00462108
0.00460608
0.00459882
0.00458444
0.00457722
0.00456354
0.00455618
0.0045427
0.00453549
0.00452186
0.00451465
0.00450145
0.00449441
0.00448171
0.00447493
0.00446273
0.00445639
0.00444471
0.00443881
0.00442732
0.00442156
0.00441002
0.00440424
0.0043926
0.00438651
0.00437495
0.00436868
0.00435724
0.00435077
0.00433942
0.0043328
0.00432142
0.00431475
0.00430346
0.00429683
0.0042855
0.00427892
0.00426762
0.00426122
0.00425002
0.00424383
0.00423277
0.00422681
0.00421588
0.00421009
0.00419934
0.00419366
0.00418307
0.0041775
0.00416712
0.00416165
0.00415159
0.00414624
0.00413644
0.00413114
0.00412154
0.00411622
0.00410676
0.00410133
0.0040919
0.00408631
0.00407687
0.00407117
0.00406173
0.00405602
0.00404666
0.00404104
0.00403173
0.00402629
0.00401706
0.00401185
0.00400275