/*--------------------------------*- C++ -*----------------------------------*\
  =========                 |
  \\      /  F ield         | OpenFOAM: The Open Source CFD Toolbox
   \\    /   O peration     | Website:  https://openfoam.org
    \\  /    A nd           | Version:  8
     \\/     M anipulation  |
\*---------------------------------------------------------------------------*/
FoamFile
{
    version     2.0;
    format      ascii;
    class       volScalarField;
    location    "1.500023";
    object      supersat;
}
// * * * * * * * * * * * * * * * * * * * * * * * * * * * * * * * * * * * * * //

dimensions      [0 0 0 0 0 0 0];

internalField   nonuniform List<scalar> 
6800
(
1.95526
1.95329
1.95388
1.95744
1.96553
1.98244
2.00134
2.01003
2.0131
2.01374
1.95456
1.95317
1.95717
1.96779
1.99043
2.00744
2.01325
2.01512
2.01512
2.01441
1.95549
1.95801
1.96807
1.99145
2.00838
2.01415
2.01614
2.01605
2.01465
2.01257
1.95598
1.97299
1.98425
2.00782
2.0159
2.0178
2.01696
2.01555
2.01376
2.01222
1.96148
1.98684
2.00187
2.0152
2.01809
2.01799
2.01697
2.01521
2.01338
2.01176
1.95838
2.00184
2.0067
2.0174
2.01863
2.01817
2.01577
2.01343
2.01179
2.01123
1.96396
2.00587
2.01467
2.02175
2.01992
2.01787
2.0148
2.01321
2.01271
2.01317
1.98257
2.0236
2.02082
2.02344
2.02
2.0177
2.01471
2.01377
2.01371
2.01365
1.99657
2.02899
2.02592
2.02437
2.02131
2.01878
2.01546
2.014
2.0136
2.01391
2.01616
2.03997
2.03249
2.02522
2.02032
2.01905
2.01709
2.01616
2.0148
2.01419
1.95457
1.95429
1.95401
1.95397
1.95402
1.95413
1.95427
1.95444
1.9546
1.95476
1.95459
1.95428
1.95402
1.95397
1.95402
1.95412
1.95427
1.95443
1.95462
1.9548
1.95465
1.95427
1.95404
1.95398
1.95402
1.95412
1.95426
1.95444
1.95465
1.95488
1.95474
1.95429
1.95406
1.95399
1.95402
1.9541
1.95422
1.95437
1.95457
1.95485
1.95483
1.9543
1.95407
1.954
1.95401
1.95408
1.95418
1.95427
1.95439
1.95458
1.95479
1.95428
1.95405
1.95398
1.95402
1.95412
1.95427
1.95435
1.95431
1.95429
1.95476
1.95423
1.954
1.95401
1.95413
1.95435
1.95471
1.95518
1.95557
1.9571
1.95475
1.95414
1.95396
1.95404
1.95425
1.95478
1.95582
1.95791
1.96067
1.96929
1.95464
1.95398
1.9538
1.9539
1.95457
1.95667
1.96018
1.96762
1.97525
1.99397
1.95523
1.9537
1.9532
1.95424
1.95702
1.96349
1.97365
1.9903
2.00316
2.01054
1.95496
1.95518
1.95537
1.95549
1.95557
1.9556
1.95559
1.95553
1.95543
1.9553
1.95514
1.95496
1.95475
1.95454
1.95432
1.95412
1.95392
1.95374
1.9536
1.95349
1.95341
1.95338
1.95339
1.95345
1.95355
1.95371
1.95392
1.95418
1.95448
1.95483
1.95523
1.95568
1.95619
1.95675
1.95739
1.95807
1.95881
1.95958
1.96037
1.96119
1.962
1.96279
1.96355
1.96426
1.96492
1.96552
1.96606
1.96654
1.96695
1.96731
1.96762
1.96788
1.96809
1.96827
1.96842
1.96855
1.96867
1.96879
1.96891
1.96903
1.96917
1.96933
1.9695
1.96969
1.9699
1.97013
1.97038
1.97064
1.97092
1.9712
1.9715
1.97181
1.97211
1.97242
1.97273
1.97304
1.97334
1.97363
1.97392
1.9742
1.97446
1.97473
1.97498
1.97523
1.97546
1.97569
1.97592
1.97613
1.97634
1.97653
1.97672
1.9769
1.97707
1.97723
1.97739
1.97752
1.97768
1.97778
1.97793
1.97807
1.95504
1.95531
1.95553
1.95569
1.95579
1.95584
1.95585
1.95581
1.95573
1.9556
1.95545
1.95526
1.95506
1.95484
1.9546
1.95436
1.95412
1.9539
1.95369
1.95351
1.95337
1.95326
1.95321
1.9532
1.95325
1.95336
1.95354
1.95377
1.95406
1.9544
1.9548
1.95527
1.9558
1.9564
1.95707
1.95779
1.95856
1.95936
1.96017
1.96099
1.96179
1.96256
1.96329
1.96397
1.96459
1.96516
1.96567
1.96612
1.96651
1.96685
1.96715
1.9674
1.96761
1.96779
1.96795
1.9681
1.96823
1.96837
1.96851
1.96866
1.96882
1.96899
1.96919
1.9694
1.96963
1.96988
1.97014
1.97041
1.9707
1.971
1.9713
1.97161
1.97193
1.97224
1.97255
1.97286
1.97316
1.97345
1.97374
1.97401
1.97428
1.97455
1.9748
1.97505
1.97528
1.97552
1.97574
1.97595
1.97616
1.97635
1.97654
1.97672
1.97689
1.97704
1.97721
1.97734
1.97749
1.9776
1.97774
1.97788
1.95515
1.95551
1.95579
1.956
1.95615
1.95624
1.95628
1.95626
1.9562
1.9561
1.95597
1.95581
1.95561
1.95539
1.95515
1.95487
1.95458
1.95427
1.95396
1.95367
1.95339
1.95314
1.95295
1.95282
1.95276
1.95278
1.9529
1.95307
1.95333
1.95366
1.95406
1.95455
1.95512
1.95578
1.95652
1.95732
1.95814
1.95897
1.9598
1.9606
1.96137
1.9621
1.96277
1.96339
1.96396
1.96447
1.96494
1.96535
1.96572
1.96605
1.96633
1.96658
1.9668
1.967
1.96718
1.96736
1.96753
1.9677
1.96787
1.96806
1.96826
1.96847
1.9687
1.96894
1.96919
1.96946
1.96974
1.97003
1.97033
1.97064
1.97095
1.97127
1.97159
1.9719
1.97222
1.97252
1.97282
1.97311
1.9734
1.97367
1.97394
1.97421
1.97446
1.97471
1.97495
1.97518
1.97541
1.97562
1.97583
1.97602
1.97621
1.97639
1.97656
1.97671
1.97687
1.977
1.97715
1.97727
1.97739
1.97755
1.95518
1.95569
1.95605
1.95633
1.95653
1.95667
1.95674
1.95675
1.95673
1.95668
1.95659
1.95647
1.9563
1.95611
1.95587
1.95558
1.95524
1.95485
1.95443
1.95399
1.95355
1.95313
1.95277
1.95248
1.95229
1.95222
1.95226
1.95239
1.9526
1.95293
1.95337
1.95392
1.95457
1.95532
1.95613
1.95701
1.95788
1.95873
1.95954
1.96031
1.96102
1.96166
1.96225
1.96278
1.96326
1.96371
1.96411
1.96448
1.96482
1.96513
1.96541
1.96567
1.96591
1.96614
1.96636
1.96658
1.96679
1.96701
1.96724
1.96747
1.96771
1.96796
1.96822
1.96849
1.96877
1.96906
1.96935
1.96966
1.96997
1.97028
1.9706
1.97092
1.97123
1.97154
1.97185
1.97215
1.97245
1.97273
1.97301
1.97329
1.97356
1.97382
1.97407
1.97432
1.97456
1.97479
1.97502
1.97523
1.97544
1.97563
1.97582
1.97599
1.97616
1.97631
1.97646
1.97659
1.97674
1.97686
1.97697
1.97714
1.9551
1.95586
1.95635
1.95669
1.95693
1.9571
1.95718
1.95722
1.95723
1.95722
1.9572
1.95714
1.95706
1.95693
1.95675
1.95648
1.95614
1.9557
1.95517
1.9546
1.954
1.9534
1.95286
1.95242
1.95212
1.95201
1.95205
1.95217
1.95235
1.9527
1.9532
1.95383
1.95459
1.95546
1.95638
1.95734
1.95825
1.95907
1.95982
1.96049
1.9611
1.96163
1.96211
1.96253
1.96293
1.96329
1.96363
1.96396
1.96427
1.96456
1.96484
1.9651
1.96537
1.96563
1.96588
1.96614
1.9664
1.96667
1.96694
1.96721
1.96749
1.96777
1.96805
1.96834
1.96863
1.96893
1.96923
1.96953
1.96984
1.97015
1.97046
1.97076
1.97107
1.97137
1.97166
1.97194
1.97222
1.9725
1.97277
1.97303
1.97329
1.97355
1.9738
1.97404
1.97428
1.9745
1.97472
1.97493
1.97513
1.97531
1.97549
1.97566
1.97582
1.97596
1.97611
1.97623
1.97637
1.97649
1.97658
1.97676
1.95535
1.95637
1.957
1.95738
1.95763
1.95778
1.95783
1.95788
1.95793
1.95797
1.95803
1.95809
1.95815
1.95816
1.95808
1.9579
1.95757
1.9571
1.95649
1.95577
1.95503
1.95432
1.9537
1.95324
1.95295
1.95295
1.95302
1.95323
1.95342
1.95384
1.95444
1.9552
1.95609
1.95707
1.95808
1.95907
1.95999
1.9607
1.96131
1.96185
1.96229
1.96265
1.96297
1.96326
1.96353
1.96379
1.96406
1.96432
1.96459
1.96486
1.96512
1.9654
1.96568
1.96596
1.96624
1.96653
1.96683
1.96712
1.96741
1.96771
1.968
1.96829
1.96857
1.96886
1.96914
1.96942
1.9697
1.96998
1.97026
1.97054
1.97082
1.9711
1.97137
1.97164
1.9719
1.97215
1.9724
1.97265
1.9729
1.97314
1.97338
1.97361
1.97385
1.97407
1.97429
1.9745
1.97471
1.9749
1.97508
1.97525
1.97541
1.97556
1.97571
1.97584
1.97597
1.97608
1.9762
1.97631
1.97639
1.97658
1.95834
1.95885
1.95937
1.95945
1.95962
1.95961
1.95954
1.95971
1.95982
1.95994
1.96015
1.96031
1.96054
1.96076
1.96085
1.96081
1.96057
1.96014
1.95952
1.95879
1.95804
1.95734
1.95685
1.95654
1.95645
1.95663
1.95675
1.95706
1.95739
1.95795
1.95867
1.95956
1.96054
1.96155
1.96255
1.96344
1.96425
1.96472
1.96506
1.96536
1.96555
1.96566
1.96578
1.9659
1.96603
1.96616
1.96633
1.9665
1.96669
1.9669
1.96712
1.96736
1.96763
1.96789
1.96817
1.96844
1.96872
1.96899
1.96927
1.96955
1.96981
1.97007
1.97031
1.97055
1.97077
1.97099
1.97121
1.97144
1.97166
1.97188
1.9721
1.97232
1.97253
1.97273
1.97293
1.97313
1.97332
1.97352
1.97372
1.97392
1.97411
1.97431
1.97451
1.9747
1.97488
1.97506
1.97523
1.97539
1.97554
1.97568
1.97581
1.97593
1.97605
1.97616
1.97626
1.97635
1.97644
1.97654
1.9766
1.97678
1.96884
1.96789
1.96695
1.96641
1.96582
1.96543
1.96545
1.96541
1.96544
1.96547
1.96604
1.96596
1.96635
1.96693
1.96737
1.96767
1.96769
1.96752
1.96712
1.96663
1.96616
1.96569
1.96581
1.96597
1.96617
1.96623
1.96652
1.96691
1.9676
1.9683
1.96918
1.97013
1.97102
1.97174
1.97245
1.97283
1.97312
1.9731
1.97295
1.97282
1.97259
1.97224
1.9721
1.97202
1.97198
1.97191
1.97192
1.97188
1.97188
1.97192
1.97198
1.9721
1.97226
1.97242
1.97258
1.97275
1.97288
1.97306
1.97324
1.97345
1.97362
1.97379
1.97394
1.97406
1.97417
1.97428
1.97438
1.97448
1.97459
1.9747
1.97481
1.97492
1.97502
1.97512
1.97521
1.97531
1.97542
1.97553
1.97564
1.97576
1.97588
1.97601
1.97613
1.97626
1.97638
1.9765
1.97661
1.97672
1.97681
1.9769
1.97699
1.97706
1.97713
1.9772
1.97726
1.97732
1.97737
1.97744
1.97747
1.97761
1.99257
1.99036
1.98816
1.98647
1.98505
1.98368
1.98281
1.98213
1.98176
1.98187
1.98217
1.98182
1.98231
1.9827
1.98331
1.98397
1.98472
1.98525
1.98553
1.98568
1.98597
1.98619
1.9863
1.98663
1.98665
1.98681
1.98718
1.98751
1.98817
1.98887
1.98934
1.99023
1.99034
1.99059
1.99075
1.99028
1.9895
1.98872
1.98791
1.98721
1.98653
1.98569
1.98514
1.98458
1.98418
1.98375
1.98331
1.98295
1.98252
1.982
1.98134
1.9811
1.98095
1.98093
1.98077
1.9806
1.9802
1.98011
1.98005
1.98026
1.98021
1.98034
1.98038
1.98033
1.98024
1.98014
1.98004
1.97994
1.97985
1.97976
1.97968
1.9796
1.97953
1.97945
1.97938
1.97932
1.97926
1.97922
1.97919
1.97918
1.97916
1.97917
1.97918
1.9792
1.97922
1.97924
1.97926
1.97927
1.97928
1.9793
1.9793
1.97932
1.97932
1.97933
1.97933
1.97932
1.97934
1.97936
1.97936
1.97938
2.00943
2.00801
2.00646
2.00519
2.00422
2.00335
2.00279
2.00248
2.00227
2.00228
2.00229
2.00229
2.0023
2.00202
2.00165
2.00102
2.00018
1.99929
1.9983
1.99755
1.99677
1.99646
1.99618
1.99583
1.99573
1.99602
1.996
1.99615
1.9965
1.9972
1.99761
1.99795
1.99806
1.99812
1.99787
1.99719
1.99648
1.99569
1.99488
1.99462
1.99401
1.99375
1.99373
1.99358
1.99348
1.99342
1.99337
1.99335
1.99332
1.99334
1.99333
1.99344
1.9933
1.99339
1.99302
1.99292
1.9928
1.99246
1.99206
1.99186
1.99194
1.99182
1.9915
1.99109
1.99062
1.99013
1.98965
1.98916
1.9887
1.98825
1.98782
1.98741
1.98701
1.98663
1.98628
1.98595
1.98564
1.98536
1.98511
1.98487
1.98464
1.98444
1.98426
1.98411
1.98396
1.98382
1.98369
1.98357
1.98344
1.98333
1.98321
1.98311
1.983
1.98291
1.9828
1.98272
1.98263
1.98256
1.98248
1.98242
2.01241
2.01176
2.0108
2.00999
2.00938
2.0089
2.00854
2.0083
2.00805
2.00786
2.00762
2.00725
2.00675
2.00598
2.00509
2.00401
2.0028
2.00163
2.00047
1.99958
1.99874
1.99834
1.99799
1.99724
1.99726
1.99738
1.99749
1.99765
1.9982
1.99819
1.99843
1.9986
1.99897
1.99894
1.99849
1.99772
1.99703
1.99627
1.99574
1.99537
1.99535
1.99517
1.99541
1.99532
1.99523
1.99533
1.99555
1.99584
1.99618
1.99659
1.99699
1.99746
1.99786
1.99828
1.99864
1.99892
1.99916
1.99935
1.99944
1.99938
1.99941
1.9993
1.99929
1.99921
1.99908
1.99892
1.99873
1.99851
1.99827
1.998
1.99768
1.99735
1.99698
1.9966
1.99618
1.99576
1.9953
1.99482
1.99432
1.99381
1.99326
1.99273
1.99223
1.99176
1.99131
1.99089
1.99048
1.9901
1.98975
1.98943
1.98912
1.98884
1.98857
1.98833
1.9881
1.98787
1.98769
1.98746
1.98733
1.9871
2.01114
2.01087
2.0103
2.00998
2.0097
2.00939
2.00909
2.00882
2.00852
2.00823
2.00783
2.00729
2.00657
2.00569
2.00461
2.00348
2.00239
2.00131
2.00032
1.99949
1.99897
1.99852
1.9985
1.99799
1.99839
1.99799
1.99803
1.99817
1.99835
1.99898
1.9991
1.99936
1.99937
1.999
1.99845
1.9978
1.99723
1.99696
1.99679
1.99642
1.9961
1.99608
1.99602
1.99593
1.99586
1.99588
1.99607
1.99635
1.99665
1.99701
1.99735
1.9977
1.99806
1.9984
1.99873
1.99902
1.99931
1.99951
1.9997
1.99981
1.99994
2
2.0001
2.00015
2.00019
2.00026
2.00031
2.00039
2.00046
2.00055
2.00059
2.0006
2.00062
2.0006
2.00056
2.00048
2.00041
2.00032
2.00024
2.00007
1.9999
1.99965
1.99942
1.99908
1.99875
1.99836
1.99801
1.99763
1.99732
1.99696
1.99668
1.99633
1.99607
1.99571
1.99547
1.99509
1.99486
1.99444
1.99426
1.99362
2.0106
2.01039
2.01001
2.00975
2.00946
2.00912
2.00872
2.00836
2.00799
2.00759
2.00715
2.0066
2.00596
2.00517
2.00432
2.0034
2.00245
2.00144
2.00061
1.99989
1.99941
1.99902
1.9988
1.99865
1.99872
1.99824
1.99849
1.99872
1.99929
1.99933
1.99957
1.99973
1.99964
1.99941
1.99887
1.99876
1.99798
1.99753
1.99743
1.99711
1.99674
1.99672
1.9967
1.99657
1.99649
1.99652
1.99664
1.99683
1.99709
1.99736
1.99765
1.99791
1.99821
1.99844
1.99873
1.99894
1.99917
1.99934
1.9995
1.99961
1.9997
1.99979
1.99983
1.99991
1.99993
1.99998
2.00001
2.00006
2.0001
2.00017
2.00023
2.00031
2.00038
2.00043
2.00048
2.00051
2.00053
2.00054
2.00054
2.00054
2.00054
2.00054
2.00052
2.00047
2.00045
2.00043
2.00041
2.00036
2.0003
2.00022
2.00014
2.00004
1.99997
1.99987
1.9998
1.99971
1.99965
1.99955
1.99947
1.99933
2.01045
2.01016
2.00973
2.00956
2.00934
2.00901
2.00861
2.0082
2.00782
2.00742
2.00702
2.00652
2.00594
2.0052
2.00446
2.00357
2.00275
2.00191
2.00124
2.00068
2.0002
1.99991
1.99972
1.99966
1.99969
1.99978
1.9999
2.00002
2.00005
2.0001
2.0001
2.00003
1.99985
1.9995
1.99929
1.99875
1.99819
1.9978
1.99757
1.99711
1.99681
1.99677
1.9968
1.99672
1.99673
1.99675
1.99686
1.99701
1.99724
1.99747
1.99774
1.99797
1.99822
1.99843
1.99862
1.99879
1.99895
1.99909
1.9992
1.9993
1.99937
1.99944
1.99948
1.99953
1.99956
1.99959
1.9996
1.99962
1.99963
1.99965
1.99966
1.99967
1.9997
1.99972
1.99976
1.99978
1.99981
1.99983
1.99986
1.99987
1.9999
1.99992
1.99993
1.99996
1.99998
2.00001
2.00004
2.00008
2.00011
2.00014
2.00016
2.00019
2.00021
2.00022
2.00024
2.00028
2.0003
2.00032
2.00034
2.00036
2.01045
2.01028
2.00963
2.00937
2.00925
2.00904
2.00873
2.00832
2.0079
2.00746
2.007
2.0065
2.00596
2.00524
2.0046
2.00379
2.00307
2.00229
2.00161
2.00102
2.00054
2.00024
2
1.99992
1.9999
1.99992
2
2.00005
2.00012
2.00009
2.00007
1.99997
1.9997
1.99952
1.99916
1.99867
1.99819
1.998
1.9976
1.99724
1.99721
1.99714
1.99706
1.99702
1.99705
1.99709
1.99711
1.99718
1.99733
1.99752
1.99774
1.99797
1.99818
1.99838
1.99856
1.99874
1.99891
1.99906
1.99919
1.99929
1.99936
1.99942
1.99945
1.99948
1.9995
1.99951
1.99952
1.99951
1.99951
1.99951
1.99951
1.99951
1.99951
1.99953
1.99954
1.99958
1.99961
1.99965
1.99969
1.99972
1.99976
1.99978
1.99981
1.99984
1.99986
1.99989
1.99991
1.99994
1.99997
1.99999
2.00002
2.00004
2.00005
2.00007
2.00009
2.00009
2.00011
2.00011
2.00013
2.00015
2.01005
2.01002
2.00943
2.00891
2.00867
2.00856
2.00838
2.00805
2.00766
2.00716
2.00669
2.00614
2.0056
2.00496
2.00434
2.00359
2.00293
2.00221
2.00163
2.0011
2.00066
2.00035
2.00009
2
1.99993
1.99993
1.99998
2.00001
2.00008
2.00002
1.99992
1.99969
1.99941
1.99925
1.99889
1.99854
1.9983
1.99801
1.99778
1.99742
1.99752
1.9975
1.99747
1.99741
1.99752
1.99755
1.99753
1.99751
1.99759
1.99772
1.99788
1.99809
1.99826
1.99845
1.99861
1.99879
1.99894
1.9991
1.99922
1.99935
1.99944
1.99953
1.99958
1.99964
1.99967
1.99972
1.99973
1.99977
1.99978
1.99981
1.99982
1.99987
1.99989
1.99995
1.99999
2.00004
2.00007
2.00015
2.00016
2.00017
2.00017
2.00016
2.00014
1.99999
2
1.99993
1.99988
1.99987
1.99989
1.9999
1.99993
1.99994
1.99995
1.99994
1.99995
1.99991
1.99992
1.99989
1.99986
1.99995
2.00897
2.00884
2.00866
2.00813
2.00776
2.00754
2.00737
2.00719
2.00682
2.00641
2.00594
2.00545
2.00497
2.00442
2.00386
2.00324
2.00264
2.00201
2.00145
2.00093
2.00053
2.00021
2
1.9999
1.99979
1.99984
1.99982
1.99982
1.99976
1.99966
1.99957
1.99935
1.99917
1.99902
1.99871
1.99857
1.99835
1.99806
1.99785
1.99764
1.9978
1.99777
1.99769
1.99766
1.99771
1.9977
1.9977
1.99764
1.99765
1.99775
1.99789
1.99806
1.99823
1.9984
1.99854
1.99868
1.9988
1.99892
1.99904
1.99913
1.99923
1.99928
1.99934
1.99937
1.9994
1.99941
1.99943
1.99944
1.99946
1.99947
1.99949
1.99951
1.99954
1.99959
1.99962
1.99967
1.99969
1.99975
1.99979
1.99987
1.99993
1.99999
2.00005
2.00009
2.00014
2.00016
2.00021
2.00028
2.00028
2.0003
2.0003
2.00031
2.00029
2.00028
2.00021
2.00013
1.99997
1.99996
1.99993
1.99993
2.00788
2.00799
2.00782
2.00737
2.00697
2.00668
2.00649
2.00634
2.00605
2.00571
2.00526
2.00486
2.00439
2.00394
2.00342
2.00292
2.00235
2.00185
2.00132
2.0009
2.0005
2.00025
2.00004
1.99991
1.99985
1.99982
1.99979
1.99971
1.99959
1.99946
1.99933
1.99911
1.99901
1.99883
1.9986
1.99849
1.99828
1.99803
1.99778
1.99772
1.99776
1.99776
1.99771
1.99773
1.9977
1.99764
1.99764
1.99759
1.9976
1.99764
1.99773
1.99784
1.99799
1.99812
1.99825
1.99836
1.99846
1.99853
1.9986
1.99864
1.9987
1.99873
1.99877
1.9988
1.99881
1.99883
1.99887
1.9989
1.99893
1.99895
1.99897
1.999
1.99902
1.99907
1.99909
1.99914
1.99917
1.99926
1.99928
1.99926
1.99924
1.99925
1.99927
1.99932
1.99934
1.99937
1.9994
1.99943
1.99945
1.99947
1.99948
1.99951
1.99951
1.99951
1.99951
1.99949
1.99946
1.99939
1.99931
1.99932
2.00692
2.00696
2.00694
2.00659
2.00629
2.00599
2.00564
2.0054
2.00532
2.00512
2.00477
2.00448
2.00404
2.00363
2.00312
2.00266
2.00216
2.0017
2.00125
2.00084
2.00049
2.00021
2.00001
1.99985
1.99977
1.99967
1.99957
1.9995
1.99936
1.99928
1.99918
1.99899
1.99894
1.99873
1.99861
1.99845
1.99827
1.99812
1.99786
1.99789
1.99782
1.9977
1.99772
1.99765
1.99758
1.99757
1.9976
1.9976
1.99756
1.99756
1.99758
1.99761
1.99767
1.99773
1.99782
1.9979
1.998
1.99808
1.99817
1.99823
1.99829
1.99831
1.99834
1.99837
1.99839
1.99844
1.99846
1.9985
1.99855
1.9986
1.99862
1.99867
1.9987
1.99877
1.99879
1.9988
1.99888
1.99889
1.99891
1.99892
1.99895
1.99885
1.99888
1.99887
1.99877
1.99866
1.99869
1.99865
1.99862
1.99862
1.99862
1.9986
1.99864
1.99864
1.99863
1.99864
1.99863
1.99862
1.99863
1.99865
2.0064
2.00618
2.00584
2.00591
2.00572
2.00544
2.00508
2.00488
2.00463
2.00448
2.00424
2.00407
2.00374
2.00336
2.00287
2.0024
2.00193
2.00149
2.00108
2.00068
2.00038
2.00007
1.99991
1.99973
1.99965
1.99955
1.99949
1.99943
1.99931
1.99926
1.99913
1.99902
1.99894
1.9988
1.99866
1.99855
1.99838
1.99818
1.99795
1.99795
1.99787
1.99766
1.9976
1.99747
1.99749
1.99743
1.99743
1.99746
1.99747
1.9975
1.99752
1.99754
1.99755
1.99757
1.99762
1.99767
1.99775
1.9978
1.99787
1.99792
1.99797
1.99802
1.99806
1.99813
1.99818
1.99824
1.99829
1.99834
1.99838
1.99841
1.99845
1.99848
1.9985
1.99858
1.9986
1.99866
1.99862
1.99859
1.99852
1.99855
1.99854
1.99846
1.99849
1.99844
1.99844
1.99843
1.9984
1.99841
1.99837
1.99839
1.99839
1.99837
1.99835
1.99829
1.99822
1.99823
1.99823
1.99823
1.99828
1.99831
2.0059
2.00544
2.00512
2.00515
2.00529
2.00515
2.00473
2.00437
2.00402
2.00375
2.0036
2.00352
2.00329
2.00292
2.00242
2.00195
2.00149
2.00109
2.00074
2.00041
2.00016
1.99992
1.99979
1.99965
1.99959
1.99947
1.99942
1.99932
1.9992
1.99917
1.99901
1.99895
1.99882
1.99872
1.99858
1.99844
1.9983
1.9981
1.99793
1.99791
1.99774
1.99753
1.99749
1.99747
1.99742
1.99735
1.99738
1.99738
1.99743
1.99743
1.99748
1.9975
1.99754
1.99756
1.99761
1.99763
1.99767
1.99771
1.99773
1.99779
1.99781
1.99788
1.99796
1.99803
1.99815
1.99822
1.99834
1.99841
1.99853
1.99859
1.99867
1.99872
1.99878
1.99888
1.99886
1.99879
1.99867
1.9987
1.99868
1.99865
1.99863
1.9985
1.99848
1.99838
1.99829
1.99819
1.99825
1.99824
1.99823
1.99814
1.99812
1.99803
1.99807
1.99809
1.99817
1.99824
1.99834
1.99839
1.99849
1.99854
2.00528
2.00502
2.00448
2.00421
2.00422
2.00433
2.00402
2.00377
2.00306
2.0025
2.00225
2.00172
2.00171
2.00197
2.0019
2.00163
2.00127
2.00092
2.00057
2.0003
2.00001
1.99977
1.99958
1.99942
1.9993
1.99915
1.99905
1.9989
1.99879
1.9987
1.99856
1.99849
1.9984
1.99831
1.99823
1.9982
1.99806
1.99792
1.99784
1.9978
1.99765
1.99745
1.99743
1.99744
1.99738
1.99731
1.99739
1.99742
1.9975
1.9975
1.99758
1.99756
1.99754
1.99758
1.99766
1.99775
1.99784
1.99793
1.99799
1.99806
1.99812
1.99817
1.99826
1.99831
1.9984
1.99847
1.99855
1.99863
1.99872
1.99883
1.99892
1.999
1.99906
1.99911
1.99913
1.99917
1.9992
1.99923
1.99925
1.99925
1.9993
1.9993
1.99927
1.99924
1.99916
1.99903
1.99903
1.99903
1.99893
1.99892
1.99886
1.99879
1.9987
1.99872
1.9987
1.99868
1.99862
1.99862
1.99869
1.99876
2.00463
2.00455
2.00396
2.00355
2.00318
2.00324
2.00333
2.0033
2.00264
2.002
2.00132
2.00117
2.00151
2.00125
2.00146
2.00132
2.00099
2.00065
2.0003
1.99999
1.99972
1.99947
1.99933
1.99921
1.99914
1.99906
1.99895
1.9988
1.99872
1.9986
1.99841
1.99832
1.99823
1.99819
1.99816
1.99813
1.99803
1.99795
1.99793
1.99775
1.99759
1.99756
1.99761
1.99757
1.99755
1.99752
1.99756
1.99763
1.99775
1.99785
1.99783
1.99789
1.99786
1.99789
1.99798
1.9981
1.99819
1.99829
1.99837
1.99844
1.99853
1.99862
1.99873
1.99886
1.99898
1.9991
1.99917
1.99928
1.99934
1.99941
1.99946
1.99952
1.99957
1.99962
1.99965
1.99969
1.99972
1.99974
1.99975
1.99976
1.99979
1.99979
1.99978
1.99981
1.99982
1.99982
1.9998
1.99983
1.99982
1.99984
1.99984
1.99984
1.99981
1.99979
1.99975
1.99978
1.99967
1.99969
1.99967
1.99967
2.00376
2.00387
2.00392
2.00352
2.00289
2.00254
2.0025
2.00264
2.00243
2.00178
2.00132
2.00071
1.99992
1.99978
2.00026
2.00054
2.00075
2.0006
2.00034
1.99999
1.99966
1.99945
1.99925
1.99912
1.99905
1.99898
1.99891
1.99893
1.99892
1.99891
1.99885
1.99882
1.99879
1.99865
1.99863
1.99846
1.99839
1.9983
1.9982
1.99811
1.99798
1.99799
1.99803
1.99797
1.99797
1.99798
1.998
1.99801
1.99807
1.99807
1.99811
1.99815
1.99824
1.99836
1.9985
1.99863
1.99876
1.99885
1.99895
1.99902
1.99908
1.99916
1.99924
1.99933
1.99942
1.9995
1.99957
1.99965
1.99972
1.99975
1.99979
1.99981
1.99985
1.99989
1.99994
1.99997
2.00001
2.00005
2.0001
2.00013
2.00018
2.0002
2.00024
2.00027
2.00032
2.00035
2.00036
2.00042
2.00043
2.00044
2.0004
2.00043
2.00039
2.00038
2.00037
2.00038
2.00037
2.0004
2.0004
2.00041
2.00296
2.00299
2.00335
2.00286
2.00278
2.00199
2.00194
2.00177
2.00189
2.00171
2.00117
2.00063
1.99972
1.99907
1.999
1.99924
1.99927
1.99975
1.99984
1.99976
1.9994
1.99921
1.9989
1.99862
1.99844
1.99817
1.99792
1.99803
1.99797
1.99804
1.99814
1.99846
1.99859
1.99874
1.99884
1.99878
1.99875
1.9987
1.99856
1.99859
1.99843
1.99845
1.99855
1.99854
1.99859
1.99861
1.99857
1.99854
1.99859
1.99862
1.99871
1.99873
1.99877
1.99884
1.99893
1.99902
1.99911
1.99921
1.99929
1.99939
1.99945
1.99952
1.99958
1.99963
1.9997
1.99975
1.99979
1.99987
1.99994
1.99999
2.00003
2.00009
2.00012
2.00017
2.00018
2.00021
2.00023
2.00025
2.00028
2.00031
2.00034
2.00039
2.00043
2.00045
2.00044
2.00046
2.00049
2.00052
2.00057
2.00059
2.00062
2.00066
2.00067
2.0007
2.00071
2.00072
2.00072
2.00069
2.0007
2.00069
2.00252
2.00218
2.00226
2.00242
2.00257
2.00203
2.00165
2.00136
2.00142
2.00128
2.00122
2.0007
1.99974
1.9991
1.9992
1.99903
1.99912
1.99928
1.99952
1.99962
1.99942
1.99922
1.9989
1.99858
1.9984
1.99804
1.99795
1.99781
1.99779
1.9982
1.99839
1.9986
1.99891
1.99893
1.99898
1.99912
1.99917
1.99919
1.99906
1.99914
1.99901
1.99906
1.99901
1.99913
1.99936
1.99934
1.99929
1.99931
1.99933
1.99927
1.99933
1.9994
1.99943
1.99947
1.99951
1.99954
1.99958
1.9996
1.99967
1.99975
1.99992
1.99999
2.00011
2.00018
2.00018
2.00023
2.00019
2.00016
2.00012
2.00011
2.00017
2.00017
2.00025
2.0003
2.00035
2.00043
2.00047
2.0005
2.00052
2.00052
2.00053
2.00053
2.00054
2.00055
2.00056
2.00057
2.0006
2.00062
2.00065
2.00066
2.00069
2.0007
2.00073
2.00074
2.00076
2.00076
2.00078
2.00078
2.00075
2.00076
2.00204
2.00156
2.00154
2.00192
2.00174
2.00164
2.00162
2.00155
2.00141
2.00127
2.00124
2.00069
1.99988
1.99937
1.99919
1.9992
1.99951
1.99971
1.99984
1.99983
1.99984
1.9997
1.99953
1.9993
1.999
1.99886
1.99875
1.99871
1.99874
1.99875
1.99886
1.99904
1.99916
1.9993
1.99933
1.99938
1.99955
1.99962
1.99963
1.99955
1.99966
1.99969
1.99966
1.99977
1.99987
1.99991
1.99995
1.99995
1.99983
1.99982
1.99974
1.9998
1.99978
1.99976
1.99975
1.99978
1.99985
1.99984
1.99988
1.9999
1.99999
2.00008
2.00014
2.00024
2.00024
2.00026
2.00028
2.00027
2.00029
2.00027
2.00026
2.00024
2.00025
2.00026
2.00031
2.00036
2.00041
2.00043
2.00045
2.00046
2.00047
2.00045
2.00046
2.00045
2.00045
2.00047
2.00051
2.00053
2.00057
2.00059
2.00061
2.00063
2.00065
2.00065
2.00067
2.00067
2.00067
2.00067
2.00064
2.00064
2.00147
2.00102
2.00081
2.00127
2.00084
2.00117
2.00099
2.00119
2.00091
2.00092
2.001
2.00097
2.00055
2.00007
1.99981
1.99977
1.99994
1.99986
1.99997
2.00029
2.00014
2.00031
2.00028
2.00011
2.00003
1.99989
1.99988
1.99987
1.9999
1.9999
1.99989
1.99989
1.99989
1.99989
1.99993
1.99993
1.99995
1.99992
1.99992
1.99988
1.99989
1.99988
1.99987
1.99989
1.99985
1.99988
1.99992
1.99998
1.99989
1.99984
1.99983
1.99985
1.99982
1.99982
1.99982
1.99982
1.99983
1.99984
1.99987
1.9999
1.9999
1.99993
1.99997
2.00003
2.00003
2.00003
2.00005
2.00006
2.00007
2.00007
2.00007
2.00007
2.00006
2.00011
2.00011
2.00016
2.0002
2.00023
2.00027
2.00029
2.0003
2.0003
2.0003
2.0003
2.0003
2.0003
2.0003
2.00031
2.00031
2.00031
2.00032
2.00032
2.00031
2.00033
2.00033
2.00034
2.00034
2.00034
2.00031
2.00031
2.00114
2.00123
2.0009
2.00083
2.00067
2.00095
2.00087
2.00094
2.00072
2.00062
2.00052
2.00052
2.0007
2.00059
2.00018
2.00006
2
1.99996
2
2.00007
2.00011
2.00024
2.0004
2.00046
2.00047
2.00048
2.00047
2.00044
2.0004
2.00037
2.00032
2.00028
2.00025
2.00025
2.00024
2.00023
2.00022
2.00013
2.00008
2.00008
2.00001
2.00002
1.99999
1.99996
1.9999
1.99989
1.99987
1.99985
1.99979
1.99977
1.99977
1.99977
1.99973
1.99977
1.99974
1.99975
1.99975
1.99973
1.99975
1.99973
1.99977
1.99977
1.99979
1.9998
1.99985
1.99988
1.99989
1.99994
1.99996
1.99995
1.99996
1.99997
1.99997
1.99998
1.99997
1.99999
2.00001
2.00004
2.00002
2.00005
2.00006
2.00007
2.00006
2.00008
2.00009
2.00009
2.00009
2.0001
2.00011
2.00012
2.00012
2.00011
2.0001
2.00009
2.0001
2.0001
2.00009
2.00009
2.00006
2.00006
2.00022
2.00034
2.00018
2.00003
1.99993
1.99997
1.99999
2.00004
2.00003
2.00015
2.00029
2.00034
2.00045
2.00046
2.00035
2.00034
2.0003
2.00026
2.00029
2.00032
2.00039
2.00047
2.00053
2.00057
2.00059
2.0006
2.0006
2.0006
2.00056
2.00053
2.00046
2.0004
2.00036
2.00032
2.0003
2.00023
2.0002
2.00015
2.00008
2.00009
2.00002
2.00002
1.99995
1.99991
1.99981
1.99977
1.99976
1.99973
1.99972
1.9997
1.99972
1.9997
1.99968
1.99972
1.99972
1.99971
1.99973
1.99966
1.99968
1.99967
1.99969
1.99969
1.9997
1.99969
1.99972
1.99979
1.99985
1.99989
1.9999
1.99991
1.99992
1.99993
1.99993
1.99992
1.99991
1.99996
1.99996
1.99997
1.99997
2
1.99999
2
2
2
2
1.99999
1.99999
1.99998
1.99999
1.99999
1.99999
1.99997
1.99997
1.99996
1.99996
1.99995
1.99996
1.99995
1.99991
1.9999
2.01158
2.01262
2.01292
2.01292
2.01217
2.01187
2.0117
2.01158
2.01187
2.01316
2.01036
2.01147
2.01173
2.01203
2.01208
2.01188
2.01156
2.01124
2.01096
2.0116
2.00973
2.01068
2.01062
2.01078
2.01087
2.01101
2.0113
2.01116
2.01077
2.01101
2.00888
2.00948
2.00948
2.00983
2.00994
2.01002
2.01059
2.01103
2.01078
2.01083
2.008
2.00823
2.00854
2.00888
2.00903
2.00941
2.00957
2.01026
2.01055
2.01077
2.00735
2.00745
2.00783
2.00821
2.00824
2.00871
2.00883
2.00928
2.00949
2.01025
2.0065
2.00674
2.00697
2.00752
2.00754
2.00793
2.00819
2.00851
2.00855
2.00927
2.00578
2.00614
2.00623
2.00671
2.00687
2.00711
2.00733
2.00778
2.00779
2.00831
2.0051
2.00546
2.0056
2.00592
2.00616
2.00649
2.00659
2.00701
2.00707
2.00748
2.00454
2.00482
2.005
2.00528
2.00542
2.00581
2.00593
2.00632
2.0064
2.00687
2.00406
2.00431
2.00449
2.00472
2.00482
2.00517
2.00525
2.00559
2.00566
2.00616
2.00359
2.00376
2.00389
2.00411
2.00417
2.00449
2.00456
2.00488
2.00495
2.00553
2.00317
2.0033
2.00335
2.00358
2.00359
2.0038
2.00387
2.00407
2.00411
2.0046
2.00268
2.00286
2.00289
2.00317
2.00317
2.00323
2.00342
2.00359
2.00355
2.00387
2.00223
2.00242
2.00238
2.0025
2.00264
2.00261
2.00275
2.00299
2.003
2.0032
2.00178
2.00194
2.00193
2.00194
2.00218
2.00214
2.00235
2.00229
2.00226
2.00254
2.00141
2.00152
2.00151
2.00154
2.00172
2.00175
2.00176
2.00196
2.00177
2.00186
2.00101
2.001
2.00106
2.00101
2.00116
2.00133
2.00128
2.00141
2.00124
2.00134
2.00081
2.00099
2.00088
2.00082
2.00092
2.00086
2.00084
2.00084
2.00092
2.00116
2.00022
2.00027
2.00023
2.00024
2.00021
2.00027
2.00017
2.00018
2.00026
2.00035
1.99651
1.99538
1.99584
1.99757
1.9994
2.00127
2.00446
2.00856
2.01557
2.01841
1.99961
1.99907
1.9993
2.00096
2.00323
2.00516
2.00851
2.01473
2.02485
2.02791
2.00295
2.00248
2.0031
2.00429
2.0077
2.01171
2.01674
2.0221
2.03213
2.03432
2.00601
2.00574
2.00679
2.0086
2.01087
2.01364
2.01891
2.02672
2.03985
2.03547
2.00769
2.00798
2.00873
2.0113
2.01535
2.01911
2.02502
2.03219
2.04453
2.04823
2.0104
2.01064
2.0115
2.0133
2.01751
2.02133
2.02722
2.03271
2.04718
2.04621
2.01245
2.0134
2.01385
2.01502
2.01903
2.02287
2.03225
2.03829
2.05044
2.04122
2.01249
2.01419
2.01607
2.0173
2.02078
2.02352
2.03087
2.03887
2.04844
2.04374
2.01366
2.01434
2.01484
2.01685
2.02074
2.02292
2.02909
2.03717
2.04637
2.03602
2.01464
2.015
2.01567
2.01658
2.01891
2.02201
2.03
2.03648
2.04259
2.02522
1.97491
1.97282
1.97141
1.96878
1.96728
1.96413
1.96208
1.95847
1.95746
1.95809
1.97529
1.97341
1.97203
1.96984
1.96834
1.96569
1.96386
1.96083
1.95908
1.96045
1.97591
1.97402
1.9724
1.9704
1.96878
1.96631
1.96472
1.96206
1.9606
1.96132
1.97751
1.97586
1.97423
1.97222
1.97074
1.9683
1.96736
1.96524
1.9647
1.96672
1.97939
1.97761
1.97656
1.9744
1.97319
1.97116
1.97028
1.9692
1.9696
1.97062
1.98136
1.98091
1.97951
1.97868
1.9771
1.97554
1.97434
1.97406
1.97507
1.9784
1.98292
1.98284
1.98197
1.98114
1.9812
1.98018
1.98034
1.98077
1.98166
1.98435
1.98613
1.98643
1.98622
1.98507
1.98518
1.98514
1.98515
1.98695
1.98924
1.99421
1.98804
1.98768
1.98943
1.98937
1.98972
1.99069
1.99189
1.99393
1.99797
2.00107
1.99311
1.99138
1.9923
1.9938
1.99388
1.99508
1.99713
2.00106
2.00688
2.01196
2.00001
2.00001
2.00001
2.00001
2.00001
2.00001
2.00001
2.00001
2.00001
2
2.00001
2
2
2
2
1.99999
1.99999
1.99998
1.99998
1.99998
1.99998
1.99997
1.99997
1.99996
1.99995
1.99995
1.99994
1.99993
1.99993
1.99991
1.99991
1.9999
1.99989
1.99987
1.99987
1.99985
1.99984
1.99982
1.99981
1.99978
1.99977
1.99974
1.99973
1.9997
1.99969
1.99964
1.99963
1.99958
1.99957
1.99951
1.99949
1.99943
1.99941
1.99933
1.99931
1.99923
1.9992
1.9991
1.99907
1.99895
1.99892
1.99879
1.99874
1.9986
1.99854
1.99838
1.99831
1.99812
1.99805
1.99782
1.99775
1.99748
1.99739
1.99709
1.99699
1.99664
1.99652
1.99612
1.99598
1.99551
1.99534
1.99482
1.9946
1.994
1.99374
1.99303
1.99276
1.99189
1.99154
1.99051
1.99012
1.98884
1.98835
1.98679
1.98614
1.98419
1.98335
1.98086
1.97962
1.97653
2.00001
2.00001
2.00001
2.00001
2.00001
2.00001
2.00001
2.00001
2.00001
2.00001
2.00001
2
2
2
2
1.99999
1.99999
1.99998
1.99998
1.99998
1.99998
1.99997
1.99997
1.99996
1.99996
1.99995
1.99994
1.99993
1.99993
1.99992
1.99991
1.9999
1.99989
1.99987