/*--------------------------------*- C++ -*----------------------------------*\
  =========                 |
  \\      /  F ield         | OpenFOAM: The Open Source CFD Toolbox
   \\    /   O peration     | Website:  https://openfoam.org
    \\  /    A nd           | Version:  8
     \\/     M anipulation  |
\*---------------------------------------------------------------------------*/
FoamFile
{
    version     2.0;
    format      ascii;
    class       volScalarField;
    location    "1.500023";
    object      T;
}
// * * * * * * * * * * * * * * * * * * * * * * * * * * * * * * * * * * * * * //

dimensions      [0 0 0 1 0 0 0];

internalField   nonuniform List<scalar> 
6800
(
374.011
374.112
374.106
374.004
373.754
373.25
372.718
372.489
372.416
372.404
374.021
374.092
374.007
373.695
373.045
372.598
372.419
372.369
372.37
372.394
373.994
373.91
373.66
372.99
372.493
372.346
372.324
372.342
372.38
372.453
373.997
373.48
373.151
372.537
372.331
372.314
372.307
372.356
372.417
372.474
373.898
373.169
372.677
372.342
372.261
372.262
372.308
372.377
372.438
372.489
373.965
372.801
372.54
372.278
372.248
372.271
372.349
372.425
372.476
372.492
373.707
372.628
372.282
372.138
372.191
372.261
372.364
372.426
372.441
372.447
373.002
372.033
372.044
372.067
372.168
372.252
372.342
372.399
372.428
372.443
372.43
371.798
371.849
371.967
372.15
372.225
372.312
372.371
372.417
372.424
371.736
371.429
371.607
371.857
372.109
372.212
372.287
372.335
372.387
372.413
374.116
374.117
374.118
374.116
374.113
374.11
374.106
374.101
374.098
374.094
374.113
374.115
374.116
374.115
374.113
374.109
374.105
374.1
374.096
374.092
374.107
374.111
374.113
374.113
374.11
374.107
374.103
374.098
374.093
374.088
374.097
374.106
374.11
374.11
374.108
374.105
374.102
374.097
374.093
374.088
374.088
374.102
374.107
374.108
374.107
374.104
374.101
374.098
374.097
374.098
374.083
374.099
374.105
374.107
374.106
374.102
374.097
374.094
374.098
374.111
374.079
374.098
374.106
374.107
374.104
374.097
374.085
374.07
374.06
374.034
374.078
374.098
374.107
374.108
374.102
374.085
374.055
373.994
373.913
373.676
374.063
374.1
374.112
374.113
374.093
374.033
373.926
373.71
373.491
372.952
374.049
374.107
374.129
374.103
374.02
373.833
373.542
373.064
372.693
372.492
374.091
374.09
374.091
374.095
374.102
374.112
374.123
374.137
374.152
374.168
374.185
374.204
374.222
374.241
374.26
374.279
374.297
374.314
374.329
374.343
374.355
374.365
374.373
374.378
374.382
374.383
374.382
374.378
374.373
374.366
374.357
374.346
374.333
374.318
374.301
374.283
374.262
374.24
374.217
374.192
374.167
374.142
374.118
374.094
374.071
374.05
374.031
374.014
373.998
373.984
373.972
373.961
373.952
373.944
373.938
373.932
373.927
373.922
373.917
373.913
373.908
373.903
373.898
373.892
373.886
373.879
373.872
373.864
373.856
373.848
373.839
373.83
373.821
373.811
373.802
373.792
373.783
373.774
373.765
373.756
373.748
373.74
373.732
373.724
373.716
373.709
373.702
373.695
373.689
373.682
373.676
373.67
373.665
373.66
373.654
373.65
373.645
373.641
373.636
373.632
374.088
374.085
374.085
374.089
374.095
374.104
374.115
374.128
374.143
374.159
374.176
374.195
374.213
374.233
374.252
374.271
374.29
374.308
374.325
374.341
374.355
374.367
374.377
374.384
374.39
374.392
374.392
374.39
374.385
374.378
374.369
374.358
374.345
374.33
374.312
374.292
374.27
374.247
374.223
374.198
374.173
374.148
374.124
374.101
374.08
374.06
374.042
374.025
374.01
373.997
373.985
373.975
373.966
373.958
373.951
373.945
373.94
373.935
373.93
373.924
373.919
373.914
373.908
373.901
373.894
373.887
373.879
373.871
373.863
373.854
373.845
373.836
373.826
373.817
373.807
373.798
373.788
373.779
373.77
373.762
373.753
373.745
373.737
373.729
373.722
373.714
373.707
373.7
373.694
373.687
373.681
373.676
373.67
373.665
373.66
373.655
373.65
373.647
373.642
373.638
374.082
374.078
374.077
374.079
374.084
374.092
374.103
374.116
374.13
374.145
374.162
374.179
374.197
374.216
374.236
374.256
374.275
374.295
374.315
374.333
374.351
374.367
374.381
374.392
374.401
374.407
374.409
374.409
374.405
374.399
374.391
374.379
374.366
374.349
374.329
374.307
374.283
374.259
374.233
374.208
374.184
374.16
374.137
374.116
374.096
374.078
374.061
374.046
374.032
374.02
374.009
373.999
373.99
373.982
373.974
373.968
373.961
373.955
373.949
373.943
373.936
373.93
373.923
373.916
373.908
373.9
373.892
373.883
373.874
373.865
373.855
373.846
373.836
373.826
373.817
373.807
373.798
373.789
373.78
373.771
373.763
373.755
373.747
373.739
373.731
373.724
373.717
373.71
373.703
373.697
373.691
373.685
373.679
373.674
373.669
373.665
373.66
373.656
373.652
373.647
374.08
374.071
374.068
374.068
374.073
374.08
374.09
374.102
374.115
374.13
374.146
374.162
374.179
374.197
374.215
374.235
374.255
374.276
374.298
374.32
374.342
374.362
374.382
374.398
374.411
374.42
374.425
374.426
374.425
374.42
374.411
374.399
374.383
374.364
374.342
374.317
374.291
374.265
374.24
374.215
374.192
374.17
374.15
374.131
374.114
374.098
374.084
374.07
374.058
374.046
374.035
374.025
374.016
374.008
373.999
373.992
373.984
373.977
373.969
373.962
373.954
373.946
373.938
373.93
373.921
373.912
373.903
373.894
373.885
373.875
373.866
373.856
373.846
373.837
373.827
373.818
373.809
373.8
373.791
373.782
373.774
373.766
373.758
373.75
373.742
373.735
373.728
373.721
373.714
373.708
373.702
373.696
373.691
373.686
373.681
373.676
373.672
373.668
373.664
373.659
374.083
374.066
374.059
374.058
374.061
374.067
374.077
374.089
374.102
374.116
374.13
374.145
374.159
374.175
374.191
374.209
374.228
374.25
374.273
374.298
374.323
374.349
374.373
374.395
374.412
374.423
374.429
374.43
374.429
374.425
374.415
374.401
374.383
374.361
374.335
374.308
374.28
374.253
374.229
374.206
374.185
374.167
374.15
374.135
374.121
374.108
374.096
374.084
374.073
374.062
374.052
374.042
374.033
374.024
374.015
374.006
373.997
373.988
373.979
373.971
373.962
373.953
373.944
373.935
373.926
373.917
373.907
373.898
373.889
373.879
373.87
373.86
373.851
373.842
373.832
373.824
373.815
373.806
373.798
373.789
373.781
373.773
373.766
373.758
373.751
373.743
373.736
373.73
373.723
373.717
373.711
373.706
373.701
373.696
373.691
373.687
373.682
373.678
373.675
373.67
374.079
374.052
374.041
374.038
374.041
374.047
374.058
374.07
374.082
374.096
374.108
374.119
374.13
374.141
374.154
374.168
374.185
374.205
374.229
374.257
374.286
374.316
374.343
374.366
374.383
374.393
374.396
374.398
374.394
374.389
374.378
374.361
374.339
374.313
374.285
374.255
374.226
374.201
374.18
374.161
374.145
374.132
374.12
374.11
374.1
374.09
374.081
374.072
374.062
374.053
374.044
374.034
374.025
374.015
374.006
373.996
373.986
373.977
373.967
373.957
373.948
373.939
373.929
373.92
373.911
373.902
373.894
373.885
373.876
373.867
373.859
373.85
373.841
373.833
373.825
373.817
373.809
373.801
373.793
373.786
373.778
373.771
373.764
373.757
373.75
373.743
373.736
373.73
373.724
373.719
373.713
373.708
373.703
373.699
373.695
373.691
373.687
373.683
373.68
373.675
373.998
373.984
373.976
373.977
373.988
373.995
374.007
374.017
374.028
374.04
374.049
374.055
374.061
374.065
374.073
374.082
374.093
374.11
374.133
374.16
374.19
374.22
374.245
374.266
374.273
374.277
374.279
374.281
374.276
374.266
374.251
374.23
374.205
374.178
374.149
374.122
374.095
374.075
374.062
374.051
374.042
374.037
374.032
374.028
374.023
374.018
374.012
374.006
374
373.993
373.985
373.977
373.969
373.96
373.951
373.941
373.932
373.923
373.914
373.905
373.896
373.887
373.879
373.871
373.863
373.856
373.849
373.842
373.834
373.827
373.82
373.813
373.807
373.8
373.794
373.787
373.781
373.775
373.769
373.763
373.756
373.75
373.744
373.738
373.732
373.726
373.721
373.715
373.71
373.706
373.701
373.697
373.693
373.689
373.686
373.683
373.68
373.676
373.674
373.669
373.695
373.725
373.758
373.781
373.806
373.828
373.839
373.851
373.862
373.883
373.886
373.882
373.891
373.883
373.887
373.883
373.881
373.886
373.902
373.924
373.945
373.97
373.984
373.991
373.986
373.985
373.989
373.988
373.975
373.959
373.941
373.916
373.892
373.871
373.848
373.833
373.82
373.817
373.819
373.823
373.826
373.836
373.843
373.846
373.846
373.846
373.846
373.846
373.846
373.844
373.843
373.839
373.835
373.829
373.823
373.817
373.811
373.805
373.8
373.793
373.787
373.78
373.774
373.769
373.764
373.759
373.755
373.751
373.748
373.744
373.74
373.736
373.733
373.729
373.726
373.722
373.719
373.715
373.712
373.708
373.704
373.7
373.696
373.692
373.688
373.684
373.68
373.676
373.673
373.67
373.667
373.664
373.661
373.659
373.657
373.654
373.652
373.65
373.648
373.645
373
373.072
373.144
373.201
373.248
373.297
373.333
373.364
373.39
373.396
373.417
373.425
373.428
373.422
373.41
373.396
373.387
373.365
373.369
373.374
373.379
373.383
373.384
373.386
373.392
373.396
373.394
373.395
373.389
373.369
373.357
373.335
373.322
373.317
373.309
373.311
373.325
373.346
373.371
373.393
373.412
373.438
373.458
373.476
373.49
373.502
373.515
373.525
373.536
373.546
373.564
373.572
373.586
373.59
373.587
373.588
373.594
373.596
373.603
373.603
373.602
373.594
373.593
373.589
373.587
373.588
373.589
373.591
373.593
373.595
373.596
373.598
373.6
373.601
373.603
373.604
373.605
373.606
373.607
373.607
373.607
373.607
373.606
373.605
373.604
373.603
373.602
373.601
373.6
373.6
373.599
373.598
373.598
373.597
373.597
373.596
373.596
373.595
373.594
373.593
372.519
372.563
372.616
372.662
372.698
372.732
372.76
372.78
372.798
372.809
372.817
372.827
372.834
372.848
372.866
372.89
372.921
372.955
372.994
373.028
373.063
373.086
373.104
373.118
373.145
373.15
373.142
373.149
373.142
373.129
373.115
373.103
373.096
373.095
373.094
373.105
373.122
373.139
373.169
373.179
373.194
373.21
373.211
373.214
373.221
373.222
373.226
373.225
373.225
373.224
373.225
373.227
373.23
373.231
373.229
373.231
373.235
373.24
373.245
373.267
373.271
373.27
373.269
373.275
373.285
373.297
373.31
373.323
373.335
373.348
373.359
373.371
373.382
373.392
373.401
373.41
373.419
373.426
373.433
373.44
373.446
373.452
373.457
373.461
373.465
373.469
373.473
373.476
373.479
373.482
373.485
373.488
373.49
373.493
373.495
373.497
373.5
373.501
373.503
373.504
372.439
372.468
372.504
372.536
372.561
372.584
372.604
372.62
372.637
372.652
372.668
372.686
372.707
372.734
372.766
372.804
372.847
372.89
372.934
372.972
373.007
373.035
373.048
373.074
373.088
373.089
373.103
373.106
373.107
373.102
373.089
373.08
373.078
373.073
373.072
373.086
373.103
373.122
373.148
373.144
373.148
373.152
373.154
373.16
373.163
373.166
373.162
373.155
373.147
373.135
373.123
373.11
373.097
373.084
373.072
373.061
373.053
373.044
373.041
373.041
373.04
373.041
373.042
373.041
373.042
373.046
373.05
373.055
373.061
373.068
373.077
373.085
373.095
373.105
373.117
373.128
373.14
373.153
373.167
373.18
373.195
373.21
373.224
373.238
373.251
373.263
373.275
373.286
373.296
373.305
373.314
373.322
373.329
373.336
373.342
373.349
373.354
373.36
373.363
373.37
372.497
372.514
372.539
372.557
372.57
372.584
372.599
372.614
372.631
372.648
372.666
372.688
372.714
372.745
372.783
372.823
372.863
372.904
372.942
372.979
373.005
373.03
373.041
373.064
373.072
373.073
373.073
373.084
373.084
373.069
373.064
373.063
373.058
373.056
373.066
373.08
373.098
373.113
373.117
373.125
373.137
373.138
373.141
373.145
373.146
373.146
373.145
373.138
373.13
373.12
373.109
373.098
373.087
373.076
373.065
373.056
373.046
373.038
373.031
373.026
373.021
373.017
373.014
373.011
373.009
373.007
373.005
373.002
373
372.997
372.995
372.993
372.992
372.992
372.992
372.994
372.995
372.997
372.999
373.003
373.007
373.013
373.019
373.027
373.036
373.046
373.056
373.067
373.077
373.087
373.096
373.106
373.114
373.124
373.131
373.142
373.148
373.159
373.167
373.178
372.53
372.541
372.561
372.575
372.586
372.599
372.616
372.634
372.651
372.671
372.69
372.713
372.737
372.766
372.797
372.83
372.864
372.903
372.937
372.968
372.993
373.013
373.028
373.039
373.047
373.057
373.058
373.061
373.06
373.057
373.046
373.045
373.041
373.04
373.055
373.057
373.071
373.091
373.097
373.103
373.115
373.123
373.12
373.124
373.125
373.127
373.125
373.122
373.115
373.107
373.098
373.089
373.08
373.072
373.063
373.055
373.048
373.041
373.035
373.03
373.027
373.023
373.02
373.018
373.016
373.014
373.012
373.01
373.009
373.007
373.005
373.002
373
372.997
372.995
372.994
372.992
372.991
372.991
372.991
372.99
372.99
372.99
372.99
372.991
372.992
372.992
372.992
372.993
372.995
372.997
373
373.001
373.004
373.006
373.009
373.01
373.013
373.014
373.02
372.547
372.557
372.579
372.592
372.601
372.613
372.629
372.646
372.664
372.683
372.701
372.722
372.744
372.771
372.798
372.831
372.862
372.894
372.923
372.948
372.971
372.989
373.003
373.012
373.018
373.022
373.02
373.028
373.024
373.023
373.023
373.025
373.027
373.037
373.042
373.052
373.069
373.084
373.09
373.099
373.115
373.117
373.117
373.118
373.119
373.119
373.117
373.114
373.108
373.101
373.093
373.085
373.077
373.07
373.063
373.057
373.051
373.046
373.042
373.037
373.034
373.031
373.029
373.027
373.025
373.024
373.023
373.021
373.02
373.02
373.019
373.018
373.017
373.016
373.015
373.014
373.012
373.011
373.01
373.009
373.009
373.008
373.007
373.006
373.005
373.004
373.003
373.002
373.001
372.999
372.998
372.997
372.996
372.995
372.995
372.994
372.993
372.991
372.991
372.99
372.559
372.569
372.588
372.605
372.615
372.625
372.636
372.652
372.669
372.688
372.707
372.728
372.749
372.776
372.8
372.829
372.857
372.886
372.914
372.939
372.962
372.979
372.994
373.003
373.01
373.014
373.017
373.017
373.02
373.02
373.021
373.023
373.03
373.035
373.042
373.054
373.07
373.078
373.085
373.099
373.104
373.107
373.107
373.109
373.11
373.108
373.107
373.105
373.102
373.097
373.091
373.084
373.077
373.07
373.064
373.057
373.052
373.046
373.041
373.037
373.034
373.031
373.029
373.027
373.026
373.025
373.024
373.023
373.023
373.022
373.022
373.022
373.021
373.021
373.02
373.019
373.018
373.016
373.015
373.013
373.012
373.011
373.01
373.009
373.008
373.007
373.006
373.005
373.004
373.003
373.002
373.001
373
373
372.999
372.998
372.998
372.997
372.997
372.995
372.582
372.593
372.604
372.622
372.637
372.648
372.658
372.67
372.684
372.703
372.722
372.744
372.765
372.789
372.813
372.84
372.866
372.893
372.917
372.94
372.96
372.977
372.991
373.001
373.008
373.013
373.016
373.016
373.021
373.02
373.022
373.027
373.036
373.04
373.049
373.059
373.067
373.076
373.081
373.09
373.092
373.093
373.096
373.095
373.095
373.091
373.09
373.089
373.09
373.088
373.084
373.078
373.073
373.066
373.061
373.055
373.05
373.044
373.04
373.035
373.031
373.028
373.025
373.023
373.021
373.019
373.018
373.016
373.016
373.014
373.013
373.012
373.011
373.009
373.008
373.006
373.005
373.002
373.001
373
373
372.998
372.997
372.998
372.998
373.001
373.004
373.004
373.005
373.005
373.004
373.004
373.002
373.002
373.002
373.001
373.001
373.002
373.002
373.002
372.625
372.631
372.64
372.654
372.669
372.683
372.695
372.704
372.717
372.733
372.751
372.77
372.79
372.811
372.832
372.855
372.878
372.902
372.924
372.946
372.964
372.98
372.994
373.002
373.01
373.014
373.017
373.019
373.021
373.026
373.029
373.035
373.042
373.045
373.054
373.06
373.064
373.073
373.077
373.089
373.088
373.087
373.088
373.087
373.087
373.087
373.085
373.085
373.085
373.085
373.082
373.077
373.072
373.066
373.061
373.056
373.052
373.048
373.044
373.04
373.036
373.034
373.031
373.029
373.028
373.027
373.026
373.025
373.024
373.023
373.022
373.021
373.021
373.019
373.018
373.016
373.015
373.013
373.011
373.009
373.007
373.005
373.003
373.002
373
372.999
372.998
372.995
372.995
372.994
372.993
372.992
372.993
372.991
372.993
372.993
372.998
372.998
372.999
372.999
372.669
372.677
372.678
372.686
372.7
372.714
372.726
372.736
372.747
372.76
372.777
372.793
372.812
372.829
372.849
372.869
372.89
372.91
372.931
372.949
372.966
372.98
372.992
373.001
373.008
373.012
373.016
373.019
373.023
373.029
373.033
373.04
373.044
373.049
373.056
373.06
373.066
373.072
373.079
373.086
373.085
373.085
373.085
373.085
373.085
373.084
373.084
373.084
373.086
373.086
373.084
373.081
373.077
373.073
373.068
373.064
373.06
373.057
373.054
373.052
373.05
373.048
373.046
373.045
373.044
373.043
373.041
373.04
373.039
373.038
373.037
373.035
373.035
373.033
373.032
373.03
373.029
373.027
373.025
373.024
373.023
373.024
373.024
373.023
373.022
373.021
373.02
373.019
373.018
373.017
373.017
373.016
373.015
373.015
373.014
373.014
373.014
373.016
373.016
373.016
372.697
372.709
372.716
372.721
372.73
372.741
372.754
372.768
372.778
372.786
372.8
372.812
372.827
372.843
372.861
372.88
372.899
372.917
372.935
372.952
372.968
372.981
372.992
373.002
373.008
373.013
373.019
373.023
373.028
373.033
373.036
373.042
373.045
373.05
373.055
373.059
373.065
373.068
373.074
373.076
373.079
373.08
373.08
373.083
373.084
373.085
373.087
373.084
373.083
373.084
373.085
373.084
373.082
373.081
373.078
373.075
373.072
373.069
373.066
373.063
373.061
373.059
373.058
373.056
373.055
373.054
373.053
373.051
373.05
373.048
373.047
373.045
373.044
373.042
373.04
373.039
373.037
373.036
373.035
373.035
373.032
373.032
373.032
373.032
373.035
373.034
373.035
373.037
373.04
373.039
373.038
373.038
373.039
373.038
373.038
373.038
373.038
373.038
373.039
373.038
372.722
372.729
372.749
372.76
372.76
372.766
372.779
372.789
372.801
372.811
372.823
372.831
372.843
372.855
372.872
372.89
372.908
372.926
372.942
372.959
372.972
372.986
372.995
373.005
373.011
373.016
373.021
373.024
373.029
373.032
373.036
373.041
373.044
373.048
373.052
373.056
373.06
373.065
373.073
373.075
373.075
373.081
373.083
373.084
373.084
373.087
373.088
373.088
373.087
373.086
373.086
373.084
373.083
373.083
373.081
373.08
373.077
373.075
373.073
373.071
373.069
373.067
373.065
373.063
373.061
373.059
373.057
373.055
373.053
373.052
373.051
373.049
373.049
373.047
373.046
373.044
373.043
373.043
373.042
373.042
373.042
373.042
373.042
373.042
373.043
373.044
373.045
373.045
373.045
373.047
373.046
373.047
373.047
373.048
373.048
373.049
373.05
373.05
373.05
373.048
372.748
372.758
372.774
372.794
372.798
372.792
372.797
372.808
372.822
372.836
372.848
372.855
372.864
372.874
372.889
372.906
372.923
372.94
372.955
372.969
372.981
372.992
373
373.008
373.012
373.018
373.022
373.026
373.031
373.034
373.039
373.042
373.046
373.05
373.053
373.058
373.061
373.066
373.073
373.074
373.076
373.082
373.085
373.086
373.087
373.088
373.089
373.088
373.088
373.087
373.085
373.084
373.082
373.081
373.08
373.079
373.077
373.076
373.075
373.073
373.072
373.07
373.067
373.066
373.062
373.06
373.056
373.053
373.05
373.047
373.044
373.042
373.041
373.038
373.036
373.037
373.036
373.036
373.038
373.04
373.039
373.043
373.042
373.044
373.048
373.048
373.05
373.05
373.05
373.052
373.053
373.053
373.054
373.057
373.054
373.054
373.051
373.048
373.045
373.044
372.779
372.78
372.799
372.813
372.827
372.83
372.83
372.832
372.848
372.871
372.886
372.902
372.921
372.926
372.922
372.926
372.936
372.949
372.962
372.974
372.985
372.996
373.005
373.013
373.019
373.025
373.03
373.036
373.041
373.044
373.049
373.053
373.057
373.06
373.063
373.065
373.067
373.071
373.075
373.076
373.077
373.083
373.083
373.084
373.086
373.087
373.087
373.087
373.085
373.083
373.081
373.081
373.078
373.079
373.077
373.075
373.073
373.069
373.067
373.065
373.062
373.061
373.058
373.056
373.053
373.051
373.049
373.046
373.043
373.04
373.037
373.034
373.032
373.03
373.029
373.027
373.026
373.025
373.025
373.024
373.023
373.022
373.022
373.022
373.024
373.023
373.027
373.026
373.029
373.028
373.03
373.033
373.033
373.033
373.035
373.036
373.037
373.038
373.038
373.037
372.811
372.811
372.821
372.835
372.852
372.866
372.869
372.866
372.87
372.887
372.91
372.934
372.937
372.941
372.944
372.941
372.948
372.958
372.97
372.982
372.993
373.004
373.013
373.019
373.024
373.028
373.032
373.037
373.041
373.044
373.05
373.054
373.058
373.061
373.063
373.064
373.066
373.069
373.07
373.073
373.077
373.079
373.078
373.08
373.081
373.078
373.08
373.079
373.077
373.074
373.073
373.071
373.07
373.069
373.068
373.065
373.061
373.058
373.055
373.053
373.05
373.048
373.045
373.041
373.037
373.033
373.031
373.027
373.025
373.022
373.021
373.019
373.017
373.015
373.014
373.013
373.011
373.01
373.01
373.009
373.009
373.008
373.007
373.007
373.007
373.006
373.006
373.006
373.005
373.005
373.006
373.004
373.005
373.006
373.005
373.005
373.005
373.005
373.008
373.007
372.848
372.847
372.845
372.843
372.864
372.877
372.897
372.899
372.895
372.904
372.918
372.936
372.958
372.985
372.985
372.973
372.974
372.97
372.973
372.983
372.995
373.005
373.014
373.022
373.027
373.031
373.035
373.037
373.039
373.04
373.041
373.043
373.044
373.046
373.047
373.051
373.054
373.056
373.059
373.062
373.063
373.065
373.063
373.064
373.065
373.065
373.066
373.065
373.065
373.063
373.063
373.062
373.06
373.057
373.053
373.049
373.045
373.042
373.038
373.035
373.034
373.031
373.029
373.026
373.023
373.021
373.018
373.016
373.013
373.012
373.01
373.009
373.008
373.007
373.005
373.004
373.003
373.002
373
372.999
372.997
372.996
372.995
372.994
372.993
372.992
372.991
372.99
372.989
372.988
372.987
372.987
372.988
372.989
372.988
372.989
372.989
372.989
372.989
372.988
372.871
372.88
372.875
372.879
372.873
372.888
372.906
372.922
372.925
372.921
372.929
372.94
372.965
372.991
373.011
373.016
373.02
373.006
373.007
373.002
373.006
373.013
373.022
373.033
373.04
373.048
373.058
373.061
373.064
373.063
373.064
373.057
373.052
373.046
373.045
373.043
373.043
373.043
373.044
373.043
373.049
373.049
373.049
373.048
373.048
373.045
373.046
373.046
373.047
373.046
373.045
373.044
373.043
373.041
373.038
373.036
373.033
373.03
373.028
373.024
373.022
373.02
373.017
373.016
373.014
373.012
373.011
373.009
373.006
373.004
373.003
373.002
373
372.999
372.998
372.997
372.996
372.995
372.994
372.994
372.992
372.991
372.99
372.989
372.988
372.988
372.987
372.987
372.985
372.984
372.984
372.982
372.982
372.981
372.98
372.98
372.979
372.979
372.979
372.979
372.896
372.902
372.906
372.908
372.894
372.9
372.914
372.926
372.933
372.937
372.94
372.944
372.969
372.988
372.999
373.008
373.013
373.014
373.008
373.009
373.009
373.014
373.021
373.033
373.039
373.05
373.058
373.062
373.069
373.063
373.056
373.052
373.042
373.039
373.039
373.034
373.033
373.025
373.026
373.027
373.029
373.027
373.028
373.032
373.024
373.023
373.022
373.024
373.021
373.021
373.024
373.023
373.022
373.021
373.02
373.018
373.017
373.016
373.015
373.014
373.01
373.007
373.003
373
372.998
372.997
372.997
372.997
372.998
372.998
372.998
372.998
372.997
372.995
372.995
372.992
372.99
372.988
372.987
372.987
372.986
372.986
372.986
372.986
372.985
372.985
372.984
372.984
372.983
372.982
372.981
372.981
372.98
372.98
372.979
372.978
372.978
372.977
372.977
372.978
372.917
372.92
372.938
372.936
372.93
372.932
372.933
372.933
372.937
372.944
372.946
372.951
372.969
372.993
373.005
373.018
373.013
373.006
373.003
373
372.999
373.001
373.006
373.012
373.021
373.028
373.034
373.036
373.036
373.037
373.037
373.033
373.03
373.027
373.025
373.024
373.021
373.018
373.016
373.017
373.017
373.013
373.015
373.014
373.011
373.009
373.006
373.005
373.005
373.006
373.007
373.008
373.01
373.009
373.009
373.01
373.008
373.008
373.007
373.007
373.006
373.003
373.001
372.997
372.996
372.996
372.995
372.993
372.993
372.994
372.994
372.994
372.994
372.995
372.994
372.993
372.991
372.99
372.989
372.988
372.988
372.988
372.988
372.988
372.988
372.988
372.987
372.986
372.985
372.984
372.984
372.983
372.982
372.982
372.981
372.981
372.981
372.981
372.981
372.981
372.944
372.944
372.961
372.955
372.961
372.959
372.961
372.96
372.96
372.965
372.963
372.961
372.965
372.977
372.989
373.003
373.004
373.005
373.003
373.002
373.001
372.999
372.994
372.993
372.994
372.999
373.002
373.002
373.002
373.003
373.004
373.004
373.005
373.005
373.005
373.004
373.004
373.005
373.005
373.006
373.006
373.008
373.008
373.007
373.007
373.007
373.008
373.005
373.005
373.007
373.008
373.008
373.008
373.007
373.007
373.008
373.008
373.007
373.007
373.006
373.006
373.005
373.004
373.002
373.002
373.002
373.001
373
373
373
373
372.999
373
372.999
372.999
372.998
372.996
372.996
372.994
372.993
372.993
372.992
372.992
372.992
372.992
372.992
372.992
372.992
372.992
372.992
372.991
372.991
372.991
372.991
372.991
372.99
372.991
372.99
372.991
372.991
372.963
372.961
372.964
372.958
372.976
372.971
372.972
372.976
372.973
372.975
372.976
372.979
372.978
372.976
372.982
372.991
372.994
372.996
373
372.998
372.997
372.996
372.99
372.988
372.986
372.986
372.986
372.987
372.988
372.989
372.991
372.992
372.994
372.995
372.995
372.996
372.996
372.997
372.998
372.998
373
373.001
373.002
373.002
373.004
373.005
373.006
373.006
373.007
373.008
373.009
373.008
373.009
373.008
373.009
373.009
373.008
373.009
373.009
373.009
373.009
373.008
373.007
373.008
373.007
373.006
373.005
373.004
373.003
373.003
373.003
373.002
373.002
373.001
373.002
373.001
373.001
373.001
373.001
373
372.999
372.999
372.999
372.999
372.998
372.998
372.998
372.998
372.997
372.997
372.997
372.997
372.997
372.997
372.997
372.997
372.997
372.997
372.998
372.998
372.989
372.988
372.989
372.99
373
372.999
372.997
373.003
373.002
372.999
372.991
372.99
372.987
372.984
372.986
372.988
372.988
372.991
372.992
372.991
372.99
372.989
372.986
372.985
372.983
372.984
372.983
372.983
372.984
372.984
372.986
372.988
372.989
372.991
372.991
372.993
372.995
372.996
372.998
372.998
372.999
373
373.001
373.002
373.004
373.007
373.007
373.008
373.009
373.009
373.009
373.009
373.01
373.009
373.009
373.01
373.009
373.01
373.009
373.01
373.01
373.01
373.009
373.009
373.009
373.008
373.006
373.005
373.003
373.003
373.003
373.002
373.002
373.002
373.003
373.002
373.002
373.001
373.001
373.001
373.001
373.001
373
373
373
373
373
373
373
373
373
373
373
373
373
373
373
373.001
373.002
373.002
372.492
372.481
372.47
372.466
372.486
372.498
372.498
372.495
372.478
372.43
372.556
372.533
372.514
372.502
372.502
372.507
372.511
372.514
372.515
372.49
372.596
372.564
372.555
372.549
372.542
372.539
372.529
372.528
372.533
372.524
372.633
372.605
372.599
372.588
372.581
372.579
372.563
372.546
372.545
372.542
372.666
372.651
372.64
372.628
372.62
372.609
372.601
372.579
372.565
372.555
372.693
372.684
372.672
372.657
372.653
372.639
372.632
372.615
372.605
372.58
372.726
372.714
372.707
372.687
372.683
372.671
372.659
372.645
372.64
372.616
372.755
372.741
372.736
372.72
372.711
372.702
372.694
372.676
372.671
372.651
372.783
372.769
372.762
372.751
372.742
372.729
372.724
372.709
372.703
372.685
372.807
372.796
372.789
372.778
372.772
372.758
372.753
372.738
372.734
372.715
372.828
372.819
372.811
372.801
372.797
372.784
372.78
372.768
372.764
372.747
372.849
372.841
372.835
372.826
372.823
372.812
372.807
372.797
372.793
372.777
372.868
372.86
372.857
372.849
372.847
372.839
372.835
372.827
372.825
372.811
372.889
372.88
372.878
372.869
372.865
372.863
372.857
372.849
372.849
372.84
372.907
372.899
372.898
372.895
372.888
372.887
372.884
372.876
372.873
372.865
372.925
372.92
372.918
372.916
372.91
372.909
372.903
372.902
372.902
372.895
372.942
372.938
372.937
372.935
372.93
372.928
372.927
372.922
372.922
372.922
372.957
372.957
372.955
372.953
372.953
372.948
372.947
372.943
372.944
372.945
372.969
372.968
372.965
372.965
372.963
372.964
372.964
372.965
372.966
372.962
372.993
372.99
372.988
372.989
372.99
372.988
372.989
372.991
372.99
372.99
373.156
373.187
373.167
373.103
373.036
372.949
372.815
372.637
372.372
372.107
373.033
373.035
373.013
372.944
372.855
372.776
372.638
372.376
372.026
371.694
372.903
372.899
372.867
372.806
372.674
372.516
372.327
372.081
371.706
371.478
372.772
372.757
372.71
372.637
372.535
372.4
372.191
371.889
371.428
371.159
372.693
372.656
372.609
372.511
372.371
372.216
371.979
371.666
371.245
370.992
372.607
372.565
372.507
372.409
372.253
372.096
371.896
371.609
371.139
370.747
372.504
372.465
372.435
372.352
372.187
372.002
371.702
371.457
371.017
370.867
372.475
372.398
372.313
372.265
372.127
371.983
371.695
371.419
371.091
370.951
372.444
372.388
372.327
372.268
372.138
372.004
371.754
371.402
371.1
371.018
372.41
372.392
372.343
372.288
372.171
372.031
371.76
371.661
371.308
371.508
374.092
374.18
374.248
374.358
374.436
374.567
374.667
374.802
374.875
374.894
374.077
374.158
374.226
374.322
374.399
374.511
374.601
374.731
374.815
374.813
374.043
374.123
374.195
374.284
374.359
374.463
374.545
374.657
374.72
374.692
373.975
374.044
374.117
374.198
374.267
374.365
374.423
374.509
374.538
374.498
373.892
373.963
374.014
374.101
374.155
374.239
374.28
374.331
374.322
374.283
373.803
373.832
373.89
373.93
373.99
374.048
374.103
374.11
374.068
373.945
373.725
373.738
373.778
373.809
373.821
373.854
373.849
373.836
373.783
373.646
373.588
373.587
373.606
373.639
373.635
373.637
373.629
373.557
373.459
373.225
373.489
373.506
373.465
373.462
373.442
373.402
373.352
373.256
373.096
372.888
373.295
373.346
373.322
373.273
373.257
373.206
373.124
372.958
372.736
372.431
373
373
373
373
373
373
373
373
373
373
373
373.001
373.001
373.001
373.001
373.001
373.001
373.001
373.001
373.002
373.002
373.002
373.002
373.002
373.003
373.003
373.003
373.003
373.004
373.004
373.004
373.005
373.005
373.006
373.006
373.007
373.007
373.008
373.009
373.01
373.01
373.011
373.012
373.013
373.014
373.016
373.017
373.018
373.019
373.021
373.022
373.025
373.026
373.029
373.03
373.033
373.035
373.039
373.041
373.045
373.047
373.052
373.055
373.06
373.063
373.069
373.073
373.08
373.085
373.093
373.098
373.107
373.113
373.124
373.131
373.143
373.151
373.165
373.174
373.191
373.201
373.221
373.233
373.256
373.27
373.298
373.314
373.346
373.366
373.405
373.43
373.475
373.506
373.564
373.602
373.677
373.726
373.821
373.889
374.012
373
373
373
373
373
373
373
373
373
373
373
373
373.001
373.001
373.001
373.001
373.001
373.001
373.001
373.002
373.002
373.002
373.002
373.002
373.003
373.003
373.003
373.003
373.004
373.004
373.004
373.005
373.005
373.006
373.006
373.007
373.007
373.008
373.009