/*--------------------------------*- C++ -*----------------------------------*\
  =========                 |
  \\      /  F ield         | OpenFOAM: The Open Source CFD Toolbox
   \\    /   O peration     | Website:  https://openfoam.org
    \\  /    A nd           | Version:  8
     \\/     M anipulation  |
\*---------------------------------------------------------------------------*/
FoamFile
{
    version     2.0;
    format      ascii;
    class       volVectorField;
    location    "1.500023";
    object      U;
}
// * * * * * * * * * * * * * * * * * * * * * * * * * * * * * * * * * * * * * //

dimensions      [0 1 -1 0 0 0 0];

internalField   nonuniform List<vector> 
6800
(
(-18.11 13.7816 -5.92985e-15)
(-1.22143 0.883704 0)
(21.2122 -0.344507 5.42362e-15)
(44.3933 0.126599 -4.8031e-15)
(72.2728 1.52226 -2.86156e-19)
(91.9953 2.47443 -1.82217e-19)
(99.0406 3.23644 -2.07462e-15)
(101.478 3.92364 1.91078e-15)
(102.317 3.99455 0)
(102.295 3.65594 -8.34643e-16)
(-20.4617 11.3265 1.28425e-14)
(20.2238 -2.11878 -4.34226e-15)
(42.7701 -0.43951 0)
(74.7052 1.57109 0)
(94.7918 3.75273 0)
(100.709 4.61313 1.10008e-15)
(102.478 4.88374 -1.04234e-15)
(102.82 4.95571 2.28497e-15)
(102.694 4.81623 8.92322e-16)
(102.406 4.24682 -1.2496e-15)
(-23.1923 9.66678 -9.92287e-15)
(41.1694 -3.06576 -3.69057e-15)
(72.7931 3.12005 0)
(94.9421 3.96252 -2.51879e-15)
(101.821 5.26841 -1.06039e-15)
(103.429 5.62539 -3.22714e-19)
(103.471 5.74316 2.11454e-15)
(103.122 5.69809 -1.95458e-15)
(102.657 5.32541 2.0442e-15)
(101.489 5.57919 -1.70691e-15)
(-8.0469 8.08362 8.87307e-15)
(61.0359 -2.38303 -4.02448e-18)
(94.1918 7.31743 0)
(101.46 5.38698 1.18963e-15)
(103.828 6.19637 -1.77009e-19)
(103.97 6.50087 1.68637e-15)
(103.745 6.31871 0)
(102.858 6.65751 1.81639e-15)
(101.815 6.41098 3.51512e-19)
(100.949 6.26301 0)
(17.504 30.6631 2.85926e-15)
(84.1794 0.520371 7.4278e-16)
(101.033 10.8398 6.46458e-16)
(103.928 7.02945 1.17419e-15)
(104.465 7.54237 -6.7457e-16)
(104.314 7.39816 4.94342e-16)
(103.509 7.52408 -8.04953e-16)
(102.206 7.45755 1.35959e-15)
(101.564 6.74332 -2.65309e-15)
(100.846 6.92434 -3.46624e-15)
(60.7424 26.1338 -3.26644e-15)
(91.2586 -7.18691 7.04151e-16)
(103.468 9.59743 -6.2787e-16)
(104.974 6.14843 6.80703e-16)
(104.805 7.39897 -1.51275e-15)
(104.311 7.74004 1.09249e-15)
(103.154 7.89769 0)
(102.085 7.97613 -1.56342e-15)
(101.519 7.72359 5.0079e-16)
(100.85 8.56743 4.12979e-16)
(70.8676 17.0476 0)
(98.4087 -8.73171 6.86591e-16)
(106.474 10.1146 6.27032e-16)
(107.042 6.71507 7.7692e-20)
(105.695 9.09005 -5.35099e-16)
(104.734 8.57806 5.80315e-16)
(103.215 9.55162 5.16515e-16)
(102.169 9.66158 5.66431e-16)
(101.593 9.12268 -2.44686e-15)
(100.926 9.30048 2.37613e-15)
(91.9329 20.3835 4.65232e-16)
(107.294 -9.74344 -6.635e-16)
(109.473 10.2729 -6.8554e-16)
(109.146 6.74624 -8.7073e-16)
(106.128 10.1102 1.73903e-15)
(105.184 9.27001 -6.02954e-16)
(103.853 10.6011 -5.13207e-16)
(102.639 10.7101 5.24854e-16)
(101.654 10.7499 -9.14724e-16)
(100.868 11.1825 -6.5149e-16)
(99.8574 20.4127 -2.03964e-16)
(112.505 -7.11089 1.62753e-16)
(112.093 13.1692 0)
(111.079 8.24875 2.86879e-16)
(107.089 12.5678 0)
(105.816 11.0618 -4.70455e-16)
(104.024 11.874 5.96218e-16)
(102.84 12.0707 0)
(101.749 11.9182 -1.44651e-16)
(100.923 12.106 4.58082e-16)
(112.795 28.0729 0)
(119.431 -2.46447 -1.62849e-16)
(115.131 16.3231 -5.90743e-17)
(112.356 10.4533 6.90241e-17)
(108.011 14.9323 2.33914e-31)
(106.17 13.6053 -1.24607e-16)
(103.862 14.5241 1.25127e-16)
(102.795 13.4182 2.74188e-16)
(101.656 13.5368 1.63922e-16)
(100.756 13.4518 -8.09284e-16)
(-4.08823 1.82507 0)
(-6.04608 1.29481 -4.01642e-16)
(-7.95256 1.00602 0)
(-9.6999 0.828415 0)
(-11.0651 0.730585 0)
(-12.1789 0.65706 1.93003e-16)
(-13.1121 0.594304 -1.89701e-16)
(-13.8905 0.530059 -1.86736e-16)
(-14.5174 0.460589 3.66643e-16)
(-15.0054 0.394489 1.14966e-20)
(-4.16932 4.67186 1.82864e-15)
(-6.04173 3.61309 5.88093e-16)
(-7.81016 2.87131 0)
(-9.37104 2.43069 6.09054e-16)
(-10.5783 2.11546 0)
(-11.5237 1.88872 -2.629e-16)
(-12.2727 1.69627 2.54833e-16)
(-12.8459 1.49467 0)
(-13.2268 1.26945 -2.40947e-16)
(-13.406 1.04342 7.29339e-16)
(-4.6737 7.43899 -2.64951e-15)
(-6.06577 5.84209 -2.41779e-15)
(-7.48832 4.6252 1.53597e-15)
(-8.64846 3.89628 -1.92119e-15)
(-9.47619 3.39852 -1.17745e-15)
(-10.0519 3.01216 1.07765e-15)
(-10.3855 2.68575 4.91685e-20)
(-10.5079 2.34976 -2.01158e-15)
(-10.3544 1.90829 4.28756e-15)
(-9.82267 1.48306 -1.79093e-15)
(-5.34032 10.0071 0)
(-6.19463 7.54846 2.566e-15)
(-6.93543 6.09432 -1.62869e-15)
(-7.52443 5.10845 2.76783e-15)
(-7.77689 4.4463 -1.28605e-15)
(-7.75859 3.92785 1.25482e-15)
(-7.48718 3.44471 1.24993e-15)
(-6.91768 2.88353 1.25396e-15)
(-5.90077 2.16799 1.1908e-19)
(-4.07945 1.45743 -1.37039e-15)
(-6.03225 11.8938 2.98505e-19)
(-6.22553 8.80546 -2.93273e-15)
(-6.16491 7.13637 1.67219e-15)
(-6.0225 5.96668 -1.54414e-15)
(-5.47719 5.16126 1.4608e-15)
(-4.58752 4.53749 -2.91412e-15)
(-3.36884 3.92433 0)
(-1.71496 3.16632 -3.02111e-15)
(0.490715 2.04965 1.54336e-15)
(4.6122 0.920573 7.82494e-15)
(-6.88908 13.024 4.54164e-15)
(-6.31998 9.44518 9.6345e-15)
(-5.40133 7.5412 -1.69266e-15)
(-4.2003 6.26547 -3.58311e-15)
(-2.46269 5.34411 8.77885e-15)
(-0.128597 4.65259 -5.11496e-15)
(2.5723 4.05249 0)
(5.89317 3.26511 -1.70734e-15)
(10.4323 1.65374 -1.46062e-19)
(19.5739 -0.0184715 -1.56282e-15)
(-7.68002 13.6478 8.80087e-15)
(-6.7482 9.30167 -5.11411e-19)
(-4.64882 7.31114 0)
(-1.96224 5.8103 4.43886e-15)
(1.7385 4.7756 8.41062e-15)
(5.77788 4.19031 -4.0686e-15)
(11.4495 3.55241 0)
(19.0578 2.97898 -7.5285e-15)
(27.4233 0.943278 1.47579e-14)
(43.5546 -0.395813 0)
(-9.05676 13.6581 -8.42568e-15)
(-7.42175 8.46605 -1.02082e-14)
(-3.62659 6.23622 5.64707e-15)
(1.90705 4.46288 3.42038e-19)
(8.08442 3.55597 -1.00596e-14)
(16.4294 2.93542 0)
(27.3009 1.85174 -3.48631e-15)
(41.8013 1.97396 0)
(53.1691 0.0133378 -3.73733e-15)
(73.8522 -0.361979 3.11944e-15)
(-11.2826 13.8868 4.98698e-15)
(-8.05855 6.86627 0)
(-0.370951 4.16954 0)
(8.92012 2.52554 0)
(20.3907 1.8438 0)
(35.0634 1.77368 2.81026e-15)
(53.0246 1.02242 5.69575e-15)
(71.609 0.798692 -2.64804e-15)
(85.6224 -0.206327 -3.09147e-15)
(95.9799 0.897293 3.89544e-15)
(-13.9537 13.5109 -5.66613e-15)
(-7.96745 4.36952 0)
(8.66345 1.32778 -7.21409e-15)
(22.4431 0.537301 9.26326e-15)
(41.3109 1.03011 1.02914e-19)
(63.8338 1.19175 -3.24561e-15)
(84.8166 1.08329 2.31615e-15)
(95.1271 1.59175 -2.03127e-15)
(99.6298 2.1281 0)
(101.581 2.9044 -9.80056e-16)
(-15.5722 0.301152 -1.60377e-16)
(-16.0756 0.158187 0)
(-16.2574 0.0570423 0)
(-16.23 -0.0551134 0)
(-15.9314 -0.153279 0)
(-15.4338 -0.239495 0)
(-14.7488 -0.316741 -4.30387e-18)
(-13.8959 -0.386451 1.35052e-16)
(-12.901 -0.447487 -1.28475e-16)
(-11.7674 -0.504426 0)
(-10.5104 -0.559531 4.02424e-18)
(-9.13509 -0.612751 3.97665e-18)
(-7.63758 -0.668982 3.9273e-18)
(-6.03567 -0.723934 3.87701e-18)
(-4.33616 -0.769147 3.84881e-18)
(-2.51602 -0.804558 0)
(-0.674289 -0.833975 -1.18546e-16)
(1.34678 -0.86997 3.76832e-18)
(3.37041 -0.895657 1.2623e-16)
(5.49918 -0.914529 3.86104e-18)
(7.63429 -0.918265 0)
(9.77494 -0.912151 3.88657e-18)
(11.8959 -0.897611 -1.21059e-16)
(13.9784 -0.876211 1.29528e-16)
(16.0075 -0.849769 3.94837e-18)
(17.9727 -0.819983 -1.23155e-16)
(19.867 -0.788435 1.27893e-16)
(21.687 -0.756121 4.02107e-18)
(23.4311 -0.724033 4.0446e-18)
(25.1005 -0.692904 -1.26081e-16)
(26.6976 -0.663264 1.34899e-16)
(28.2261 -0.635735 4.10712e-18)
(29.6912 -0.610713 4.12544e-18)
(31.0992 -0.588586 -1.28445e-16)
(32.4575 -0.569329 1.33146e-16)
(33.7729 -0.552351 -1.37853e-16)
(35.0509 -0.53702 1.34181e-16)
(36.2952 -0.522353 0)
(37.5066 -0.507589 0)
(38.6848 -0.492601 1.35564e-16)
(39.8295 -0.477144 -1.36016e-16)
(40.939 -0.460858 -1.4073e-16)
(42.0113 -0.443715 1.36939e-16)
(43.0441 -0.425775 -1.37423e-16)
(44.0355 -0.407207 1.33634e-16)
(44.9837 -0.388257 0)
(45.888 -0.36925 -4.34579e-18)
(46.7483 -0.350468 0)
(47.5651 -0.332162 -4.38504e-18)
(48.3397 -0.314578 0)
(49.074 -0.297867 0)
(49.77 -0.28218 0)
(50.4301 -0.267593 -4.47509e-18)
(51.0572 -0.254153 0)
(51.6537 -0.241864 6.78619e-17)
(52.2225 -0.23069 -7.27909e-17)
(52.7661 -0.220555 0)
(53.2869 -0.211404 -4.59971e-18)
(53.7872 -0.203155 0)
(54.2689 -0.195733 -4.6492e-18)
(54.734 -0.189024 0)
(55.184 -0.182919 0)
(55.6203 -0.177293 0)
(56.0438 -0.172051 -7.58506e-17)
(56.4553 -0.167106 7.61842e-17)
(56.8554 -0.162387 -4.78116e-18)
(57.2446 -0.157835 0)
(57.6232 -0.153407 0)
(57.9915 -0.149088 -4.83446e-18)
(58.3496 -0.144862 -7.76055e-17)
(58.6977 -0.140722 7.2984e-17)
(59.0361 -0.136663 7.80786e-17)
(59.365 -0.132684 -8.31951e-17)
(59.6844 -0.128784 0)
(59.9947 -0.124963 0)
(60.2959 -0.12123 0)
(60.5884 -0.117593 -4.94503e-18)
(60.8723 -0.114067 3.96584e-17)
(61.148 -0.110667 -3.97238e-17)
(61.4158 -0.10741 3.96606e-17)
(61.676 -0.104301 -3.46522e-17)
(61.929 -0.101352 0)
(62.1752 -0.0985705 -3.94949e-17)
(62.4151 -0.0959572 7.88933e-17)
(62.649 -0.0935069 -3.44764e-17)
(62.8773 -0.0912102 0)
(63.1004 -0.0890538 0)
(63.3186 -0.0870218 0)
(63.532 -0.0850999 0)
(63.7414 -0.0832691 4.90171e-18)
(63.946 -0.0815242 0)
(64.1477 -0.0798344 -1.95769e-17)
(64.3435 -0.0782312 2.30265e-22)
(64.5393 -0.0766183 1.4663e-17)
(64.7246 -0.0751644 0)
(64.9189 -0.0735131 -9.76335e-18)
(65.0871 -0.0723404 4.88008e-18)
(65.2923 -0.0703399 9.75354e-18)
(65.4217 -0.0701468 0)
(65.6855 -0.0658906 0)
(-13.6189 0.789985 6.16234e-18)
(-13.9588 0.413652 -1.19954e-17)
(-13.968 0.0980956 -8.41215e-16)
(-13.7367 -0.239381 8.99905e-16)
(-13.2856 -0.531413 0)
(-12.6432 -0.788664 0)
(-11.8262 -1.01714 1.94261e-17)
(-10.8574 -1.22042 0)
(-9.78738 -1.39891 -6.15904e-18)
(-8.57851 -1.5646 1.20957e-17)
(-7.27197 -1.71835 -5.95238e-18)
(-5.86917 -1.85522 -5.8713e-18)
(-4.3878 -1.97664 -5.78231e-18)
(-2.88135 -2.08855 -5.74267e-18)
(-1.22088 -2.22637 5.68237e-18)
(0.580745 -2.34854 0)
(2.45969 -2.47844 7.30383e-16)
(4.42331 -2.58339 -7.35884e-16)
(6.43158 -2.66031 -5.81464e-18)
(8.48917 -2.71441 -5.82786e-18)
(10.5656 -2.73214 0)
(12.6461 -2.72051 5.8711e-18)
(14.7087 -2.68269 -7.61269e-16)
(16.7342 -2.62296 1.51314e-15)
(18.7075 -2.54647 -7.70039e-16)
(20.617 -2.45822 -1.80212e-17)
(22.4559 -2.36339 0)
(24.2198 -2.26503 -6.08034e-18)
(25.9068 -2.1665 -6.11507e-18)
(27.518 -2.0702 7.9313e-16)
(29.0555 -1.97738 -7.91571e-16)
(30.5224 -1.89023 -3.91938e-16)
(31.9247 -1.81045 7.65092e-16)
(33.2689 -1.73959 -5.83831e-18)
(34.5626 -1.67835 -3.68139e-16)
(35.8135 -1.62529 5.67009e-18)
(37.0279 -1.57889 0)
(38.2103 -1.536 0)
(39.3617 -1.49359 3.4862e-16)
(40.4818 -1.45113 -3.44366e-16)
(41.5709 -1.40782 -3.40339e-16)
(42.6278 -1.36216 6.78427e-16)
(43.6502 -1.3137 -1.30615e-20)
(44.6358 -1.26246 -3.29852e-16)
(45.5822 -1.20885 5.1073e-18)
(46.4876 -1.15355 0)
(47.3508 -1.09764 3.26676e-16)
(48.1717 -1.04203 -3.29394e-16)
(48.9507 -0.987539 -3.12402e-16)
(49.689 -0.935014 3.15541e-16)
(50.3883 -0.88495 0)
(51.0506 -0.837872 -3.12383e-16)
(51.6785 -0.794053 3.15916e-16)
(52.2745 -0.753668 -3.09828e-16)
(52.8413 -0.716764 3.13564e-16)
(53.3816 -0.683244 0)
(53.8979 -0.652867 -3.06798e-16)
(54.3924 -0.625491 6.16677e-16)
(54.8674 -0.600861 -3.05152e-16)
(55.3249 -0.578771 4.75606e-18)
(55.7667 -0.558869 0)
(56.1943 -0.540822 0)
(56.609 -0.524228 0)
(57.0116 -0.508793 0)
(57.403 -0.494242 0)
(57.7836 -0.480357 4.69302e-18)
(58.1539 -0.466954 0)
(58.5141 -0.453896 1.49558e-16)
(58.8643 -0.441147 -1.44599e-16)
(59.2049 -0.428659 -1.48967e-16)
(59.5359 -0.416411 4.64986e-18)
(59.8576 -0.404392 1.48407e-16)
(60.1701 -0.392599 1.52765e-16)
(60.4736 -0.381034 -3.0918e-21)
(60.7682 -0.369699 -1.47632e-16)
(61.0542 -0.358622 0)
(61.3317 -0.347834 1.51767e-16)
(61.6011 -0.337381 -2.62708e-21)
(61.8627 -0.327308 -1.37587e-16)
(62.1166 -0.317668 -1.55731e-16)
(62.3635 -0.308483 1.41824e-16)
(62.6035 -0.299788 -8.22568e-17)
(62.8372 -0.291599 6.39126e-17)
(63.065 -0.283914 -8.20934e-17)
(63.2872 -0.276714 -4.55571e-18)
(63.5042 -0.269967 6.37422e-17)
(63.7163 -0.263633 9.09905e-18)
(63.924 -0.25766 6.36479e-17)
(64.1272 -0.25201 -7.26945e-17)
(64.3266 -0.246615 -7.71899e-17)
(64.5214 -0.241482 7.26111e-17)
(64.7138 -0.236485 2.72141e-17)
(64.9002 -0.231775 -4.26517e-22)
(65.0871 -0.226977 -4.07837e-17)
(65.2636 -0.222737 9.06037e-18)
(65.4492 -0.217772 -9.05561e-18)
(65.6092 -0.214375 1.81086e-17)
(65.8051 -0.208332 -3.16747e-17)
(65.9293 -0.206948 9.12184e-18)
(66.1784 -0.197145 -1.14159e-17)
(-9.42769 0.997239 -1.95435e-15)
(-9.52755 0.452851 4.47198e-17)
(-9.14096 -0.10539 4.66875e-17)
(-8.58516 -0.611179 1.91175e-15)
(-7.86982 -1.06874 -1.81165e-15)
(-7.02617 -1.46383 -1.74895e-15)
(-6.07194 -1.80173 1.72981e-15)
(-5.02721 -2.08062 2.59544e-17)
(-3.98821 -2.34081 1.68019e-15)
(-2.70149 -2.61654 -1.58502e-15)
(-1.3507 -2.85447 2.43163e-17)
(0.102975 -3.06647 2.42276e-17)
(1.65096 -3.26934 1.5644e-15)
(3.36673 -3.49932 -1.5629e-15)
(5.08315 -3.71989 1.5713e-15)
(6.8688 -3.91681 7.13229e-19)
(8.71044 -4.09498 -1.52669e-15)
(10.6054 -4.24666 -1.21271e-17)
(12.5411 -4.36174 0)
(14.506 -4.43798 0)
(16.4792 -4.46557 0)
(18.443 -4.44636 1.23107e-17)
(20.3786 -4.38454 -7.92613e-16)
(22.27 -4.28694 8.22254e-16)
(24.1029 -4.16117 -2.508e-17)
(25.8674 -4.01509 1.26219e-17)
(27.5593 -3.85795 8.38319e-16)
(29.1759 -3.6934 -8.04647e-16)
(30.7163 -3.52837 -7.65144e-16)
(32.1844 -3.36794 -1.21692e-17)
(33.5843 -3.21361 7.63479e-16)
(34.9213 -3.06951 7.5177e-16)
(36.2018 -2.9378 -1.49317e-15)
(37.4319 -2.82098 7.30473e-16)
(38.6194 -2.7206 7.4319e-16)
(39.7703 -2.63374 -1.44487e-15)
(40.8895 -2.55839 7.02379e-16)
(41.9799 -2.48878 -7.15519e-16)
(43.0396 -2.4192 7.07202e-16)
(44.0667 -2.34971 -2.11915e-17)
(45.0618 -2.27937 0)
(46.0242 -2.20521 0)
(46.9516 -2.12646 0)
(47.8423 -2.04314 0)
(48.6946 -1.95588 0)
(49.5071 -1.86578 0)
(50.2796 -1.77469 -1.99279e-17)
(51.0125 -1.68414 2.97042e-17)
(51.7066 -1.59547 6.10359e-16)
(52.3637 -1.51014 -6.268e-16)
(52.9857 -1.42887 -6.23808e-16)
(53.5749 -1.3526 6.2116e-16)
(54.1337 -1.28171 -6.18705e-16)
(54.6647 -1.21648 6.16528e-16)
(55.1704 -1.15699 0)
(55.6533 -1.10304 0)
(56.1155 -1.05414 0)
(56.5589 -1.0101 0)
(56.9854 -0.970477 -1.89957e-17)
(57.3966 -0.934977 0)
(57.7941 -0.903012 3.02539e-16)
(58.1793 -0.874044 -3.01893e-16)
(58.5531 -0.847369 0)
(58.9161 -0.822526 0)
(59.269 -0.79906 0)
(59.6122 -0.776631 0)
(59.9458 -0.75493 0)
(60.2701 -0.733738 2.79599e-16)
(60.5853 -0.71304 -7.59816e-21)
(60.8914 -0.692753 -6.12811e-16)
(61.1888 -0.672845 3.15119e-16)
(61.4775 -0.653307 0)
(61.7577 -0.634137 -1.84716e-17)
(62.0295 -0.615343 0)
(62.2933 -0.59693 2.94588e-16)
(62.5491 -0.578954 -2.94149e-16)
(62.7973 -0.561472 -1.83578e-17)
(63.038 -0.544568 -1.2833e-16)
(63.2717 -0.528307 1.19015e-16)
(63.4987 -0.51278 2.74321e-17)
(63.7194 -0.498023 -1.64409e-16)
(63.9342 -0.484093 1.55117e-16)
(64.1434 -0.471008 2.73472e-17)
(64.3475 -0.458752 9.10761e-18)
(64.5469 -0.447286 0)
(64.7419 -0.436546 -9.09308e-18)
(64.9326 -0.426465 9.08664e-18)
(65.1196 -0.416943 1.5437e-16)
(65.3027 -0.407934 -1.63354e-16)
(65.4826 -0.399301 -7.2559e-17)
(65.6585 -0.391099 5.43926e-17)
(65.8323 -0.383056 -6.34244e-17)
(66.0006 -0.375537 9.05711e-17)
(66.1698 -0.367756 -9.05262e-18)
(66.3291 -0.361037 9.05015e-18)
(66.4975 -0.352911 -2.71364e-17)
(66.6418 -0.347543 1.80887e-17)
(66.8198 -0.337736 1.80802e-17)
(66.9326 -0.334475 -9.1403e-18)
(67.1579 -0.321893 2.29294e-17)
(-2.78589 0.84789 -2.32604e-15)
(-2.51006 0.146713 -3.68975e-17)
(-1.74291 -0.526659 2.13306e-15)
(-0.911559 -1.1528 0)
(0.040912 -1.73145 -1.92527e-21)
(1.07197 -2.22558 1.88974e-15)
(2.20595 -2.6595 -2.81644e-17)
(3.43928 -3.03361 -1.82103e-15)
(4.91012 -3.41534 1.76199e-15)
(6.33316 -3.76648 -1.77677e-15)
(7.80179 -4.07506 -2.68228e-17)
(9.31877 -4.35575 1.66305e-15)
(10.887 -4.63517 -3.3612e-15)
(12.5345 -4.91118 1.65229e-15)
(14.2285 -5.17067 -2.56958e-17)
(15.9766 -5.41293 -1.61494e-15)
(17.7627 -5.63378 1.61407e-15)
(19.5794 -5.82306 0)
(21.4171 -5.9671 -1.65196e-15)
(23.2608 -6.05642 1.66104e-15)
(25.0878 -6.08236 1.67267e-15)
(26.881 -6.04638 -1.71063e-15)
(28.6262 -5.95247 0)
(30.3105 -5.80876 -2.56635e-17)
(31.9228 -5.6275 2.51662e-17)
(33.4585 -5.41964 2.47099e-17)
(34.9194 -5.19997 -2.42936e-17)
(36.3075 -4.97121 0)
(37.6254 -4.74417 -2.35512e-17)
(38.8816 -4.52656 0)
(40.0817 -4.31864 1.46633e-15)
(41.233 -4.12668 -1.44768e-15)
(42.3424 -3.95178 0)
(43.4151 -3.79693 -1.39111e-15)
(44.4579 -3.66475 1.37511e-15)
(45.474 -3.54908 2.15821e-17)
(46.4652 -3.4485 0)
(47.4313 -3.35348 2.11198e-17)
(48.3651 -3.2552 -4.08747e-22)
(49.2618 -3.15693 2.07065e-17)
(50.1239 -3.05871 6.56589e-16)
(50.9511 -2.95535 -2.25843e-20)
(51.7417 -2.84592 -6.45882e-16)
(52.4947 -2.73093 -6.21078e-16)
(53.21 -2.61129 6.36795e-16)
(53.8872 -2.48828 0)
(54.5272 -2.36468 1.96628e-17)
(55.1317 -2.24245 -1.95602e-17)
(55.7023 -2.12321 1.94671e-17)
(56.2415 -2.00913 6.00839e-16)
(56.7516 -1.90078 -2.9642e-20)
(57.235 -1.79958 -6.34788e-16)
(57.6945 -1.70577 0)
(58.1322 -1.61967 1.91129e-17)
(58.5503 -1.54136 -6.09873e-16)
(58.9512 -1.47043 6.08296e-16)
(59.3361 -1.40606 6.06775e-16)
(59.7065 -1.34805 -6.05395e-16)
(60.0636 -1.29576 3.77534e-17)
(60.4087 -1.24891 0)
(60.7429 -1.20667 0)
(61.0672 -1.16836 0)
(61.3823 -1.13293 -1.87255e-17)
(61.6884 -1.09983 -5.79382e-16)
(61.9859 -1.06844 5.96975e-16)
(62.275 -1.03836 -1.86209e-17)
(62.5558 -1.00915 5.94784e-16)
(62.8284 -0.980535 -1.16892e-15)
(63.0928 -0.952608 8.70533e-16)
(63.3493 -0.92523 -7.15124e-21)
(63.598 -0.898365 -3.13813e-16)
(63.8391 -0.872009 2.76438e-16)
(64.0727 -0.846161 -2.57611e-16)
(64.2991 -0.820847 2.93962e-16)
(64.5184 -0.796069 -5.87084e-16)
(64.7308 -0.771933 5.62049e-21)
(64.9367 -0.748519 1.8303e-17)
(65.1363 -0.725957 2.55859e-16)
(65.3301 -0.704319 3.54182e-23)
(65.5184 -0.68374 -3.64705e-17)
(65.7017 -0.66424 3.2169e-23)
(65.8803 -0.645906 0)
(66.0545 -0.628742 2.54587e-16)
(66.2249 -0.612707 -1.63537e-16)
(66.3916 -0.597729 -1.63415e-16)
(66.555 -0.583705 1.81446e-17)
(66.7151 -0.570541 -3.62661e-17)
(66.8725 -0.558075 -1.81222e-17)
(67.0267 -0.546275 1.44898e-16)
(67.1786 -0.534905 -1.44823e-16)
(67.327 -0.524121 1.44755e-16)
(67.4742 -0.513451 -2.35115e-16)
(67.6164 -0.503559 -3.61575e-17)
(67.7601 -0.493162 1.62636e-16)
(67.8945 -0.48436 -3.61331e-17)
(68.0381 -0.473471 -1.08344e-16)
(68.1598 -0.46643 3.61091e-17)
(68.3117 -0.453558 -1.31671e-22)
(68.4078 -0.44876 -1.83581e-17)
(68.5995 -0.433561 -4.60429e-17)
(6.74512 0.249548 -1.08014e-14)
(7.76291 -0.48993 5.60459e-15)
(8.93312 -1.22001 2.63101e-15)
(10.151 -1.9192 -2.39043e-15)
(11.4039 -2.57408 -3.59398e-17)
(12.652 -3.14178 2.22915e-15)
(13.9549 -3.67336 -4.21556e-15)
(15.2996 -4.14459 2.03408e-15)
(16.7135 -4.57493 0)
(18.1436 -4.94802 0)
(19.6101 -5.28728 0)
(21.1034 -5.59234 2.88237e-17)
(22.6353 -5.90806 2.83977e-17)
(24.2207 -6.23029 2.80808e-17)
(25.8511 -6.52915 2.78816e-17)
(27.5106 -6.79871 -1.77667e-15)
(29.1874 -7.04357 2.65644e-17)
(30.8756 -7.25516 1.73439e-15)
(32.5623 -7.41363 2.60948e-17)
(34.2267 -7.50414 2.55567e-17)
(35.8459 -7.51732 2.50753e-17)
(37.405 -7.45328 0)
(38.8909 -7.31819 1.57674e-15)
(40.2953 -7.12232 -1.50497e-15)
(41.6161 -6.88193 2.35553e-17)
(42.8563 -6.61123 -1.82253e-21)
(44.0264 -6.33425 -1.44626e-15)
(45.1325 -6.04686 1.45176e-15)
(46.1785 -5.76598 2.24315e-17)
(47.1789 -5.50271 2.21925e-17)
(48.1393 -5.25297 -1.38403e-15)
(49.0699 -5.02629 2.17098e-17)
(49.9766 -4.82046 2.75737e-15)
(50.8627 -4.63807 -1.36555e-15)
(51.7332 -4.48419 -1.33153e-15)
(52.5875 -4.34544 9.04156e-21)
(53.4227 -4.22415 1.34844e-15)
(54.2362 -4.10529 0)
(55.0129 -3.97503 -2.0389e-17)
(55.7451 -3.84338 2.02281e-17)
(56.4394 -3.71594 1.28506e-15)
(57.0975 -3.58323 -1.25638e-15)
(57.7177 -3.44287 0)
(58.3001 -3.29678 -3.81664e-22)
(58.8469 -3.14649 0)
(59.3586 -2.99311 1.94992e-17)
(59.8374 -2.84061 0)
(60.2864 -2.69102 -1.2178e-15)
(60.7078 -2.54598 1.23246e-15)
(61.1049 -2.40854 1.91891e-17)
(61.4804 -2.27851 6.31167e-16)
(61.8368 -2.158 -5.91161e-16)
(62.1768 -2.04668 1.90159e-17)
(62.5021 -1.94488 -1.89668e-17)
(62.8145 -1.85263 1.89205e-17)
(63.1158 -1.76913 0)
(63.4068 -1.69304 1.88365e-17)
(63.6879 -1.62439 0)
(63.9597 -1.56225 -1.87615e-17)
(64.2231 -1.50655 6.1795e-16)
(64.4788 -1.45624 -1.19628e-15)
(64.7275 -1.41062 6.15742e-16)
(64.9694 -1.3681 1.86259e-17)
(65.2046 -1.32825 5.9499e-16)
(65.4331 -1.29022 -5.93995e-16)
(65.6549 -1.25367 -5.5592e-16)
(65.8699 -1.21801 5.92021e-16)
(66.0779 -1.18293 -5.72576e-16)
(66.2792 -1.14878 6.0856e-16)
(66.474 -1.1153 1.84122e-17)
(66.6623 -1.08246 -5.69897e-16)
(66.8444 -1.05026 1.19318e-15)
(67.0204 -1.0187 -5.86576e-16)
(67.1904 -0.987835 0)
(67.3546 -0.957666 1.82812e-17)
(67.5134 -0.928381 0)
(67.667 -0.90008 1.82374e-17)
(67.816 -0.872953 1.82177e-17)
(67.9606 -0.847048 1.81992e-17)
(68.1013 -0.822557 1.81821e-17)
(68.2385 -0.799425 -2.72489e-16)
(68.3726 -0.777793 2.90423e-16)
(68.5038 -0.757622 -2.7206e-16)
(68.6326 -0.738834 1.81287e-17)
(68.759 -0.721314 1.81166e-17)
(68.8835 -0.704907 3.87687e-21)
(69.0058 -0.6895 3.07545e-16)
(69.1264 -0.67485 -1.26564e-16)
(69.2448 -0.660969 1.62646e-16)
(69.3618 -0.647492 0)
(69.4762 -0.634739 1.80549e-17)
(69.59 -0.621973 1.80464e-17)
(69.6997 -0.610258 1.80402e-17)
(69.8112 -0.597729 0)
(69.9149 -0.587344 1.80272e-17)
(70.0269 -0.574241 0)
(70.1207 -0.565913 1.80149e-17)
(70.2396 -0.550877 -3.60162e-17)
(70.3147 -0.54462 3.69961e-17)
(70.4642 -0.527722 4.61811e-17)
(21.5487 -0.627237 0)
(22.9162 -1.39856 4.50953e-17)
(24.0999 -2.12223 -5.41003e-15)
(25.275 -2.80414 9.99965e-15)
(26.5068 -3.47311 3.8799e-17)
(27.6594 -4.03782 -4.59995e-15)
(28.8667 -4.61064 4.32391e-15)
(30.0956 -5.11263 -4.13603e-15)
(31.3405 -5.59129 3.97693e-15)
(32.5842 -6.00193 1.73358e-18)
(33.8814 -6.38797 1.69685e-18)
(35.208 -6.71767 -7.18156e-15)
(36.5974 -7.06987 -1.63239e-18)
(38.0504 -7.4284 6.76205e-15)
(39.54 -7.76061 -3.31102e-15)
(41.0369 -8.05338 -2.53136e-17)
(42.534 -8.30847 -2.74353e-21)
(44.0234 -8.52628 -2.44186e-17)
(45.4871 -8.68291 -2.732e-21)
(46.8996 -8.75345 -2.71892e-21)
(48.2385 -8.7303 -2.69526e-21)
(49.4886 -8.61918 0)
(50.6421 -8.42925 -2.56863e-21)
(51.7015 -8.17383 -2.27145e-17)
(52.6713 -7.87428 -1.48485e-15)
(53.5641 -7.54461 1.40384e-15)
(54.3996 -7.22225 -1.41352e-15)
(55.1873 -6.88566 1.40131e-15)
(55.9285 -6.56104 1.34675e-15)
(56.6461 -6.26729 -2.78004e-15)
(57.3416 -5.98969 1.36907e-15)
(58.0312 -5.74388 -2.12341e-17)
(58.7165 -5.5219 -2.10776e-17)
(59.3968 -5.32124 1.31791e-15)
(60.074 -5.1572 -1.3286e-15)
(60.7445 -4.99916 0)
(61.3978 -4.86302 1.3079e-15)
(62.0329 -4.72262 -1.29793e-15)
(62.6253 -4.55616 2.01356e-17)
(63.1606 -4.38747 -2.00035e-17)
(63.654 -4.22875 1.98804e-17)
(64.1147 -4.06525 -1.97692e-17)
(64.5388 -3.8952 1.9667e-17)
(64.9262 -3.7208 -1.9574e-17)
(65.2826 -3.5435 1.94873e-17)
(65.6095 -3.36346 -1.2615e-15)
(65.91 -3.18697 1.25676e-15)
(66.1883 -3.0155 -1.9266e-17)
(66.4467 -2.85022 1.92017e-17)
(66.6895 -2.69564 1.22506e-15)
(66.9188 -2.54976 -1.24063e-15)
(67.1375 -2.41612 1.90337e-17)
(67.348 -2.29288 -1.89849e-17)
(67.551 -2.18078 1.89388e-17)
(67.7477 -2.07995 -1.88958e-17)
(67.94 -1.98863 -1.18784e-15)
(68.1273 -1.90479 -1.87676e-17)
(68.3094 -1.82893 1.88255e-17)
(68.4861 -1.75985 5.99822e-16)
(68.6579 -1.69784 2.12573e-20)
(68.825 -1.64178 5.97632e-16)
(68.9884 -1.59111 -1.64757e-22)
(69.1478 -1.54336 0)
(69.3028 -1.49849 -3.71576e-17)
(69.4532 -1.45528 0)
(69.5986 -1.41369 5.9252e-16)
(69.739 -1.37287 -5.91573e-16)
(69.8741 -1.33252 -3.69136e-17)
(70.0039 -1.29345 0)
(70.129 -1.25508 -5.70353e-16)
(70.2493 -1.21744 -1.8357e-17)
(70.365 -1.18056 5.68642e-16)
(70.4759 -1.14446 -1.83168e-17)
(70.5826 -1.10921 -5.67037e-16)
(70.6849 -1.07481 5.66316e-16)
(70.7834 -1.04159 6.02109e-16)
(70.8786 -1.00966 -6.01435e-16)
(70.9707 -0.979287 -5.64376e-16)
(71.0604 -0.95043 5.82015e-16)
(71.148 -0.923379 0)
(71.2339 -0.897895 3.08637e-16)
(71.3183 -0.874245 -2.72109e-16)
(71.4015 -0.852296 -2.71897e-16)
(71.4838 -0.831915 5.97744e-16)
(71.5652 -0.812932 -2.8962e-16)
(71.6458 -0.795137 1.80893e-17)
(71.7256 -0.778399 3.0733e-16)
(71.8047 -0.762387 -2.71015e-16)
(71.8827 -0.747191 -2.88922e-16)
(71.96 -0.732286 2.70718e-16)
(72.0357 -0.718229 0)
(72.1113 -0.703956 0)
(72.184 -0.691022 0)
(72.2587 -0.676929 -1.80124e-17)
(72.3273 -0.665492 1.80066e-17)
(72.4029 -0.650874 1.79964e-17)
(72.465 -0.641617 0)
(72.5458 -0.62555 -1.79831e-17)
(72.5968 -0.617822 7.49486e-23)
(72.6981 -0.600575 4.62017e-17)
(44.3103 -0.866884 -2.39872e-17)
(44.8126 -1.78557 -3.29607e-17)
(45.2294 -2.66867 0)
(45.596 -3.41735 -4.55647e-21)
(46.1581 -4.12159 3.84561e-15)
(46.6078 -4.68728 6.01747e-17)
(47.254 -5.30246 -3.66182e-15)
(47.9671 -5.79448 0)
(48.7473 -6.31865 -3.49785e-15)
(49.537 -6.77785 3.38943e-15)
(50.4759 -7.25249 2.58801e-17)
(51.4921 -7.62478 -2.53498e-17)
(52.6138 -8.0275 3.15265e-15)
(53.8188 -8.43405 2.57604e-17)
(55.0642 -8.79484 -2.25362e-17)
(56.3211 -9.10055 2.49504e-17)
(57.5622 -9.35466 -2.20161e-17)
(58.7801 -9.56556 -5.91561e-15)
(59.9476 -9.70512 2.93393e-15)
(61.0319 -9.74532 2.89257e-15)
(62.0047 -9.67781 9.78361e-19)
(62.8551 -9.51227 -2.87934e-15)
(63.5902 -9.26361 -2.23698e-17)
(64.2254 -8.94762 2.22289e-17)
(64.7746 -8.59477 2.20999e-17)
(65.2679 -8.212 -2.83232e-15)
(65.7272 -7.85717 4.16671e-15)
(66.1649 -7.48257 1.56447e-19)
(66.5774 -7.12832 -1.33761e-15)
(66.9956 -6.81822 0)
(67.4073 -6.52152 1.32496e-15)
(67.8424 -6.27025 -2.72132e-15)
(68.2901 -6.04493 2.72995e-15)
(68.7434 -5.83533 -2.71405e-15)
(69.1968 -5.67259 1.31782e-15)
(69.6524 -5.49891 2.07739e-17)
(70.0849 -5.35331 -2.0628e-17)
(70.5032 -5.18826 0)
(70.8753 -4.99157 -1.32131e-15)
(71.1783 -4.78751 1.29307e-15)
(71.4361 -4.59845 -8.45947e-22)
(71.6678 -4.39465 0)
(71.8666 -4.19158 -1.27285e-15)
(72.0364 -3.99205 1.28703e-15)
(72.1867 -3.79527 -1.97179e-17)
(72.3171 -3.59411 1.27655e-15)
(72.4306 -3.40005 -1.96205e-17)
(72.5325 -3.21319 -1.24768e-15)
(72.6239 -3.03383 -4.94246e-22)
(72.71 -2.86889 1.23914e-15)
(72.7917 -2.7125 -1.21608e-15)
(72.8721 -2.5719 1.21244e-15)
(72.9526 -2.44106 -1.22836e-15)
(73.032 -2.3222 1.22523e-15)
(73.1118 -2.21753 -1.2222e-15)
(73.1942 -2.12304 -1.23838e-15)
(73.2769 -2.03553 1.21643e-15)
(73.3581 -1.95562 -1.89631e-17)
(73.437 -1.88243 1.89212e-17)
(73.5138 -1.81644 -1.88812e-17)
(73.5884 -1.75724 0)
(73.6624 -1.70416 -2.07563e-22)
(73.7351 -1.65315 1.20097e-15)
(73.8057 -1.60517 -1.79785e-15)
(73.8737 -1.55821 1.19618e-15)
(73.9382 -1.51301 -1.86709e-17)
(73.9997 -1.46836 -1.17303e-15)
(74.0575 -1.4241 6.13315e-16)
(74.1116 -1.38182 5.93621e-16)
(74.163 -1.34004 -6.11067e-16)
(74.2114 -1.29895 0)
(74.257 -1.25866 -5.9044e-16)
(74.2995 -1.21926 5.89469e-16)
(74.3394 -1.18094 -1.02819e-22)
(74.3769 -1.14361 0)
(74.4123 -1.10788 -1.83388e-17)
(74.4464 -1.07375 0)
(74.4795 -1.04163 -1.82924e-17)
(74.5121 -1.01128 1.82711e-17)
(74.5447 -0.983181 0)
(74.5775 -0.956669 -1.82321e-17)
(74.6104 -0.932295 -6.87649e-23)
(74.6438 -0.909763 -3.09339e-16)
(74.6777 -0.888926 2.54521e-16)
(74.712 -0.869518 -1.81642e-17)
(74.7466 -0.851289 -1.8149e-17)
(74.7816 -0.83408 -3.62693e-17)
(74.8167 -0.817479 -1.81205e-17)
(74.8518 -0.801679 -3.07823e-16)
(74.8868 -0.785996 3.48347e-21)
(74.9213 -0.771259 2.89312e-16)
(74.9561 -0.756076 -1.44549e-16)
(74.9895 -0.742499 1.26407e-16)
(75.0242 -0.727462 1.80446e-17)
(75.0559 -0.715472 -3.60704e-17)
(75.0918 -0.70012 -1.80213e-17)
(75.1207 -0.690308 -1.80125e-17)
(75.16 -0.674377 5.40004e-17)
(75.1854 -0.665568 -5.81823e-17)
(75.2356 -0.649278 -4.5654e-17)
(73.2723 -0.523819 2.15429e-15)
(72.0494 -1.17094 -3.19739e-15)
(71.1581 -2.10639 2.48936e-17)
(70.3052 -2.9458 2.49266e-17)
(69.781 -3.91238 -3.21786e-15)
(69.1152 -4.42548 3.15741e-15)
(68.9126 -5.50995 4.30861e-15)
(68.8539 -6.10377 -2.0292e-17)
(68.8422 -6.58517 2.09581e-17)
(68.9411 -7.10592 -2.16157e-17)
(69.2624 -7.64315 -2.01433e-17)
(69.8086 -8.1376 -3.0369e-15)
(70.4986 -8.67642 0)
(71.2949 -9.18129 -4.58113e-17)
(72.1455 -9.60856 -2.90119e-15)
(73.0165 -9.96224 -4.61544e-17)
(73.8786 -10.2345 -1.20986e-18)
(74.7044 -10.4354 2.83046e-15)
(75.4295 -10.5271 -4.40563e-17)
(76.0222 -10.4942 0)
(76.4732 -10.343 -4.38946e-17)
(76.7781 -10.0978 0)
(76.9866 -9.78134 -2.82521e-15)
(77.1065 -9.4046 -2.25295e-17)
(77.1829 -9.02092 2.77105e-15)
(77.2746 -8.58121 2.51764e-17)
(77.3337 -8.25057 -2.46296e-15)
(77.4178 -7.8603 5.54233e-15)
(77.5348 -7.51103 -4.29379e-17)
(77.6877 -7.21509 -2.75207e-15)
(77.8583 -6.92474 2.77373e-15)
(78.0643 -6.67873 -2.76169e-15)
(78.2964 -6.45037 0)
(78.5043 -6.22393 1.87387e-21)
(78.7078 -6.05528 0)
(78.892 -5.83997 -4.22974e-17)
(79.0409 -5.66518 -1.32624e-15)
(79.1558 -5.47946 1.31967e-15)
(79.2263 -5.21785 0)
(79.2607 -4.8769 1.95308e-15)
(79.2685 -4.70795 -2.40821e-15)
(79.256 -4.54187 1.02592e-15)
(79.1904 -4.30973 -4.10833e-17)
(79.1214 -4.09315 -2.04748e-17)
(79.0652 -3.88877 -2.04068e-17)
(79.0094 -3.67467 -2.03405e-17)
(78.9467 -3.47248 0)
(78.8859 -3.27939 0)
(78.8247 -3.09416 1.24806e-15)
(78.7736 -2.93126 -2.56571e-15)
(78.7288 -2.77339 1.23773e-15)
(78.6924 -2.63664 0)
(78.6658 -2.50761 1.26736e-15)
(78.6416 -2.38723 -1.28269e-15)
(78.6204 -2.2817 0)
(78.608 -2.18564 -1.95967e-17)
(78.5973 -2.09577 0)
(78.5864 -2.01226 -1.24557e-15)
(78.5733 -1.93529 2.46387e-15)
(78.5595 -1.86524 -1.25719e-15)
(78.5444 -1.80342 0)
(78.5319 -1.74984 1.19215e-15)
(78.5199 -1.69707 -1.2272e-15)
(78.5074 -1.64746 2.26247e-22)
(78.4935 -1.59778 0)
(78.478 -1.55055 1.90189e-17)
(78.4612 -1.50262 -1.25217e-15)
(78.4418 -1.45449 1.21128e-15)
(78.4203 -1.41023 -1.88813e-17)
(78.3988 -1.3664 0)
(78.3762 -1.32336 -1.87912e-17)
(78.353 -1.28095 6.18629e-16)
(78.3283 -1.23943 -6.17332e-16)
(78.3031 -1.19943 -6.16062e-16)
(78.2775 -1.16065 1.19247e-15)
(78.2521 -1.12414 -1.19029e-15)
(78.2277 -1.08947 1.18818e-15)
(78.204 -1.05743 -5.93125e-16)
(78.1823 -1.02732 -1.04517e-22)
(78.1621 -0.999974 0)
(78.1442 -0.97394 -5.9031e-16)
(78.1275 -0.950197 1.16045e-15)
(78.1124 -0.928113 -1.17721e-15)
(78.0987 -0.907786 6.06195e-16)
(78.0867 -0.888839 -2.75191e-16)
(78.0757 -0.87107 2.93178e-16)
(78.0661 -0.85421 1.83021e-17)
(78.0573 -0.837829 2.9249e-16)