/*--------------------------------*- C++ -*----------------------------------*\
  =========                 |
  \\      /  F ield         | OpenFOAM: The Open Source CFD Toolbox
   \\    /   O peration     | Website:  https://openfoam.org
    \\  /    A nd           | Version:  8
     \\/     M anipulation  |
\*---------------------------------------------------------------------------*/
FoamFile
{
    version     2.0;
    format      ascii;
    class       volScalarField;
    location    "2.999969291";
    object      alphat;
}
// * * * * * * * * * * * * * * * * * * * * * * * * * * * * * * * * * * * * * //

dimensions      [1 -1 -1 0 0 0 0];

internalField   nonuniform List<scalar> 
6800
(
0.0438997
0.0626182
0.0649309
0.064493
0.0646882
0.0554092
0.044484
0.033273
0.0272149
0.0278177
0.0353138
0.057142
0.0624541
0.0621262
0.0583108
0.0452137
0.0333426
0.0288938
0.0266848
0.0224986
0.0348793
0.0557908
0.06131
0.0583384
0.0477714
0.0354065
0.0298903
0.0263242
0.0205515
0.0186305
0.0354631
0.0543409
0.0581961
0.0535907
0.0406061
0.0329876
0.0271225
0.0220443
0.0190421
0.017866
0.0351305
0.0536408
0.0566632
0.0484723
0.0356412
0.0282189
0.0231199
0.0206557
0.018164
0.0155241
0.0351191
0.0546699
0.054656
0.0419187
0.0317716
0.0270961
0.0229002
0.0191193
0.0160152
0.0146999
0.0347558
0.0555878
0.0525544
0.0387817
0.0312633
0.0243547
0.0199377
0.0170126
0.0153444
0.014327
0.0346484
0.0573412
0.049081
0.0335693
0.0266124
0.0233829
0.0191597
0.0169276
0.0145477
0.0134619
0.0344326
0.058559
0.0441015
0.0350935
0.0285395
0.021529
0.0176384
0.0154418
0.0138374
0.0132217
0.0344786
0.0597431
0.0418187
0.0305388
0.0232203
0.0208295
0.0171086
0.0151915
0.0135912
0.0126805
0.041264
0.223099
0.416976
0.544073
0.575534
0.589892
0.60292
0.616862
0.626177
0.630211
0.0414051
0.216066
0.40711
0.521468
0.548093
0.557163
0.564419
0.569119
0.567192
0.564384
0.037989
0.190361
0.383659
0.47946
0.50116
0.505744
0.504513
0.502932
0.502511
0.495134
0.0354666
0.167739
0.348011
0.424557
0.440741
0.434696
0.428663
0.419231
0.399394
0.356748
0.181897
0.226846
0.330708
0.368868
0.363822
0.354099
0.338671
0.300687
0.271709
0.205574
0.208831
0.252682
0.303045
0.30323
0.294868
0.267579
0.22879
0.172123
0.138857
0.0995569
0.219406
0.244042
0.25053
0.241295
0.20689
0.156407
0.115212
0.0886205
0.0808958
0.0627403
0.234027
0.195742
0.172028
0.160564
0.114833
0.0914207
0.0775549
0.0646602
0.0618853
0.0501902
0.190956
0.158903
0.137618
0.0941294
0.0780629
0.0707839
0.062958
0.0563054
0.0540858
0.0392417
0.139773
0.0951589
0.0818617
0.0716637
0.0684185
0.064186
0.0556343
0.0488792
0.0352409
0.0283546
0.632741
0.626252
0.61581
0.604415
0.593603
0.583872
0.575255
0.567963
0.561744
0.556308
0.551479
0.547142
0.543226
0.539682
0.536473
0.533563
0.530919
0.528509
0.526306
0.524289
0.522437
0.520735
0.519163
0.517714
0.516366
0.515094
0.513885
0.512733
0.511628
0.510554
0.50951
0.508497
0.507517
0.506571
0.505662
0.504789
0.503952
0.503151
0.502384
0.501651
0.500949
0.500279
0.499641
0.499034
0.498458
0.497912
0.497394
0.496906
0.496447
0.49602
0.495624
0.495258
0.494923
0.494617
0.49434
0.494091
0.493869
0.493673
0.4935
0.493349
0.493218
0.493105
0.493007
0.492923
0.492849
0.492784
0.492725
0.492671
0.49262
0.492571
0.492522
0.492474
0.492425
0.492376
0.492327
0.492277
0.492227
0.492179
0.492129
0.492083
0.492035
0.491993
0.491948
0.491913
0.491871
0.491846
0.491805
0.491796
0.491751
0.491767
0.491712
0.491765
0.491688
0.491797
0.491677
0.491847
0.491746
0.4918
0.492401
0.491555
0.566559
0.564966
0.558989
0.552026
0.545209
0.538858
0.533076
0.528207
0.523931
0.520125
0.516725
0.513688
0.510979
0.508571
0.506432
0.504526
0.502815
0.501276
0.499888
0.498636
0.497508
0.496492
0.495574
0.494753
0.493979
0.493223
0.492501
0.491823
0.491156
0.490488
0.489844
0.489234
0.488659
0.488119
0.48761
0.487132
0.486681
0.486255
0.485855
0.485473
0.485114
0.484783
0.484478
0.484199
0.483941
0.483704
0.483483
0.483286
0.483116
0.482969
0.482844
0.482739
0.482653
0.482587
0.48254
0.482512
0.482502
0.48251
0.482534
0.482572
0.482624
0.482687
0.482757
0.482833
0.482912
0.482995
0.483077
0.483157
0.483235
0.483309
0.483381
0.48345
0.483516
0.48358
0.483642
0.483702
0.48376
0.483817
0.483874
0.483931
0.483987
0.484047
0.484103
0.484167
0.484222
0.484294
0.484346
0.484432
0.484476
0.484584
0.484612
0.484756
0.484758
0.484958
0.484911
0.485178
0.485137
0.485291
0.485966
0.485229
0.498754
0.499643
0.495166
0.490208
0.485552
0.481316
0.477551
0.473686
0.470087
0.46692
0.464187
0.461864
0.459917
0.458318
0.457
0.455915
0.455018
0.454286
0.453701
0.45325
0.452922
0.452703
0.452586
0.452546
0.452602
0.452752
0.452978
0.453229
0.453581
0.454022
0.454507
0.455009
0.455515
0.456015
0.456502
0.456974
0.457427
0.457858
0.458273
0.458657
0.459054
0.459466
0.459874
0.460271
0.460652
0.461019
0.461372
0.46171
0.462029
0.462339
0.462642
0.462944
0.463247
0.463553
0.463863
0.464178
0.464498
0.464823
0.465152
0.465483
0.465819
0.466148
0.466469
0.466783
0.46709
0.467395
0.467682
0.467958
0.468225
0.468486
0.468741
0.468992
0.469237
0.469478
0.469714
0.469946
0.470176
0.470404
0.470629
0.470855
0.471075
0.471299
0.471514
0.471737
0.471944
0.47217
0.472367
0.472601
0.472783
0.473034
0.473192
0.473477
0.473602
0.473945
0.474011
0.474421
0.47449
0.474793
0.475568
0.474969
0.355026
0.357016
0.357903
0.358777
0.360088
0.36165
0.363405
0.365476
0.367626
0.369878
0.372152
0.374453
0.376838
0.379273
0.381662
0.383967
0.38616
0.388267
0.390312
0.392311
0.39428
0.396223
0.398142
0.400033
0.401892
0.403717
0.405505
0.40726
0.408943
0.410558
0.412125
0.413645
0.415119
0.416542
0.41791
0.419226
0.420485
0.421699
0.422851
0.423984
0.425017
0.425964
0.426847
0.427687
0.428491
0.429275
0.430038
0.430793
0.431539
0.432279
0.433018
0.433756
0.434493
0.435231
0.435968
0.436705
0.437442
0.438176
0.438908
0.439637
0.440357
0.441076
0.441793
0.442504
0.443207
0.443896
0.444589
0.445279
0.44596
0.44663
0.447286
0.447928
0.448555
0.449168
0.449763
0.450351
0.45093
0.451502
0.452059
0.452608
0.45314
0.453666
0.45417
0.454675
0.455151
0.455641
0.456087
0.45657
0.456983
0.457471
0.457844
0.458353
0.458672
0.459225
0.459469
0.460084
0.460307
0.460826
0.461759
0.461371
0.199143
0.196962
0.197124
0.199182
0.202863
0.207654
0.213149
0.219123
0.225177
0.231585
0.237962
0.24433
0.25106
0.257509
0.263421
0.268961
0.274197
0.279314
0.284331
0.289256
0.294096
0.298847
0.303508
0.308064
0.312515
0.316844
0.321058
0.32514
0.329108
0.33293
0.336643
0.340203
0.343628
0.346889
0.349991
0.352955
0.355792
0.358514
0.361134
0.363652
0.366102
0.368492
0.370807
0.373068
0.375254
0.377401
0.379475
0.381524
0.38352
0.385474
0.387386
0.389255
0.391081
0.392866
0.39461
0.396316
0.397981
0.399609
0.4012
0.402754
0.404269
0.405747
0.407187
0.408591
0.409959
0.411293
0.412586
0.413846
0.415072
0.41627
0.417436
0.418576
0.419687
0.420773
0.421834
0.422862
0.423852
0.424816
0.425748
0.426662
0.427545
0.428416
0.429253
0.43009
0.430884
0.431694
0.432445
0.433239
0.433944
0.434736
0.435388
0.436197
0.436788
0.437637
0.438141
0.439048
0.439521
0.440345
0.441475
0.441514
0.098004
0.0973609
0.0972376
0.0977006
0.0987492
0.100322
0.102362
0.104827
0.107536
0.111017
0.114424
0.118127
0.122558
0.126715
0.13208
0.137415
0.143231
0.149496
0.155851
0.162328
0.168932
0.175628
0.182372
0.189106
0.195812
0.202426
0.208967
0.215367
0.22166
0.227775
0.233775
0.239385
0.244749
0.249659
0.254426
0.259094
0.263649
0.268104
0.272456
0.276724
0.280893
0.284994
0.288996
0.292946
0.296784
0.3006
0.304254
0.30798
0.31152
0.315024
0.318432
0.321717
0.324919
0.328034
0.331067
0.334021
0.336893
0.339697
0.342441
0.345106
0.347701
0.350232
0.352697
0.355103
0.357447
0.359737
0.361968
0.36415
0.366273
0.368352
0.37037
0.37235
0.374265
0.376149
0.377965
0.379754
0.381491
0.383195
0.384851
0.386475
0.388042
0.389586
0.391071
0.392547
0.393952
0.395371
0.396701
0.398077
0.39933
0.400681
0.401852
0.4032
0.404282
0.405653
0.406619
0.408031
0.408925
0.410294
0.411676
0.412488
0.0620379
0.0612852
0.0606232
0.0601622
0.0598164
0.0596272
0.0595203
0.0595876
0.0597672
0.0600768
0.0605976
0.06113
0.0619867
0.0628261
0.063687
0.0648511
0.0661737
0.0675429
0.0691763
0.0709784
0.0732869
0.0758819
0.078693
0.0817374
0.0850931
0.0887297
0.0926185
0.0967323
0.101102
0.105687
0.110494
0.115688
0.121372
0.127326
0.133395
0.139575
0.145804
0.152081
0.158338
0.164588
0.170764
0.17689
0.182909
0.188846
0.194658
0.200366
0.205956
0.211408
0.21679
0.221904
0.226822
0.231488
0.236052
0.240496
0.244863
0.249133
0.253353
0.257532
0.261681
0.265578
0.269468
0.273292
0.277038
0.280719
0.284317
0.287853
0.291298
0.294685
0.297974
0.301205
0.304322
0.307393
0.310332
0.313254
0.316017
0.318813
0.321466
0.324104
0.326654
0.329133
0.331526
0.333899
0.336182
0.338459
0.340632
0.342832
0.344902
0.34704
0.349007
0.351101
0.352957
0.355029
0.356763
0.358841
0.360425
0.36253
0.363954
0.366075
0.367772
0.369792
0.049524
0.0487179
0.0479805
0.0472948
0.0465991
0.0459433
0.0452508
0.0446041
0.043801
0.0430725
0.0421241
0.0413503
0.0403575
0.0395516
0.0388863
0.0382988
0.0378479
0.0374229
0.0371445
0.0369023
0.0368512
0.0368087
0.0370308
0.037196
0.0376765
0.0381984
0.0386355
0.0393409
0.0402815
0.041324
0.0425071
0.0438505
0.0453738
0.0471276
0.0490739
0.0512929
0.0537033
0.056398
0.0592825
0.0624636
0.0658296
0.0694888
0.0733171
0.077433
0.081694
0.0862337
0.0908839
0.0958036
0.100783
0.106104
0.111627
0.117426
0.123295
0.129223
0.135164
0.141099
0.146993
0.152848
0.158635
0.164339
0.169922
0.175408
0.180753
0.185995
0.191085
0.196079
0.200913
0.205668
0.210203
0.214612
0.218818
0.222935
0.226909
0.230842
0.234641
0.238414
0.242067
0.245709
0.249225
0.252756
0.256127
0.259559
0.262796
0.266052
0.269184
0.272384
0.275379
0.278493
0.281344
0.284386
0.287075
0.290061
0.292571
0.295533
0.297829
0.300791
0.302867
0.305904
0.307794
0.311473
0.0381206
0.0370327
0.0360223
0.0349524
0.0339425
0.0329242
0.0320315
0.0311361
0.030402
0.0296572
0.0290806
0.0284223
0.0278171
0.0271789
0.0266242
0.0261269
0.0256941
0.0253014
0.0249607
0.0246481
0.0243815
0.024136
0.0239342
0.0237488
0.0236041
0.0234764
0.0233914
0.0233071
0.023279
0.0232456
0.0232832
0.0233004
0.0234108
0.023484
0.0236707
0.0238885
0.0241064
0.0243624
0.0246558
0.0251541
0.0256069
0.026191
0.0268139
0.0275863
0.0284105
0.0294064
0.0304767
0.031737
0.0330992
0.0346764
0.0363815
0.0383384
0.0404445
0.0428203
0.0453501
0.0481625
0.0511313
0.0543805
0.0577837
0.0614597
0.065272
0.069337
0.0735114
0.0779112
0.082389
0.0870588
0.0917737
0.0966426
0.101582
0.106721
0.11187
0.117167
0.122364
0.127638
0.132768
0.137955
0.142957
0.14801
0.15284
0.15773
0.16236
0.167069
0.171485
0.176013
0.180198
0.184564
0.188524
0.19275
0.196486
0.200543
0.203987
0.207921
0.211073
0.21495
0.21787
0.221785
0.224316
0.22849
0.230499
0.236188
0.0278549
0.026982
0.0260935
0.0253552
0.0247243
0.0241619
0.0236551
0.0231848
0.0227559
0.0223466
0.0219632
0.0216042
0.0212714
0.0209622
0.0206727
0.0204043
0.0201532
0.0199212
0.0197046
0.0195054
0.0193198
0.0191499
0.0189918
0.0188478
0.018714
0.0185928
0.0184798
0.0183785
0.0182834
0.0182002
0.01812
0.0180539
0.0179871
0.017936
0.0178828
0.0178509
0.0178054
0.0177915
0.0177645
0.017764
0.0177456
0.017763
0.0177497
0.0177916
0.0177848
0.0178556
0.0178725
0.0179689
0.0180992
0.0182212
0.0182759
0.0185189
0.0185206
0.0188303
0.0189681
0.0194248
0.0196776
0.0202063
0.0206127
0.0212455
0.0218181
0.0226057
0.023348
0.0243394
0.0252815
0.0265124
0.0276846
0.0291873
0.0306183
0.0324255
0.0341488
0.0362936
0.0383331
0.040833
0.0431915
0.0460493
0.0487172
0.0519247
0.0548804
0.0584192
0.0616298
0.0654736
0.0688956
0.0730129
0.0765945
0.0809499
0.0846322
0.0891923
0.0929119
0.0977157
0.101485
0.106507
0.110229
0.115428
0.118976
0.12433
0.127551
0.133226
0.1348
0.144009
0.0225454
0.0220551
0.0215786
0.0211236
0.0206977
0.0203003
0.0199267
0.0195819
0.0192551
0.0189586
0.0186883
0.0184432
0.0182155
0.0180076
0.017812
0.0176336
0.017464
0.0173099
0.0171627
0.0170298
0.0169009
0.016784
0.0166691
0.0165645
0.0164606
0.0163657
0.0162708
0.0161841
0.0160968
0.0160173
0.0159366
0.0158637
0.0157886
0.0157216
0.0156511
0.0155893
0.0155224
0.0154699
0.0154098
0.0153656
0.0153114
0.015275
0.0152259
0.0151966
0.0151522
0.0151292
0.0150902
0.0150726
0.0150398
0.0150294
0.015002
0.0149979
0.0149762
0.0149779
0.0149631
0.0149718
0.0149674
0.0149838
0.0149914
0.0150175
0.0150395
0.0150789
0.0151203
0.0151761
0.0152469
0.0153183
0.015381
0.0155202
0.0156043
0.0157764
0.015888
0.0161209
0.0162702
0.0165793
0.0167775
0.0171863
0.0174376
0.0179761
0.0182992
0.0189933
0.0194023
0.0202877
0.0207993
0.0218987
0.0225378
0.0238928
0.024668
0.026305
0.0272414
0.0291805
0.030293
0.0325647
0.0338547
0.036489
0.0379419
0.0409282
0.0424525
0.0456624
0.0479004
0.0519613
0.0186902
0.0184637
0.0182397
0.018018
0.017793
0.0175661
0.0173476
0.0171355
0.0169367
0.0167475
0.0165718
0.0164048
0.01625
0.0161026
0.0159658
0.0158355
0.0157145
0.0155993
0.0154906
0.0153859
0.0152869
0.0151916
0.015101
0.0150141
0.0149307
0.0148511
0.0147741
0.0147013
0.0146302
0.0145637
0.0144983
0.0144378
0.0143776
0.0143228
0.0142673
0.0142178
0.0141665
0.014122
0.0140745
0.0140347
0.0139906
0.0139553
0.0139142
0.0138833
0.0138448
0.0138178
0.0137814
0.013758
0.0137234
0.0137034
0.0136704
0.0136534
0.0136218
0.0136073
0.0135772
0.0135646
0.0135362
0.0135254
0.0134991
0.0134903
0.0134662
0.0134579
0.0134346
0.0134267
0.0134028
0.013399
0.0133788
0.0133799
0.0133628
0.0133683
0.0133549
0.0133639
0.0133559
0.0133673
0.013367
0.0133782
0.0133906
0.0134
0.0134298
0.0134398
0.0134855
0.0135025
0.0135637
0.0136171
0.01367
0.0137394
0.0137979
0.0139058
0.0139701
0.014122
0.0142301
0.0144554
0.014553
0.0149079
0.0150242
0.0154229
0.0156082
0.0162634
0.0170602
0.0171808
0.0161441
0.0160175
0.0158867
0.0157468
0.0156051
0.0154594
0.0153169
0.0151737
0.0150365
0.0149003
0.0147714
0.0146442
0.014525
0.0144077
0.0142985
0.014191
0.0140914
0.0139932
0.0139027
0.0138134
0.0137313
0.0136504
0.0135763
0.0135033
0.0134366
0.0133707
0.0133107
0.0132515
0.0131976
0.0131442
0.0130956
0.0130476
0.0130036
0.0129603
0.0129205
0.0128814
0.0128454
0.0128102
0.0127774
0.0127457
0.0127159
0.0126874
0.0126602
0.0126346
0.0126096
0.0125867
0.0125636
0.0125431
0.0125217
0.0125034
0.0124834
0.0124672
0.0124484
0.012434
0.0124164
0.0124037
0.012387
0.0123759
0.0123601
0.0123504
0.0123355
0.0123271
0.0123128
0.0123056
0.0122919
0.0122859
0.0122727
0.0122679
0.012255
0.0122512
0.0122386
0.012236
0.0122236
0.012222
0.01221
0.0122093
0.0121975
0.0121981
0.0121863
0.0121883
0.0121763
0.0121802
0.0121678
0.0121746
0.012162
0.0121718
0.0121592
0.0121717
0.0121598
0.0121752
0.0121651
0.0121843
0.0121768
0.0122002
0.012199
0.012226
0.0122271
0.0122643
0.0122921
0.0123347
0.0143901
0.0143175
0.0142401
0.0141524
0.0140612
0.0139642
0.0138687
0.0137707
0.0136771
0.0135827
0.0134943
0.0134058
0.0133243
0.0132427
0.0131684
0.0130939
0.0130267
0.0129588
0.0128983
0.0128365
0.012782
0.0127257
0.0126767
0.0126253
0.0125811
0.0125341
0.0124943
0.0124512
0.0124152
0.0123757
0.0123431
0.0123065
0.012277
0.0122431
0.0122162
0.0121848
0.0121602
0.012131
0.0121087
0.0120815
0.0120612
0.0120358
0.0120173
0.0119935
0.0119766
0.0119542
0.0119387
0.0119176
0.0119034
0.0118833
0.0118703
0.0118513
0.0118394
0.0118213
0.0118104
0.0117932
0.0117833
0.011767
0.011758
0.0117424
0.0117343
0.0117195
0.0117121
0.0116979
0.0116912
0.0116776
0.0116715
0.0116584
0.0116529
0.0116403
0.0116353
0.011623
0.0116186
0.0116067
0.0116027
0.0115912
0.0115875
0.0115764
0.0115732
0.0115624
0.0115595
0.011549
0.0115464
0.0115361
0.0115339
0.0115238
0.0115218
0.0115119
0.01151
0.0115003
0.0114983
0.0114888
0.0114866
0.0114769
0.0114747
0.0114652
0.0114619
0.0114522
0.0114153
0.0114664
0.0131129
0.0130735
0.0130302
0.0129773
0.0129207
0.0128581
0.0127958
0.0127301
0.012667
0.0126017
0.0125402
0.0124774
0.0124191
0.0123597
0.0123053
0.0122498
0.0121996
0.0121481
0.012102
0.0120545
0.0120124
0.0119685
0.0119303
0.0118899
0.0118551
0.0118179
0.0117863
0.0117519
0.0117233
0.0116915
0.0116656
0.0116361
0.0116126
0.0115853
0.0115639
0.0115385
0.0115191
0.0114954
0.0114778
0.0114556
0.0114397
0.0114188
0.0114043
0.0113847
0.0113716
0.0113531
0.0113411
0.0113237
0.0113129
0.0112964
0.0112866
0.0112709
0.0112621
0.0112472
0.0112392
0.011225
0.0112178
0.0112042
0.0111977
0.0111847
0.0111788
0.0111663
0.011161
0.0111489
0.0111441
0.0111325
0.0111281
0.0111169
0.0111129
0.011102
0.0110985
0.0110879
0.0110847
0.0110744
0.0110714
0.0110616
0.0110588
0.0110492
0.0110466
0.0110373
0.0110349
0.0110259
0.0110236
0.0110149
0.0110126
0.0110042
0.011002
0.0109939
0.0109916
0.010984
0.0109816
0.0109743
0.0109718
0.0109648
0.0109621
0.0109556
0.0109525
0.0109464
0.0109438
0.010935
0.0122278
0.0122098
0.0121896
0.0121597
0.0121269
0.0120873
0.0120481
0.0120043
0.0119626
0.0119176
0.011876
0.0118316
0.0117915
0.011749
0.0117112
0.0116711
0.0116358
0.0115982
0.0115657
0.0115306
0.0115007
0.011468
0.0114406
0.0114101
0.011385
0.0113567
0.0113338
0.0113074
0.0112864
0.0112617
0.0112425
0.0112194
0.0112018
0.0111801
0.0111641
0.0111437
0.0111289
0.0111097
0.0110962
0.0110779
0.0110655
0.0110482
0.0110368
0.0110203
0.0110098
0.010994
0.0109844
0.0109693
0.0109604
0.010946
0.0109378
0.0109239
0.0109165
0.0109031
0.0108962
0.0108833
0.010877
0.0108645
0.0108588
0.0108467
0.0108413
0.0108296
0.0108247
0.0108133
0.0108088
0.0107977
0.0107935
0.0107827
0.0107788
0.0107684
0.0107647
0.0107545
0.0107511
0.0107412
0.010738
0.0107283
0.0107253
0.0107159
0.010713
0.0107038
0.010701
0.0106921
0.0106894
0.0106807
0.010678
0.0106697
0.010667
0.0106589
0.0106562
0.0106484
0.0106456
0.0106382
0.0106353
0.0106283
0.0106252
0.0106186
0.0106154
0.0106094
0.0106055
0.010598
0.0116188
0.0116129
0.0116056
0.0115892
0.0115704
0.0115448
0.0115197
0.0114896
0.0114615
0.0114292
0.0114
0.0113672
0.0113383
0.011306
0.0112781
0.011247
0.0112205
0.0111908
0.0111659
0.0111378
0.0111146
0.011088
0.0110666
0.0110415
0.0110217
0.0109981
0.0109798
0.0109575
0.0109406
0.0109196
0.010904
0.0108841
0.0108698
0.0108509
0.0108377
0.0108198
0.0108076
0.0107906
0.0107794
0.0107631
0.0107528
0.0107373
0.0107278
0.0107129
0.0107042
0.0106899
0.0106819
0.0106682
0.0106607
0.0106476
0.0106407
0.010628
0.0106217
0.0106094
0.0106036
0.0105917
0.0105863
0.0105748
0.0105699
0.0105587
0.0105541
0.0105433
0.0105391
0.0105285
0.0105246
0.0105143
0.0105106
0.0105006
0.0104972
0.0104874
0.0104842
0.0104747
0.0104717
0.0104623
0.0104595
0.0104504
0.0104477
0.0104388
0.0104362
0.0104276
0.010425
0.0104167
0.0104141
0.0104061
0.0104035
0.0103957
0.0103931
0.0103856
0.0103829
0.0103757
0.0103729
0.010366
0.010363
0.0103565
0.0103537
0.010347
0.0103402
0.0103345
0.010363
0.0103006
0.0111857
0.0111857
0.0111853
0.0111765
0.011166
0.0111488
0.0111323
0.0111106
0.0110908
0.0110666
0.0110454
0.0110201
0.0109985
0.0109731
0.010952
0.010927
0.0109067
0.0108826
0.0108634
0.0108402
0.0108222
0.0108001
0.0107833
0.0107622
0.0107467
0.0107266
0.0107122
0.0106931
0.0106798
0.0106616
0.0106494
0.010632
0.0106207
0.0106041
0.0105936
0.0105777
0.0105681
0.0105529
0.010544
0.0105293
0.0105211
0.010507
0.0104995
0.0104858
0.0104788
0.0104656
0.0104592
0.0104464
0.0104405
0.010428
0.0104226
0.0104104
0.0104054
0.0103936
0.010389
0.0103775
0.0103732
0.010362
0.0103581
0.0103471
0.0103435
0.0103328
0.0103295
0.010319
0.0103159
0.0103057
0.0103028
0.0102928
0.0102901
0.0102803
0.0102777
0.0102682
0.0102657
0.0102564
0.0102541
0.0102449
0.0102427
0.0102338
0.0102316
0.0102229
0.0102207
0.0102123
0.0102101
0.010202
0.0101997
0.0101918
0.0101895
0.0101819
0.0101795
0.0101722
0.0101696
0.0101627
0.0101598
0.0101532
0.0101498
0.0101442
0.0101442
0.0101383
0.010104
0.0101496
0.0108735
0.0108761
0.0108791
0.0108748
0.010869
0.0108571
0.0108459
0.0108297
0.0108153
0.0107965
0.0107804
0.0107603
0.0107436
0.0107231
0.0107064
0.0106859
0.0106698
0.0106497
0.0106343
0.0106148
0.0106002
0.0105813
0.0105677
0.0105495
0.0105368
0.0105193
0.0105076
0.0104907
0.0104798
0.0104636
0.0104535
0.0104379
0.0104286
0.0104135
0.010405
0.0103903
0.0103825
0.0103683
0.0103611
0.0103473
0.0103407
0.0103272
0.0103212
0.0103081
0.0103026
0.0102898
0.0102848
0.0102723
0.0102678
0.0102555
0.0102514
0.0102393
0.0102357
0.0102238
0.0102206
0.0102089
0.010206
0.0101945
0.010192
0.0101805
0.0101784
0.0101671
0.0101653
0.0101541
0.0101526
0.0101415
0.0101402
0.0101292
0.0101282
0.0101173
0.0101166
0.0101057
0.0101052
0.0100944
0.0100941
0.0100833
0.0100832
0.0100726
0.0100726
0.010062
0.0100622
0.0100517
0.010052
0.0100416
0.010042
0.0100316
0.0100321
0.0100219
0.0100225
0.0100123
0.010013
0.0100029
0.0100034
0.0099935
0.00999482
0.00998549
0.00998506
0.0099787
0.00997531
0.00996738
0.0106394
0.0106426
0.0106474
0.0106459
0.010643
0.0106347
0.0106267
0.0106143
0.0106033
0.0105884
0.0105756
0.0105593
0.0105457
0.0105288
0.0105151
0.010498
0.0104845
0.0104676
0.0104547
0.0104381
0.0104258
0.0104097
0.010398
0.0103824
0.0103715
0.0103563
0.0103461
0.0103315
0.010322
0.0103078
0.010299
0.0102853
0.0102771
0.0102637
0.0102562
0.0102432
0.0102362
0.0102235
0.0102171
0.0102046
0.0101987
0.0101866
0.0101811
0.0101692
0.0101642
0.0101525
0.010148
0.0101365
0.0101323
0.010121
0.0101173
0.010106
0.0101027
0.0100916
0.0100886
0.0100777
0.0100751
0.0100642
0.0100619
0.0100511
0.0100491
0.0100385
0.0100368
0.0100262
0.0100247
0.0100142
0.010013
0.0100025
0.0100016
0.00999114
0.00999041
0.00998004
0.00997951
0.00996918
0.00996885
0.00995855
0.0099584
0.00994815
0.00994816
0.00993794
0.0099381
0.00992793
0.00992822
0.0099181
0.0099185
0.00990844
0.00990894
0.00989894
0.00989951
0.00988959
0.00989024
0.00988041
0.00988098
0.00987107
0.00987221
0.00986355
0.00986646
0.00985995
0.00982815
0.00986978
0.0104619
0.0104671
0.0104729
0.010473
0.0104718
0.0104656
0.0104598
0.0104499
0.0104412
0.0104289
0.0104185
0.0104048
0.0103935
0.0103792
0.0103676
0.010353
0.0103415
0.010327
0.0103158
0.0103015
0.0102908
0.0102768
0.0102667
0.010253
0.0102434
0.0102302
0.0102211
0.0102082
0.0101997
0.0101872
0.0101793
0.0101671
0.0101596
0.0101478
0.0101408
0.0101292
0.0101227
0.0101114
0.0101054
0.0100943
0.0100886
0.0100778
0.0100725
0.0100619
0.010057
0.0100465
0.010042
0.0100317
0.0100274
0.0100173
0.0100134
0.0100034
0.00999976
0.00998991
0.00998655
0.00997683
0.00997372
0.00996413
0.00996125
0.00995178
0.00994912
0.00993975
0.00993729
0.00992804
0.00992575
0.00991662
0.00991448
0.00990546
0.00990346
0.00989456
0.00989266
0.00988389
0.00988209
0.00987345
0.00987171
0.00986322
0.00986153
0.00985318
0.00985152
0.00984334
0.00984167
0.00983367
0.00983197
0.00982418
0.00982241
0.00981484
0.00981298
0.00980566
0.00980367
0.00979663
0.00979445
0.00978766
0.00978552
0.00977936
0.0097756
0.00976903
0.00976759
0.00975653
0.00978063
0.00972418
0.0103261
0.0103322
0.0103383
0.010339
0.0103388
0.0103341
0.0103297
0.0103215
0.0103144
0.0103041
0.0102954
0.0102836
0.0102741
0.0102617
0.0102517
0.010239
0.0102291
0.0102164
0.0102067
0.0101941
0.0101847
0.0101724
0.0101634
0.0101514
0.0101428
0.010131
0.0101229
0.0101115
0.0101038
0.0100926
0.0100853
0.0100745
0.0100676
0.0100569
0.0100505
0.01004
0.010034
0.0100237
0.010018
0.010008
0.0100026
0.0099927
0.00998761
0.00997792
0.00997313
0.00996359
0.0099591
0.00994969
0.00994547
0.0099362
0.00993224
0.00992309
0.00991937
0.00991033
0.00990684
0.00989792
0.00989465
0.00988583
0.00988275
0.00987404
0.00987115
0.00986254
0.00985981
0.0098513
0.00984872
0.00984031
0.00983787
0.00982956
0.00982723
0.00981902
0.0098168
0.00980869
0.00980655
0.00979856
0.00979649
0.00978862
0.00978659
0.00977884
0.00977685
0.00976924
0.00976725
0.0097598
0.00975779
0.0097505
0.00974846
0.00974135
0.00973925
0.00973234
0.00973015
0.00972348
0.00972114
0.00971465
0.00971243
0.00970651
0.00970273
0.00969632
0.009695
0.00968394
0.00970794
0.00965244
0.0102242
0.0102301
0.0102364
0.0102374
0.0102379
0.010234
0.0102307
0.0102236
0.0102178
0.0102087
0.0102013
0.0101909
0.0101827
0.0101717
0.010163
0.0101517
0.010143
0.0101316
0.010123
0.0101116
0.0101033
0.0100921
0.010084
0.0100731
0.0100653
0.0100547
0.0100472
0.0100369
0.0100297
0.0100196
0.0100127
0.0100029
0.00999632
0.00998666
0.00998042
0.00997097
0.00996501
0.00995576
0.00995006
0.009941
0.00993554
0.00992667
0.00992144
0.00991273
0.00990772
0.00989918
0.00989437
0.009886
0.00988137
0.00987315
0.0098687
0.00986064
0.00985635
0.00984844
0.00984429
0.00983654
0.00983251
0.00982491
0.009821
0.00981356
0.00980974
0.00980245
0.00979871
0.00979159
0.0097879
0.00978095
0.00977729
0.00977052
0.00976688
0.0097603
0.00975665
0.00975027
0.00974659
0.00974042
0.00973669
0.00973074
0.00972693
0.00972123
0.00971732
0.00971188
0.00970783
0.00970268
0.00969847
0.00969363
0.00968922
0.00968473
0.00968009
0.00967595
0.00967105
0.00966731
0.00966209
0.0096588
0.00965336
0.00965053
0.0096439
0.00964133
0.00963607
0.00963153
0.00962757
0.00962276
0.0101491
0.0101544
0.0101604
0.0101611
0.010162
0.0101582
0.0101556
0.0101489
0.010144
0.0101353
0.010129
0.0101191
0.0101119
0.0101014
0.0100938
0.010083
0.0100753
0.0100645
0.0100568
0.010046
0.0100386
0.0100279
0.0100207
0.0100103
0.0100033
0.00999307
0.00998636
0.00997637
0.00996994
0.00996017
0.009954
0.00994446
0.00993853
0.0099292
0.00992352
0.00991438
0.00990892
0.00989997
0.00989473
0.00988596
0.00988091
0.00987232
0.00986746
0.00985903
0.00985434
0.00984607
0.00984155
0.00983344
0.00982906
0.00982111
0.00981687
0.00980907
0.00980495
0.0097973
0.00979329
0.0097858
0.00978189
0.00977455
0.00977072
0.00976355
0.00975977
0.00975276
0.00974903
0.0097422
0.00973849
0.00973183
0.00972814
0.00972166
0.00971796
0.00971168
0.00970794
0.00970187
0.00969808
0.00969222
0.00968836
0.00968274
0.00967877
0.00967341
0.00966932
0.00966423
0.00965998
0.00965518
0.00965076
0.00964628
0.00964165
0.00963751
0.00963263
0.00962887
0.00962372
0.00962035
0.00961486
0.00961194
0.0096062
0.00960386
0.00959721
0.0095944
0.00958563
0.0095817
0.00960625
0.00955129
0.0100886
0.0100931
0.0100988
0.0100991
0.0101001
0.0100962
0.010094
0.0100874
0.0100831
0.0100747
0.010069
0.0100595
0.0100531
0.0100429
0.0100362
0.0100257
0.0100189
0.0100084
0.0100017
0.00999119
0.00998461
0.00997429
0.00996793
0.00995777
0.00995165
0.00994169
0.00993581
0.00992605
0.00992041
0.00991083
0.00990542
0.00989603
0.00989084
0.00988162
0.00987663
0.00986759
0.00986278
0.0098539
0.00984926
0.00984054
0.00983607
0.00982749
0.00982317
0.00981474
0.00981056
0.00980228
0.00979823
0.00979008
0.00978615
0.00977815
0.00977433
0.00976647
0.00976275
0.00975504
0.00975139
0.00974383
0.00974026
0.00973284
0.00972933
0.00972207
0.0097186
0.0097115
0.00970805
0.00970112
0.00969769
0.00969093
0.00968749
0.00968092
0.00967745
0.00967107
0.00966756
0.00966138
0.00965781
0.00965185
0.00964819
0.00964247
0.0096387
0.00963323
0.00962933
0.00962413
0.00962008
0.00961517
0.00961093
0.00960634
0.00960189
0.00959763
0.00959295
0.00958906
0.00958409
0.00958059
0.00957533
0.00957232
0.00956658
0.00956383
0.00955852
0.0095562
0.00954641
0.00954749
0.00954687
0.00953879
0.0100409
0.0100449
0.0100502
0.0100501
0.0100511
0.0100472
0.0100452
0.0100388
0.0100349
0.0100267
0.0100217
0.0100125
0.0100068
0.00999691
0.00999093
0.00998077
0.00997474
0.00996446
0.00995853
0.00994825
0.00994248
0.00993227
0.00992671
0.0099166
0.00991127
0.00990126
0.00989617
0.00988628
0.0098814
0.00987163
0.00986697
0.0098573
0.00985285
0.00984329
0.00983903
0.00982959
0.0098255
0.00981617
0.00981226
0.00980302
0.00979928
0.00979015
0.00978656
0.00977754
0.00977409
0.00976519
0.00976187
0.00975308
0.00974988
0.0097412
0.00973812
0.00972956
0.00972658
0.00971815
0.00971526
0.00970696
0.00970414
0.00969598
0.00969322
0.00968521
0.0096825
0.00967463
0.00967195
0.00966425
0.00966158
0.00965406
0.00965138
0.00964404
0.00964133
0.00963419
0.00963143
0.0096245
0.00962167
0.00961498
0.00961205
0.0096056
0.00960255
0.00959638
0.00959317
0.0095873
0.0095839
0.00957836
0.00957474
0.00956956
0.00956568
0.00956089
0.00955672
0.00955236
0.00954784
0.00954394
0.00953905
0.00953573
0.00953028
0.00952718
0.00952175
0.00951979
0.00951317
0.00951402
0.00948413
0.00952594
0.0100072
0.0100107
0.0100153
0.0100148
0.0100155
0.0100115
0.0100094
0.0100031
0.00999921
0.00999122
0.00998622
0.00997718
0.00997154
0.00996185
0.00995593
0.00994588
0.00993989
0.00992965
0.00992375
0.00991342
0.00990767
0.00989731
0.00989175
0.00988138
0.00987605
0.00986571
0.00986063
0.00985033
0.0098455
0.00983526
0.0098307
0.00982051
0.00981622
0.00980609
0.00980208
0.009792
0.00978826
0.00977824
0.00977477
0.00976481
0.0097616
0.00975168
0.00974876
0.00973884
0.00973615
0.00972624
0.0097238
0.0097139
0.0097117
0.00970183
0.00969988
0.00969002
0.00968831
0.00967848
0.009677
0.00966719
0.00966594
0.00965614
0.00965511
0.00964532
0.00964451
0.00963473
0.00963412
0.00962435
0.00962393
0.00961416
0.00961393
0.00960417
0.00960411
0.00959435
0.00959446
0.00958471
0.00958497
0.00957523
0.00957563
0.00956591
0.00956644
0.00955673
0.00955738
0.00954769
0.00954845
0.00953879
0.00953964
0.00953003
0.00953095
0.00952138
0.00952237
0.00951286
0.00951388
0.00950447
0.00950553
0.00949619
0.00949712
0.00948786
0.00948954
0.00948079
0.00948075
0.00947466
0.00947211
0.00946445
0.00998173
0.00998471
0.00998855
0.00998762
0.00998771
0.0099834
0.00998073
0.00997397
0.00996935
0.00996085
0.00995494
0.00994532
0.00993867
0.00992838
0.00992137
0.00991073
0.00990365
0.0098929
0.00988585
0.00987482
0.0098678
0.00985676
0.00984999
0.00983908
0.00983267
0.009822
0.00981601
0.00980559
0.00980004
0.00978986
0.00978474
0.0097748
0.00977009
0.00976036
0.00975602
0.00974647
0.00974249
0.00973309
0.00972944
0.00972017
0.00971683
0.00970766
0.00970459
0.00969555
0.00969277
0.00968383
0.00968132
0.00967245
0.00967018
0.00966136
0.00965932
0.00965054
0.00964871
0.00963996
0.00963833
0.00962961
0.00962817
0.00961945
0.00961819
0.00960948
0.0096084
0.0095997
0.00959877
0.00959007
0.0095893
0.0095806
0.00957998
0.00957128
0.0095708
0.00956209
0.00956174
0.00955304
0.00955282
0.00954412
0.00954401
0.00953531
0.00953531
0.00952663
0.00952673
0.00951805
0.00951825
0.00950959
0.00950987