/*--------------------------------*- C++ -*----------------------------------*\
  =========                 |
  \\      /  F ield         | OpenFOAM: The Open Source CFD Toolbox
   \\    /   O peration     | Website:  https://openfoam.org
    \\  /    A nd           | Version:  8
     \\/     M anipulation  |
\*---------------------------------------------------------------------------*/
FoamFile
{
    version     2.0;
    format      ascii;
    class       volScalarField;
    location    "2.999969291";
    object      k;
}
// * * * * * * * * * * * * * * * * * * * * * * * * * * * * * * * * * * * * * //

dimensions      [0 2 -2 0 0 0 0];

internalField   nonuniform List<scalar> 
6800
(
55.1383
112.476
110.039
100.01
88.4583
67.7448
47.0004
28.808
19.0424
15.0566
43.9539
98.8848
99.5044
92.3112
74.5208
48.6688
29.3062
19.8873
14.318
10.8254
44.2851
86.3555
90.9929
81.9616
56.2412
33.5903
22.1311
15.1865
10.2602
7.70842
45.6257
82.1795
85.9959
72.4596
42.9439
26.2652
16.2215
10.9101
7.99478
6.57105
45.967
80.0738
82.3891
59.5307
32.5025
18.9751
12.5642
9.32179
7.06721
5.58029
46.6802
81.1491
79.0744
47.5931
25.7017
16.3645
11.0132
7.71625
5.80474
4.95003
46.8858
84.9749
74.0289
37.1411
21.156
12.9703
8.85937
6.69341
5.39954
4.7272
47.3193
88.9505
65.1729
31.278
17.9231
11.8712
8.21953
6.18977
4.86457
4.31639
47.4669
93.2842
56.4642
27.2743
15.8051
9.97794
7.03158
5.49359
4.61871
4.20072
47.8013
96.2727
48.5347
23.7647
13.5828
9.46548
6.73053
5.31154
4.37223
3.94847
278.642
411.353
458.087
475.476
497.334
526.411
557.071
583.383
597.775
601.957
270.499
395.527
447.23
476.017
510.887
553.255
595.222
629.177
649.273
655.344
254.443
367.725
428.298
477.722
534.026
590.49
631.863
655.85
666.456
660.218
238.98
341.973
419.038
493.315
568.018
614.024
630.491
621.104
598.717
543.008
256.673
351.168
444.17
542.217
595.43
595.182
571.641
511.165
457.462
344.716
273.275
386.238
518.911
585.306
572.52
521.073
439.129
320.615
247.601
157.969
270.938
461.747
569.747
543.574
463.431
329.042
219.856
148.38
119.206
81.0026
272.294
494.252
464.03
378.547
234.48
160.833
119.102
88.0917
74.8525
52.1669
242.212
369.99
299.579
185.385
133.3
104.9
82.451
65.0986
55.3043
35.54
161.451
202.302
161.596
123.211
102.062
84.0155
65.4822
50.773
32.7043
20.7284
593.013
561.89
528.528
496.871
468.755
444.343
423.109
404.624
388.394
373.985
361.072
349.403
338.789
329.082
320.159
311.923
304.285
297.175
290.53
284.301
278.441
272.913
267.685
262.726
258.011
253.515
249.218
245.102
241.15
237.346
233.679
230.139
226.721
223.417
220.222
217.131
214.138
211.239
208.429
205.705
203.061
200.496
198.004
195.582
193.228
190.939
188.712
186.545
184.436
182.384
180.387
178.443
176.551
174.71
172.917
171.171
169.47
167.813
166.197
164.622
163.084
161.581
160.113
158.677
157.272
155.895
154.546
153.222
151.923
150.648
149.395
148.164
146.954
145.764
144.594
143.444
142.312
141.2
140.105
139.029
137.97
136.929
135.904
134.897
133.906
132.931
131.972
131.028
130.101
129.186
128.292
127.403
126.545
125.673
124.864
123.99
123.259
122.327
121.779
120.529
647.336
613.502
576.348
542.205
512.039
485.505
462.256
441.823
423.746
407.647
393.204
380.157
368.299
357.465
347.516
338.333
329.815
321.88
314.457
307.491
300.934
294.743
288.883
283.321
278.03
272.981
268.155
263.532
259.088
254.805
250.68
246.704
242.87
239.168
235.593
232.135
228.79
225.551
222.413
219.371
216.419
213.555
210.773
208.072
205.446
202.893
200.41
197.996
195.649
193.367
191.147
188.987
186.885
184.839
182.848
180.909
179.02
177.18
175.386
173.637
171.93
170.263
168.634
167.04
165.481
163.955
162.459
160.992
159.553
158.14
156.754
155.392
154.055
152.741
151.451
150.183
148.936
147.712
146.509
145.326
144.164
143.021
141.898
140.795
139.709
138.642
137.594
136.562
135.55
134.551
133.575
132.605
131.671
130.721
129.839
128.888
128.094
127.081
126.487
125.127
654.232
626.929
591.714
559.347
530.613
505.068
482.431
462.315
444.381
428.329
413.881
400.806
388.914
378.049
368.065
358.835
350.251
342.229
334.703
327.621
320.935
314.607
308.602
302.887
297.437
292.225
287.235
282.435
277.839
273.431
269.187
265.09
261.126
257.287
253.565
249.952
246.442
243.03
239.711
236.482
233.338
230.278
227.297
224.392
221.561
218.803
216.114
213.492
210.935
208.442
206.013
203.645
201.339
199.092
196.902
194.768
192.687
190.657
188.677
186.743
184.854
183.008
181.201
179.433
177.701
176.004
174.339
172.703
171.099
169.523
167.976
166.457
164.966
163.501
162.061
160.647
159.258
157.893
156.552
155.234
153.938
152.665
151.414
150.183
148.974
147.785
146.616
145.467
144.338
143.225
142.138
141.057
140.016
138.958
137.977
136.917
136.035
134.907
134.25
132.733
530.236
510.999
489.42
469.359
451.648
435.824
421.568
408.752
397.163
386.687
377.145
368.42
360.439
353.095
346.275
339.872
333.808
328.044
322.555
317.318
312.316
307.528
302.934
298.517
294.258
290.142
286.156
282.292
278.527
274.856
271.281
267.796
264.397
261.08
257.838
254.669
251.568
248.533
245.561
242.651
239.8
237.007
234.269
231.587
228.959
226.388
223.871
221.409
219.002
216.648
214.348
212.099
209.902
207.753
205.652
203.598
201.587
199.619
197.691
195.802
193.949
192.131
190.347
188.594
186.872
185.178
183.515
181.882
180.275
178.694
177.138
175.606
174.097
172.611
171.148
169.706
168.286
166.888
165.511
164.154
162.817
161.501
160.204
158.927
157.668
156.429
155.209
154.006
152.823
151.655
150.512
149.373
148.277
147.157
146.122
144.997
144.066
142.868
142.176
140.554
321.231
300.435
284.823
273.783
266.416
261.557
258.348
256.284
254.829
254.011
253.477
253.172
253.201
253.224
253.059
252.652
252.037
251.314
250.522
249.679
248.797
247.878
246.926
245.937
244.911
243.843
242.736
241.585
240.395
239.16
237.891
236.579
235.223
233.824
232.382
230.899
229.38
227.832
226.258
224.666
223.058
221.443
219.819
218.198
216.573
214.959
213.347
211.751
210.165
208.593
207.035
205.491
203.961
202.446
200.946
199.459
197.986
196.526
195.079
193.644
192.22
190.807
189.405
188.013
186.631
185.26
183.897
182.544
181.201
179.87
178.549
177.241
175.943
174.658
173.384
172.122
170.872
169.634
168.408
167.195
165.993
164.804
163.627
162.463
161.31
160.171
159.044
157.93
156.831
155.74
154.672
153.602
152.571
151.512
150.537
149.466
148.587
147.442
146.79
145.23
146.449
136.056
128.122
122.26
118.038
115.063
113.063
111.85
111.159
111.231
111.545
112.214
113.424
114.734
116.587
118.829
121.384
124.219
127.253
130.43
133.707
137.029
140.361
143.654
146.875
149.985
152.971
155.801
158.477
160.972
163.305
165.375
167.202
168.8
170.182
171.385
172.426
173.327
174.099
174.761
175.315
175.784
176.16
176.469
176.694
176.872
176.961
177.039
177.031
176.985
176.885
176.73
176.529
176.283
175.992
175.66
175.289
174.879
174.435
173.959
173.451
172.915
172.351
171.762
171.149
170.516
169.861
169.19
168.499
167.796
167.076
166.346
165.6
164.848
164.081
163.308
162.526
161.739
160.944
160.145
159.34
158.532
157.718
156.905
156.088
155.273
154.454
153.639
152.825
152.012
151.206
150.393
149.605
148.786
148.031
147.19
146.504
145.596
145.082
143.822
76.4264
71.3867
67.0344
63.4085
60.33
57.7299
55.4989
53.6178
52.0209
50.6777
49.6199
48.7181
48.0974
47.612
47.2476
47.1365
47.1904
47.4057
47.7902
48.417
49.2736
50.3242
51.5923
53.0346
54.67
56.4793
58.4444
60.5559
62.7973
65.1675
67.6345
70.2759
73.0699
76.0039
79.0268
82.1237
85.2511
88.3966
91.5197
94.6135
97.6416
100.603
103.469
106.241
108.9
111.446
113.874
116.177
118.371
120.406
122.293
124.033
125.638
127.119
128.486
129.749
130.912
131.99
132.986
133.9
134.738
135.507
136.205
136.843
137.415
137.933
138.389
138.797
139.146
139.451
139.699
139.908
140.059
140.182
140.242
140.287
140.278
140.245
140.174
140.069
139.929
139.768
139.576
139.368
139.131
138.882
138.606
138.324
138.015
137.704
137.37
137.031
136.681
136.315
135.958
135.558
135.217
134.765
134.507
133.84
49.3372
46.066
43.0975
40.4788
38.1025
35.9674
33.9889
32.2137
30.5391
29.04
27.5969
26.3163
25.0676
23.9734
23.0185
22.1686
21.4425
20.7938
20.2582
19.7867
19.4327
19.1271
18.9559
18.8123
18.8142
18.8612
18.9652
19.1681
19.4594
19.8391
20.3037
20.8601
21.5089
22.2686
23.1267
24.1106
25.1949
26.412
27.7279
29.1791
30.7258
32.4044
34.1715
36.0631
38.0332
40.1177
42.267
44.5177
46.815
49.2158
51.6905
54.237
56.8281
59.4527
62.0847
64.7151
67.318
69.8901
72.4091
74.8715
77.2571
79.5698
81.7905
83.9295
85.9676
87.9216
89.7705
91.5384
93.189
94.7485
96.1976
97.566
98.8333
100.033
101.142
102.194
103.167
104.091
104.945
105.759
106.504
107.218
107.866
108.491
109.05
109.596
110.073
110.547
110.948
111.358
111.689
112.04
112.304
112.603
112.805
113.055
113.203
113.418
113.508
113.728
33.2309
30.6574
28.2744
26.0647
24.0715
22.2567
20.6503
19.2008
17.9328
16.7892
15.7922
14.8889
14.0969
13.3751
12.7418
12.1783
11.6793
11.2305
10.8312
10.469
10.1466
9.85284
9.59236
9.35486
9.14571
8.95661
8.79315
8.64439
8.52219
8.41146
8.32965
8.25532
8.2146
8.17711
8.17894
8.1945
8.23576
8.29241
8.37695
8.50434
8.64846
8.84179
9.05653
9.32787
9.62627
9.98932
10.387
10.8572
11.3702
11.965
12.6123
13.3535
14.1538
15.0576
16.0224
17.0966
18.2316
19.478
20.7827
22.1971
23.6632
25.2326
26.8434
28.5474
30.2799
32.0926
33.9188
35.8104
37.7102
39.676
41.6291
43.6306
45.5979
47.5959
49.5387
51.4981
53.383
55.2756
57.0762
58.8807
60.5775
62.2796
63.8599
65.4522
66.9082
68.3902
69.7199
71.0959
72.3003
73.5677
74.6362
75.807
76.7438
77.8356
78.6469
79.6818
80.3524
81.377
81.8593
83.1702
19.0567
17.308
15.8068
14.5712
13.5382
12.656
11.8921
11.2203
10.6266
10.0944
9.61574
9.18315
8.79151
8.43556
8.11051
7.81348
7.54079
7.29056
7.05981
6.84734
6.65064
6.46908
6.30036
6.14435
5.99886
5.86417
5.73799
5.62126
5.51127
5.40993
5.3136
5.22576
5.14122
5.06528
4.9914
4.92643
4.86204
4.80725
4.75248
4.7076
4.6622
4.62742
4.59044
4.56598
4.53719
4.5234
4.50528
4.50305
4.5081
4.52326
4.53621
4.57165
4.60017
4.65618
4.70918
4.80575
4.88623
5.02755
5.14698
5.33963
5.50788
5.7595
5.98416
6.30366
6.5931
6.98998
7.35255
7.83613
8.27986
8.85947
9.39345
10.0784
10.7095
11.5061
12.2371
13.1481
13.9778
15.0025
15.926
17.06
18.0683
19.3044
20.3848
21.7132
22.8497
24.2589
25.4328
26.9104
28.1005
29.6449
30.8409
32.441
33.6152
35.2594
36.3863
38.0654
39.1057
40.832
41.6391
44.0055
10.8121
10.3428
9.87967
9.43049
9.00008
8.59279
8.21045
7.85524
7.52499
7.22128
6.94206
6.68564
6.44905
6.23125
6.0295
5.8434
5.67025
5.51015
5.36045
5.22164
5.09116
4.96981
4.85513
4.74817
4.64657
4.55158
4.46093
4.37603
4.2946
4.21832
4.14474
4.07588
4.00899
3.94657
3.88542
3.82861
3.77238
3.721
3.66955
3.62296
3.5757
3.53343
3.48985
3.45151
3.41125
3.37645
3.33934
3.3078
3.2737
3.24551
3.21431
3.18942
3.16102
3.13936
3.11396
3.09567
3.07381
3.0591
3.04144
3.03077
3.01813
3.01209
3.00557
3.00494
3.0065
3.0119
3.01913
3.03683
3.05091
3.08234
3.10491
3.1538
3.18721
3.25799
3.30473
3.403
3.4658
3.5983
3.68026
3.85434
3.95961
4.18293
4.31618
4.59587
4.76167
5.10729
5.30899
5.72868
5.97168
6.47211
6.75943
7.34828
7.682
8.36721
8.74739
9.51545
9.94469
10.7653
11.3778
12.4226
7.76463
7.46817
7.17871
6.89895
6.6335
6.38314
6.14983
5.93222
5.73081
5.54354
5.37024
5.20878
5.05896
4.9189
4.78851
4.6662
4.55198
4.44453
4.34386
4.24891
4.15962
4.07519
3.99547
3.9199
3.84823
3.78015
3.7153
3.65361
3.59459
3.53841
3.48444
3.43306
3.38346
3.33629
3.29051
3.24703
3.20459
3.1644
3.12489
3.08765
3.05073
3.01613
2.98154
2.94933
2.9168
2.88674
2.85604
2.8279
2.79883
2.77243
2.74484
2.72
2.69375
2.67032
2.64529
2.62312
2.59924
2.57825
2.55546
2.53565
2.51391
2.49527
2.47458
2.45713
2.43736
2.42144
2.40291
2.38866
2.37143
2.35884
2.34305
2.33212
2.31798
2.30863
2.29643
2.28856
2.27874
2.27217
2.2653
2.26023
2.2565
2.25366
2.25333
2.255
2.2573
2.26394
2.27001
2.28339
2.29257
2.31483
2.32961
2.36372
2.38518
2.43662
2.46596
2.52539
2.58673
2.65658
2.73823
2.87543
5.91805
5.74937
5.58335
5.41996
5.2619
5.1092
4.9637
4.82446
4.6928
4.56735
4.44923
4.33684
4.23123
4.13072
4.03632
3.94634
3.8618
3.78102
3.70508
3.63232
3.56385
3.49809
3.43614
3.3765
3.32025
3.26595
3.2147
3.1651
3.11822
3.07273
3.02969
2.9878
2.94813
2.90942
2.87272
2.83683
2.80276
2.76938
2.73765
2.7065
2.67686
2.64772
2.61994
2.5926
2.5665
2.54078
2.51617
2.49192
2.46866
2.44573
2.4237
2.40196
2.38104
2.36039
2.34049
2.32082
2.30187
2.2831
2.26501
2.24706
2.22976
2.21256
2.19601
2.1795
2.16363
2.14776
2.13253
2.11725
2.10263
2.08789
2.07384
2.05961
2.04611
2.03236
2.01938
2.00608
1.9936
1.98074
1.96874
1.95632
1.94476
1.93279
1.92172
1.9103
1.89977
1.8889
1.87894
1.86862
1.85931
1.84957
1.84103
1.83192
1.82433
1.81594
1.80955
1.80189
1.79679
1.79017
1.78708
1.78154
4.74195
4.63815
4.53325
4.42681
4.32136
4.21724
4.11652
4.01869
3.92532
3.83539
3.75024
3.66854
3.59153
3.51769
3.44827
3.38163
3.31906
3.25885
3.20235
3.1478
3.09664
3.04704
3.00055
2.95527
2.91286
2.87135
2.83251
2.79431
2.75858
2.72327
2.69027
2.65749
2.6269
2.59634
2.56787
2.53927
2.51268
2.48583
2.46093
2.43563
2.41224
2.38833
2.3663
2.34363
2.32282
2.30127
2.28157
2.26102
2.24232
2.22268
2.2049
2.18608
2.16915
2.15109
2.13495
2.11757
2.10216
2.08543
2.0707
2.05454
2.04045
2.02483
2.01133
1.9962
1.98327
1.96858
1.95617
1.94189
1.92998
1.91607
1.90463
1.89107
1.88008
1.86683
1.85629
1.84333
1.8332
1.82051
1.8108
1.79836
1.78905
1.77683
1.76791
1.7559
1.74734
1.73552
1.72732
1.71567
1.70781
1.6963
1.68877
1.67738
1.67018
1.65891
1.65205
1.64087
1.63434
1.62331
1.61611
1.60393
3.97211
3.90567
3.83743
3.76679
3.69586
3.62483
3.55547
3.48727
3.42162
3.35767
3.29663
3.23744
3.18122
3.12677
3.07522
3.02526
2.97803
2.93217
2.88887
2.8467
2.80692
2.76803
2.73139
2.69542
2.66155
2.62816
2.59675
2.56565
2.53642
2.50733
2.48004
2.45275
2.42719
2.40149
2.37749
2.35322
2.33061
2.30762
2.28627
2.26443
2.24422
2.22342
2.20425
2.18439
2.16617
2.14718
2.12983
2.11162
2.09508
2.07758
2.06179
2.04496
2.02986
2.01363
1.99918
1.98351
1.96966
1.95451
1.94122
1.92654
1.91378
1.89954
1.88728
1.87345
1.86166
1.8482
1.83686
1.82375
1.81283
1.80005
1.78954
1.77705
1.76693
1.75472
1.74496
1.73301
1.72362
1.7119
1.70285
1.69136
1.68264
1.67135
1.66296
1.65186
1.64377
1.63285
1.62506
1.6143
1.60682
1.5962
1.589
1.57852
1.57161
1.56123
1.55461
1.54436
1.53787
1.5278
1.52333
1.50786
3.4741
3.42924
3.38261
3.33321
3.28302
3.23181
3.18136
3.13095
3.08208
3.03378
2.98743
2.9419
2.89847
2.85591
2.81548
2.77584
2.73829
2.70142
2.66655
2.63222
2.59981
2.56779
2.5376
2.50766
2.47947
2.45141
2.42501
2.39863
2.37385
2.34897
2.32566
2.30213
2.28013
2.25782
2.23702
2.21581
2.19609
2.17588
2.15715
2.13784
2.12001
2.10152
2.08452
2.06678
2.05054
2.03349
2.01796
2.00155
1.98667
1.97084
1.95658
1.94128
1.9276
1.91281
1.89966
1.88533
1.87269
1.85879
1.84663
1.83313
1.82142
1.80828
1.797
1.78421
1.77334
1.76086
1.75037
1.73819
1.72807
1.71617
1.70641
1.69476
1.68533
1.67393
1.66483
1.65365
1.64486
1.63389
1.62541
1.61463
1.60644
1.59584
1.58794
1.57751
1.56989
1.55961
1.55226
1.54212
1.53504
1.52503
1.51822
1.50833
1.50178
1.49197
1.48567
1.47603
1.47012
1.4606
1.45412
1.44331
3.15247
3.11966
3.08532
3.0483
3.01038
2.97114
2.93226
2.89291
2.85458
2.81622
2.77926
2.74251
2.70735
2.67248
2.63928
2.60637
2.57513
2.54412
2.51477
2.48556
2.45798
2.43045
2.4045
2.37851
2.35406
2.32947
2.30639
2.28308
2.26124
2.2391
2.2184
2.19732
2.17765
2.15754
2.13882
2.11959
2.10175
2.08332
2.06629
2.0486
2.03231
2.0153
1.99971
1.98332
1.96837
1.95257
1.93822
1.92295
1.90917
1.8944
1.88114
1.86683
1.85408
1.8402
1.82791
1.81443
1.80259
1.78949
1.77807
1.76532
1.7543
1.74187
1.73123
1.71911
1.70884
1.697
1.68708
1.67551
1.66592
1.6546
1.64534
1.63425
1.6253
1.61443
1.60577
1.59511
1.58675
1.57628
1.56819
1.5579
1.55009
1.53996
1.53242
1.52245
1.51517
1.50534
1.49831
1.48861
1.48184
1.47226
1.46573
1.45626
1.44998
1.4406
1.43457
1.42529
1.41937
1.41026
1.40622
1.3921
2.93911
2.91287
2.88544
2.85555
2.82482
2.79269
2.76075
2.72809
2.69617
2.66391
2.63274
2.60145
2.57146
2.54143
2.51281
2.48417
2.45699
2.42975
2.40399
2.37812
2.35372
2.32914
2.30603
2.28266
2.26074
2.23849
2.21767
2.19645
2.17665
2.15639
2.13753
2.11814
2.10015
2.08156
2.06437
2.04652
2.03008
2.01291
1.99715
1.98061
1.9655
1.94954
1.93503
1.91961
1.90566
1.89075
1.87733
1.86288
1.84996
1.83595
1.82349
1.80989
1.79788
1.78466
1.77307
1.76022
1.74903
1.73651
1.7257
1.71349
1.70305
1.69114
1.68104
1.66941
1.65965
1.64828
1.63883
1.62771
1.61857
1.60768
1.59884
1.58816
1.57961
1.56913
1.56086
1.55057
1.54257
1.53246
1.52471
1.51477
1.50729
1.4975
1.49026
1.48062
1.47362
1.46412
1.45736
1.44798
1.44146
1.4322
1.4259
1.41675
1.41068
1.4016
1.39575
1.38683
1.38132
1.37251
1.36645
1.35648
2.79229
2.76974
2.74626
2.7206
2.6942
2.66646
2.63882
2.6104
2.58255
2.55425
2.52685
2.49917
2.47259
2.44583
2.42028
2.39456
2.37013
2.34552
2.32222
2.29869
2.27649
2.25401
2.23287
2.21137
2.19123
2.17065
2.15144
2.13173
2.11339
2.09447
2.07694
2.05876
2.04198
2.02448
2.0084
1.99154
1.97612
1.95985
1.94503
1.92931
1.91507
1.89986
1.88616
1.87142
1.85823
1.84393
1.83122
1.81735
1.80509
1.7916
1.77978
1.76666
1.75525
1.74247
1.73145
1.71899
1.70835
1.69619
1.68591
1.67404
1.6641
1.65249
1.64288
1.63153
1.62224
1.61112
1.60214
1.59123
1.58255
1.57185
1.56346
1.55295
1.54484
1.53452
1.52667
1.51652
1.50894
1.49895
1.49163
1.48178
1.47471
1.46501
1.45818
1.44861
1.44202
1.43257
1.42622
1.41687
1.41077
1.40151
1.39564
1.38648
1.38083
1.37173
1.36635
1.35742
1.35227
1.34362
1.33779
1.32792
2.68697
2.66655
2.64546
2.62247
2.59881
2.57393
2.54908
2.52348
2.49833
2.47272
2.44783
2.42265
2.39838
2.37391
2.35046
2.32683
2.3043
2.28157
2.25998
2.23816
2.21751
2.19657
2.17682
2.15672
2.13783
2.11853
2.10045
2.08189
2.06458
2.04671
2.03011
2.0129
1.99697
1.98036
1.96505
1.949
1.93429
1.91876
1.9046
1.88957
1.87593
1.86135
1.84821
1.83406
1.82138
1.80764
1.7954
1.78204
1.77022
1.75721
1.7458
1.73313
1.7221
1.70974
1.69909
1.68702
1.67672
1.66493
1.65497
1.64345
1.63382
1.62254
1.61322
1.60218
1.59316
1.58234
1.57361
1.563
1.55456
1.54413
1.53597
1.52573
1.51783
1.50776
1.50013
1.49022
1.48284
1.47308
1.46594
1.45632
1.44943
1.43994
1.43329
1.42393
1.41751
1.40825
1.40207
1.39292
1.38696
1.3779
1.37217
1.3632
1.35768
1.34877
1.34352
1.33477
1.32974
1.32127
1.31557
1.30591
2.60962
2.5907
2.57113
2.54984
2.52797
2.50498
2.48202
2.45834
2.43504
2.41129
2.38816
2.36474
2.34211
2.31926
2.29733
2.27519
2.25404
2.23268
2.21234
2.19177
2.17225
2.15246
2.13373
2.11468
2.09672
2.07837
2.06114
2.04346
2.0269
2.00984
1.99393
1.97746
1.96215
1.94623
1.9315
1.91608
1.90189
1.88695
1.87327
1.85879
1.84559
1.83152
1.81878
1.80511
1.79281
1.77951
1.76762
1.75468
1.74318
1.73057
1.71946
1.70716
1.69641
1.6844
1.674
1.66228
1.65221
1.64075
1.631
1.61979
1.61035
1.59937
1.59024
1.57948
1.57064
1.56009
1.55153
1.54117
1.53288
1.52271
1.51469
1.50469
1.49693
1.4871
1.47958
1.4699
1.46264
1.4531
1.44608
1.43667
1.42989
1.42061
1.41405
1.40489
1.39857
1.38951
1.38341
1.37446
1.36858
1.35971
1.35406
1.34527
1.33984
1.33113
1.32587
1.31725
1.31238
1.30371
1.29994
1.28714
2.55136
2.53337
2.51474
2.49456
2.4739
2.4522
2.43054
2.40821
2.38623
2.3638
2.34194
2.31979
2.29836
2.27671
2.25588
2.23487
2.21473
2.19441
2.17501
2.15539
2.13672
2.11781
2.09986
2.08162
2.06436
2.04676
2.03016
2.01317
1.9972
1.98078
1.96541
1.94952
1.93471
1.91933
1.90504
1.89014
1.87635
1.86189
1.84857
1.83454
1.82167
1.80803
1.7956
1.78232
1.7703
1.75738
1.74575
1.73315
1.7219
1.70962
1.69873
1.68674
1.67619
1.66449
1.65428
1.64283
1.63294
1.62175
1.61217
1.60121
1.59193
1.5812
1.57221
1.56169
1.55298
1.54265
1.53422
1.52408
1.51591
1.50595
1.49803
1.48824
1.48058
1.47094
1.46352
1.45403
1.44686
1.4375
1.43057
1.42134
1.41464
1.40553
1.39905
1.39005
1.3838
1.3749
1.36888
1.36007
1.35427
1.34555
1.33996
1.33132
1.32596
1.31738
1.3122
1.3037
1.29891
1.29035
1.28664
1.27405
2.50693
2.48946
2.47146
2.45201
2.4322
2.4114
2.39069
2.36932
2.34831
2.32684
2.30594
2.28472
2.26421
2.24345
2.22348
2.20329
2.18396
2.16441
2.14574
2.12685
2.10885
2.09061
2.07327
2.05566
2.03896
2.02194
2.00585
1.9894
1.97388
1.95797
1.943
1.92759
1.91315
1.89821
1.88426
1.86978
1.85629
1.84223
1.82919
1.81552
1.8029
1.78961
1.7774
1.76447
1.75264
1.74004
1.72859
1.7163
1.70521
1.69323
1.68247
1.67077
1.66035
1.64892
1.63881
1.62765
1.61784
1.60692
1.59741
1.58672
1.57749
1.56702
1.55807
1.54781
1.53913
1.52907
1.52064
1.51076
1.50259
1.49289
1.48497
1.47543
1.46775
1.45837
1.45092
1.44169
1.43447
1.42538
1.41839
1.40943
1.40265
1.39382
1.38726
1.37855
1.3722
1.36359
1.35745
1.34894
1.34302
1.3346
1.32888
1.32055
1.31503
1.30675
1.30143
1.29329
1.28829
1.28024
1.27475
1.2656
2.47279
2.45557
2.43796
2.41897
2.39976
2.37957
2.35956
2.33885
2.31857
2.29778
2.27762
2.25707
2.23727
2.21715
2.19786
2.17828
2.15958
2.1406
2.12253
2.10417
2.08673
2.06897
2.05215
2.03498
2.01876
2.00216
1.98651
1.97044
1.95534
1.93978
1.92519
1.91011
1.89601
1.88138
1.86775
1.85354
1.84035
1.82655
1.81378
1.80036
1.788
1.77494
1.76296
1.75024
1.73863
1.72623
1.71497
1.70288
1.69197
1.68017
1.66958
1.65806
1.64778
1.63653
1.62656
1.61555
1.60587
1.5951
1.58571
1.57517
1.56605
1.55573
1.54688
1.53675
1.52816
1.51823
1.5099
1.50014
1.49206
1.48248
1.47463
1.46521
1.4576
1.44834
1.44095
1.43184
1.42468
1.4157
1.40876
1.39991
1.39319
1.38446
1.37795
1.36933
1.36303
1.35452
1.34843
1.34001
1.33413
1.3258
1.32012
1.31188
1.3064
1.29822
1.29295
1.28486
1.27967
1.27173
1.26818
1.25579
2.44592
2.42883
2.41147
2.39277
2.374
2.35424
2.33476
2.31455
2.29485
2.27458
2.255
2.23497
2.21574
2.19612
2.17739
2.15829
2.14012
2.12159
2.10402
2.08607
2.0691
2.05173
2.03535
2.01854
2.00272
1.98644
1.97117
1.9554
1.94064
1.92535
1.91108
1.89625
1.88244
1.86804
1.85467
1.84068
1.82774
1.81412
1.80159
1.78834
1.77618
1.76328
1.7515
1.73892
1.72749
1.71523
1.70414
1.69218
1.68141
1.66973
1.65929
1.64787
1.63773
1.62658
1.61673
1.60582
1.59626
1.58558
1.5763
1.56584
1.55683
1.54658
1.53783
1.52778
1.51929
1.50943
1.50118
1.4915
1.48349
1.47398
1.4662
1.45685
1.44931
1.44011
1.4328
1.42374
1.41665
1.40773
1.40085
1.39206
1.38539
1.37672
1.37027
1.3617
1.35546
1.347
1.34096
1.3326
1.32676
1.31849
1.31286
1.30467
1.29923
1.2911
1.28588
1.27784
1.2727
1.2648
1.26129
1.24904
2.4256
2.40856
2.39132
2.37282
2.35435
2.33491
2.31581
2.29598
2.2767
2.25683
2.2377
2.21806
2.19927
2.18004
2.16173
2.14298
2.12522
2.10701
2.08982
2.07216
2.05554
2.03842
2.02236
2.00578
1.99026
1.97418
1.95917
1.94357
1.92906
1.91391
1.89987
1.88516
1.87157
1.85726
1.8441
1.83019
1.81743
1.80389
1.79152
1.77833
1.76634
1.75349
1.74186
1.72932
1.71804
1.70581
1.69486
1.68293
1.6723
1.66064
1.65032
1.63893
1.62891
1.61777
1.60805
1.59715
1.58771
1.57704
1.56787
1.55742
1.54852
1.53828
1.52963
1.5196
1.5112
1.50135
1.4932
1.48353
1.47562
1.46612
1.45843
1.4491
1.44164
1.43246
1.42523
1.41619
1.40917
1.40028
1.39347
1.3847
1.37811
1.36946
1.36307
1.35454
1.34835
1.33993
1.33394
1.32562
1.31983
1.3116
1.306
1.29786
1.29246
1.28438
1.27916
1.27121
1.2663
1.25844
1.25302
1.24413
2.41088
2.39381
2.37656
2.35815
2.33979
2.32055
2.30164
2.28204
2.26298
2.24336
2.22445
2.20505
2.18647
2.16744
2.14932
2.13075
2.11315
2.09509
2.07804
2.0605
2.044
2.02697
2.01101
1.99448
1.97905
1.963
1.94807
1.93249
1.91805
1.90292
1.88895
1.87424
1.86072
1.84642
1.83334
1.81942
1.80676
1.79322
1.78096
1.76776
1.75588
1.74302
1.73152
1.71896
1.70781
1.69555
1.68473
1.67276
1.66228
1.65058
1.64042
1.62899
1.61913
1.60795
1.59839
1.58745
1.57819
1.56747
1.55849
1.54799
1.53928
1.52899
1.52054
1.51044
1.50226
1.49234
1.4844
1.47466
1.46697
1.45739
1.44994
1.44052
1.43329
1.42402
1.41703
1.40789
1.40112
1.39211
1.38556
1.37667
1.37034
1.36157
1.35544
1.34678
1.34086
1.3323
1.32659
1.31811
1.31261
1.30422
1.29892
1.2906
1.2855
1.27723
1.27237
1.26425
1.25959
1.25173
1.24644
1.23746
2.39896
2.38181
2.3645
2.34611
2.32776
2.30856
2.28965
2.27006
2.25095
2.2313
2.21228
2.19281
2.17408
2.15496
2.13667
2.11802
2.10025
2.08212
2.0649
2.04721
2.03049
2.01331
1.99716
1.98052
1.96494
1.94884
1.93383
1.91826
1.90379
1.88872
1.87479
1.86019
1.84675
1.83259
1.81962
1.80588
1.79335
1.78
1.76788
1.7549
1.74318
1.73054
1.7192
1.70688
1.69591
1.68391
1.67328
1.66156
1.65126
1.63982
1.62983
1.61865
1.60896
1.59802
1.58863
1.5779
1.5688
1.55829
1.54945
1.53915
1.53058
1.52047
1.51215
1.50223
1.49416
1.48441
1.47659
1.467
1.45941
1.44998
1.44262
1.43334
1.42621
1.41707
1.41016
1.40114
1.39445
1.38556
1.37909
1.37031
1.36405
1.35538
1.34932
1.34076
1.3349
1.32643
1.32078
1.3124
1.30695
1.29865
1.2934
1.28518
1.28011
1.27194
1.26712
1.25909
1.25446
1.24669
1.24143
1.23258
2.39029
2.37267
2.35472
2.33545
2.31615
2.29586
2.2759
2.25522
2.23515
2.21456
2.1948
2.17464
2.15545
2.13592
2.11744
2.09863
2.08092
2.06284
2.0459
2.02865
2.01251
1.99598
1.98054
1.96464
1.94981
1.93446
1.92018
1.90533
1.89155
1.87714
1.86382
1.84981
1.83692
1.82329
1.8108
1.79752
1.78541
1.77246
1.76071
1.74808
1.73667
1.72433
1.71325
1.7012
1.69045
1.67867
1.66822
1.6567
1.64655
1.63527
1.62542
1.61438
1.6048
1.59399
1.58469
1.57408
1.56505
1.55466
1.54589
1.53568
1.52717
1.51715
1.50888
1.49904
1.49101
1.48134
1.47355
1.46404
1.45648
1.44712
1.43979
1.43057
1.42346
1.41438
1.40749
1.39853
1.39185
1.38303
1.37656
1.36784
1.36158
1.35297
1.34692
1.33841
1.33256
1.32414
1.31849
1.31016
1.30471
1.29646
1.29121
1.28303
1.27798
1.26986
1.26497
1.25693
1.2524
1.2443
1.24079
1.22885
2.36069
2.34175
2.32321
2.30403
2.28536
2.26617
2.24762
2.22862
2.21036
2.1917
2.17385
2.15562
2.13826
2.12052
2.10367
2.08643
2.0701
2.05335
2.03754
2.02126
2.00595
1.99013
1.97529
1.95991
1.94552
1.93056
1.91661
1.90204
1.88851
1.87432
1.86119
1.84736
1.83461
1.82112
1.80875
1.79558
1.78356
1.77071
1.75903
1.74648
1.73513
1.72287
1.71185
1.69985
1.68914
1.67741
1.66701
1.65553
1.64542
1.63418
1.62436
1.61335
1.6038
1.59302
1.58374
1.57317
1.56416
1.55379
1.54503
1.53485
1.52635
1.51636
1.5081
1.49828
1.49027
1.48061
1.47283
1.46334
1.45578
1.44644
1.43911
1.42991
1.4228
1.41374
1.40685
1.39791
1.39124
1.38242
1.37595
1.36725
1.36099
1.35239
1.34634
1.33784
1.33199
1.32358
1.31793
1.30961
1.30416
1.29592
1.29067
1.28249
1.27745
1.26934
1.26446
1.25643
1.25191
1.24383
1.24033
1.22844
3.54804
3.67156
3.87951
4.04456
4.4178
4.64528
5.27953
5.98879
7.06957
11.0282
3.26395
3.31427
3.47449
3.59984
3.81793
4.11907
4.36926
5.00087
5.48176
7.96433
3.05431
3.12482
3.17197
3.30703
3.39317
3.6513
3.80251
4.25305
4.53878
6.02505
2.93511
2.9872
3.01308
3.10068
3.14987
3.3104
3.40801
3.7076
3.89348
4.79422
2.84284
2.87942
2.8976
2.95745
2.98923
3.09019
3.1506
3.33704
3.45494
4.00198
2.76799
2.79292
2.8053
2.84727
2.86888
2.93675
2.97519
3.09213
3.16483
3.49387
2.71124
2.72642
2.73454
2.76236
2.77695
2.82267
2.84789
2.92354
2.96881
3.16671
2.66611
2.67462
2.67911
2.69689
2.70607
2.73621
2.75246
2.80183
2.83008
2.95059
2.62977
2.63296
2.63503
2.64519
2.65061
2.66946
2.67968
2.71103
2.72882
2.80318
2.59985
2.59954
2.59938
2.604
2.60635
2.61696
2.62268
2.64154
2.6527
2.69789
2.57664
2.57366
2.57091
2.57122
2.5712
2.57562
2.57788
2.58772
2.59365
2.62148
2.55786
2.55319
2.54814
2.5457
2.54291
2.54279
2.5426
2.54583
2.54778
2.56443
2.54306
2.53634
2.53021
2.52523
2.52081
2.51732
2.51447
2.51278
2.5121
2.52005
2.53101
2.52313
2.51552
2.50929
2.50263
2.49779
2.49171
2.48833
2.48241
2.48579
2.52129
2.5132
2.5037
2.4971
2.48811
2.48258
2.47376
2.469
2.45873
2.45892
2.5139
2.50597
2.49477
2.48811
2.47722
2.47124
2.46033
2.45463
2.4429
2.43865
2.50782
2.50017
2.48765
2.48092
2.46883
2.4623
2.45029
2.4435
2.43148
2.42409
2.50355
2.4947
2.4824
2.47415
2.4624
2.45408
2.44244
2.43361
2.42184
2.41235
2.50143
2.49152
2.4794
2.46994
2.45831
2.4487
2.43705
2.4269
2.41492
2.40411
2.4893
2.47668
2.46332
2.45134
2.43836
2.4266
2.41356
2.4017
2.38833
2.37618
3.40922
3.67123
4.08791
4.74639
5.95
7.66081
11.6228
22.0544
71.4332
48.847
3.43885
3.71714
4.11755
4.77195
5.92514
8.13202
12.7817
22.697
74.0197
49.1716
3.43703
3.71371
4.19884
4.90106
6.26736
8.14869
12.6261
23.9725
78.1457
49.4247
3.47789
3.72853
4.19662
4.89495
6.24961
8.78248
14.1516
24.4763
81.5202
49.5346
3.47863
3.75423
4.30368
5.08791
6.65672
8.79671
14.0682
26.582
85.5502
49.5696
3.5485
3.78389
4.3092
5.09541
6.67179
9.65044
16.0261
27.3078
89.5123
49.495
3.56349
3.87081
4.47516
5.38234
7.21462
9.68502
16.1368
30.1196
93.3948
49.0743
3.67292
3.92817
4.51247
5.42969
7.31812
10.9027
18.4206
31.7596
97.0257
48.6048
3.71348
4.06592
4.7861
5.88157
8.08063
11.0809
19.3039
36.2906
98.4419
48.3419
3.87864
4.18547
4.866
6.00815
8.32694
12.8004
21.7722
41.3686
97.7686
47.9785
3.44288
3.66127
4.04834
4.43586
4.97285
7.35893
9.51638
20.7525
50.5539
44.6923
3.42562
3.64069
3.99961
4.41369
5.3032
6.39786
10.7947
17.6064
48.938
43.929
3.44042
3.65403
4.01421
4.48765
5.40182
6.72745
10.8427
18.382
49.703
43.7274
3.43291
3.66074
4.00817
4.5303
5.43217
6.83286
10.7494
19.1639
52.2731
43.8576
3.43035
3.66667
3.99961
4.55666
5.4456
6.96178
10.7157
19.5995
54.3903
44.8033
3.42453
3.68565
3.98764
4.56014
5.45604
7.08046
10.7964
20.1877
56.649
45.1204
3.41747
3.66497
4.05395
4.54493
5.45022
7.16359
10.8795
20.2236
59.5386
46.1106
3.40416
3.66025
4.03357
4.67892
5.47865
7.16701
11.1104
20.9781
61.583
46.5636
3.38567
3.64046
4.02764
4.66564
5.71823
7.32181
10.9494
20.8012
65.3012
47.6849
3.39359
3.67281
4.02773
4.6873
5.68667
7.60754
11.7396
21.6601
67.3454
48.0583
57.852
49.6857
43.4318
38.5054
34.534
31.2705
28.5449
26.2369
24.2591
22.5467
21.0506
19.7329
18.5639
17.5204
16.5833
15.7376
14.9705
14.2719
13.6331
13.0468
12.5069
12.0082
11.5462
11.1171
10.7175
10.3445
9.99555
9.66852
9.36132
9.07233
8.7999
8.54277
8.29958
8.06937
7.85102
7.64376
7.44666
7.25913
7.08036
6.9099
6.74703
6.59144
6.44247
6.2999
6.16313
6.03204
5.90604
5.7851
5.66867
5.55676
5.44884
5.34499
5.24469
5.14807
5.05462
4.9645
4.87721
4.79297
4.71126
4.63234
4.55569
4.4816
4.40955
4.33987
4.27202
4.20637
4.14237
4.08042
4.01995
3.96141
3.90418
3.8488
3.79458
3.74214
3.69071
3.64101
3.59221
3.5451
3.49879
3.45416
3.41025
3.36803
3.32651
3.28672
3.24765
3.21045
3.17404
3.13978
3.10656
3.07599
3.04705
3.02175
2.99937
2.98274
2.97204
2.97777
2.98942
3.03946
3.11246
3.273
57.8485
49.6785
43.4225
38.495
34.5231
31.2594
28.5338
26.2259
24.2484
22.5363
21.0405
19.7231
18.5544
17.5112
16.5744
15.7289