/*--------------------------------*- C++ -*----------------------------------*\
  =========                 |
  \\      /  F ield         | OpenFOAM: The Open Source CFD Toolbox
   \\    /   O peration     | Website:  https://openfoam.org
    \\  /    A nd           | Version:  8
     \\/     M anipulation  |
\*---------------------------------------------------------------------------*/
FoamFile
{
    version     2.0;
    format      ascii;
    class       volScalarField;
    location    "2.999969291";
    object      T;
}
// * * * * * * * * * * * * * * * * * * * * * * * * * * * * * * * * * * * * * //

dimensions      [0 0 0 1 0 0 0];

internalField   nonuniform List<scalar> 
6800
(
375.214
375.301
375.056
374.327
373.559
373.166
372.909
372.798
372.707
372.606
375.276
375.176
374.376
373.437
372.995
372.729
372.553
372.459
372.367
372.357
375.185
374.533
373.346
372.818
372.464
372.28
372.19
372.184
372.204
372.243
374.564
373.495
372.692
372.178
371.98
371.947
371.963
372.006
372.04
372.059
373.777
372.533
371.796
371.585
371.575
371.622
371.693
371.762
371.832
371.927
372.769
371.406
371.149
371.085
371.182
371.328
371.471
371.601
371.717
371.818
371.713
370.479
370.438
370.569
370.843
371.066
371.255
371.407
371.542
371.672
370.64
369.552
369.866
370.215
370.55
370.829
371.068
371.27
371.442
371.591
369.661
368.864
369.4
369.858
370.298
370.645
370.925
371.15
371.338
371.504
368.81
368.271
369.033
369.617
370.125
370.517
370.827
371.076
371.281
371.464
376.185
376.125
376.066
376.037
376.014
376.011
376.02
376.043
376.076
376.114
376.307
376.125
376.061
376.025
376.004
375.998
376.003
376.028
376.066
376.11
376.334
376.129
376.044
376
375.971
375.96
375.966
375.989
376.025
376.084
376.252
376.09
376.013
375.958
375.913
375.886
375.88
375.896
375.924
376.003
376.161
376.042
375.966
375.89
375.801
375.749
375.741
375.751
375.751
375.806
376.047
375.994
375.898
375.754
375.635
375.592
375.576
375.554
375.493
375.46
375.982
375.971
375.789
375.559
375.501
375.466
375.398
375.247
375.105
374.803
375.999
375.96
375.53
375.459
375.401
375.271
375.001
374.64
374.326
373.903
375.942
375.715
375.418
375.348
375.148
374.717
374.186
373.783
373.418
373.224
375.595
375.376
375.333
375.07
374.468
373.825
373.395
373.11
372.992
372.919
376.168
376.22
376.256
376.28
376.295
376.303
376.306
376.304
376.3
376.291
376.28
376.267
376.251
376.234
376.215
376.194
376.172
376.148
376.124
376.098
376.072
376.046
376.019
375.992
375.965
375.938
375.912
375.886
375.861
375.836
375.812
375.789
375.766
375.743
375.721
375.699
375.677
375.656
375.634
375.613
375.593
375.572
375.552
375.532
375.512
375.492
375.473
375.454
375.435
375.416
375.398
375.381
375.363
375.346
375.329
375.313
375.297
375.281
375.265
375.25
375.235
375.22
375.205
375.191
375.177
375.163
375.15
375.136
375.123
375.111
375.098
375.086
375.074
375.063
375.051
375.04
375.029
375.019
375.008
374.998
374.988
374.978
374.968
374.958
374.948
374.939
374.929
374.92
374.911
374.901
374.892
374.883
374.874
374.865
374.856
374.848
374.839
374.831
374.822
374.814
376.164
376.219
376.259
376.288
376.306
376.317
376.322
376.321
376.317
376.31
376.299
376.286
376.27
376.252
376.232
376.21
376.187
376.163
376.137
376.111
376.084
376.057
376.029
376.001
375.974
375.947
375.92
375.894
375.869
375.844
375.819
375.795
375.771
375.748
375.726
375.703
375.681
375.659
375.638
375.617
375.596
375.575
375.554
375.534
375.514
375.494
375.475
375.455
375.437
375.418
375.4
375.382
375.365
375.348
375.331
375.314
375.298
375.282
375.267
375.251
375.236
375.221
375.207
375.192
375.178
375.164
375.151
375.138
375.125
375.112
375.1
375.088
375.076
375.064
375.053
375.042
375.031
375.02
375.01
375
374.99
374.98
374.97
374.96
374.95
374.941
374.931
374.922
374.912
374.903
374.894
374.885
374.876
374.867
374.858
374.85
374.841
374.833
374.824
374.815
376.141
376.206
376.256
376.292
376.316
376.33
376.338
376.337
376.334
376.328
376.317
376.302
376.285
376.266
376.244
376.221
376.197
376.171
376.144
376.117
376.089
376.06
376.032
376.004
375.975
375.948
375.921
375.894
375.868
375.842
375.817
375.793
375.768
375.745
375.722
375.699
375.676
375.654
375.632
375.611
375.589
375.568
375.548
375.527
375.507
375.488
375.468
375.449
375.43
375.412
375.394
375.376
375.359
375.342
375.325
375.309
375.293
375.277
375.261
375.246
375.231
375.217
375.202
375.188
375.174
375.161
375.148
375.135
375.122
375.109
375.097
375.085
375.074
375.062
375.051
375.04
375.03
375.019
375.009
374.999
374.989
374.979
374.969
374.959
374.95
374.94
374.931
374.922
374.912
374.903
374.894
374.885
374.876
374.868
374.859
374.85
374.841
374.834
374.825
374.816
376.064
376.15
376.213
376.257
376.286
376.305
376.315
376.315
376.312
376.303
376.29
376.274
376.254
376.233
376.209
376.184
376.158
376.131
376.103
376.074
376.045
376.017
375.988
375.959
375.931
375.903
375.876
375.85
375.824
375.798
375.773
375.749
375.725
375.702
375.679
375.656
375.634
375.613
375.592
375.571
375.55
375.53
375.51
375.49
375.471
375.452
375.433
375.415
375.397
375.379
375.362
375.345
375.329
375.312
375.296
375.281
375.266
375.25
375.236
375.221
375.207
375.193
375.18
375.166
375.153
375.14
375.128
375.115
375.103
375.092
375.08
375.069
375.058
375.047
375.036
375.026
375.016
375.006
374.996
374.986
374.977
374.967
374.958
374.948
374.939
374.93
374.921
374.912
374.903
374.894
374.886
374.877
374.868
374.86
374.852
374.843
374.835
374.827
374.819
374.809
375.858
375.955
376.03
376.079
376.111
376.13
376.14
376.139
376.135
376.125
376.111
376.094
376.074
376.053
376.03
376.006
375.981
375.955
375.929
375.903
375.877
375.851
375.825
375.8
375.775
375.75
375.726
375.703
375.68
375.658
375.636
375.615
375.594
375.573
375.554
375.534
375.515
375.496
375.478
375.46
375.442
375.424
375.407
375.39
375.374
375.357
375.341
375.325
375.31
375.294
375.279
375.264
375.25
375.236
375.222
375.208
375.195
375.182
375.169
375.157
375.144
375.132
375.121
375.109
375.097
375.086
375.075
375.065
375.054
375.044
375.034
375.024
375.014
375.004
374.995
374.986
374.977
374.968
374.959
374.95
374.942
374.933
374.925
374.916
374.908
374.899
374.891
374.883
374.875
374.867
374.859
374.851
374.843
374.835
374.828
374.82
374.812
374.804
374.797
374.788
375.47
375.519
375.579
375.609
375.619
375.624
375.622
375.617
375.608
375.596
375.583
375.569
375.555
375.541
375.527
375.513
375.498
375.484
375.47
375.457
375.443
375.43
375.417
375.404
375.392
375.379
375.367
375.355
375.344
375.332
375.321
375.31
375.299
375.288
375.278
375.267
375.256
375.245
375.235
375.224
375.213
375.203
375.192
375.182
375.171
375.161
375.151
375.141
375.13
375.12
375.11
375.101
375.091
375.082
375.072
375.063
375.054
375.045
375.036
375.027
375.019
375.01
375.002
374.993
374.985
374.977
374.969
374.961
374.954
374.946
374.939
374.931
374.924
374.917
374.909
374.902
374.895
374.889
374.882
374.875
374.868
374.861
374.855
374.848
374.841
374.835
374.828
374.821
374.815
374.808
374.802
374.795
374.789
374.782
374.776
374.769
374.763
374.755
374.75
374.741
374.756
374.792
374.827
374.833
374.829
374.822
374.808
374.796
374.779
374.762
374.746
374.731
374.717
374.704
374.694
374.684
374.677
374.671
374.667
374.664
374.663
374.664
374.666
374.669
374.674
374.68
374.686
374.694
374.702
374.71
374.719
374.727
374.736
374.744
374.752
374.759
374.766
374.772
374.778
374.783
374.787
374.792
374.795
374.798
374.8
374.802
374.804
374.805
374.806
374.806
374.806
374.806
374.806
374.805
374.804
374.803
374.802
374.801
374.799
374.797
374.795
374.793
374.791
374.788
374.786
374.783
374.781
374.778
374.775
374.772
374.769
374.766
374.763
374.76
374.757
374.754
374.751
374.747
374.744
374.74
374.737
374.733
374.73
374.726
374.722
374.718
374.714
374.71
374.706
374.702
374.698
374.693
374.689
374.685
374.681
374.676
374.672
374.666
374.663
374.656
373.86
373.915
373.969
374.006
374.029
374.043
374.054
374.061
374.064
374.066
374.066
374.064
374.061
374.057
374.053
374.048
374.043
374.039
374.035
374.03
374.027
374.023
374.021
374.018
374.017
374.016
374.016
374.017
374.019
374.022
374.026
374.031
374.038
374.046
374.055
374.065
374.076
374.089
374.102
374.116
374.13
374.146
374.162
374.178
374.195
374.212
374.229
374.246
374.263
374.28
374.296
374.312
374.327
374.341
374.355
374.368
374.381
374.393
374.404
374.414
374.423
374.432
374.441
374.449
374.456
374.462
374.469
374.475
374.48
374.485
374.49
374.494
374.498
374.502
374.505
374.508
374.511
374.514
374.516
374.518
374.52
374.522
374.523
374.524
374.525
374.525
374.526
374.526
374.526
374.526
374.526
374.525
374.525
374.524
374.523
374.522
374.521
374.519
374.518
374.514
373.257
373.32
373.411
373.485
373.542
373.588
373.625
373.656
373.68
373.7
373.715
373.727
373.735
373.742
373.745
373.747
373.747
373.746
373.744
373.741
373.737
373.733
373.727
373.722
373.716
373.711
373.705
373.699
373.693
373.688
373.682
373.677
373.673
373.668
373.664
373.661
373.658
373.657
373.655
373.655
373.655
373.656
373.658
373.661
373.665
373.669
373.675
373.681
373.689
373.697
373.707
373.718
373.729
373.742
373.756
373.771
373.787
373.804
373.821
373.839
373.857
373.875
373.894
373.913
373.932
373.951
373.97
373.988
374.006
374.024
374.041
374.058
374.074
374.089
374.104
374.118
374.131
374.144
374.156
374.167
374.177
374.187
374.197
374.205
374.214
374.222
374.229
374.236
374.242
374.248
374.254
374.26
374.265
374.269
374.274
374.278
374.282
374.285
374.289
374.291
372.944
373.017
373.101
373.181
373.25
373.308
373.357
373.399
373.433
373.461
373.483
373.501
373.515
373.526
373.533
373.539
373.542
373.544
373.544
373.543
373.542
373.539
373.535
373.531
373.527
373.522
373.517
373.512
373.506
373.501
373.496
373.49
373.485
373.48
373.474
373.469
373.464
373.46
373.455
373.45
373.446
373.442
373.438
373.435
373.432
373.429
373.426
373.424
373.422
373.42
373.419
373.418
373.418
373.418
373.418
373.419
373.421
373.423
373.426
373.429
373.433
373.438
373.443
373.449
373.456
373.464
373.473
373.482
373.492
373.503
373.514
373.527
373.54
373.554
373.568
373.583
373.598
373.615
373.631
373.648
373.664
373.682
373.699
373.717
373.733
373.751
373.767
373.785
373.8
373.817
373.832
373.848
373.862
373.877
373.889
373.904
373.915
373.929
373.937
373.951
372.608
372.709
372.81
372.905
372.99
373.062
373.123
373.175
373.218
373.255
373.285
373.311
373.332
373.35
373.364
373.375
373.384
373.391
373.397
373.4
373.403
373.404
373.404
373.404
373.402
373.401
373.398
373.395
373.392
373.389
373.385
373.381
373.377
373.373
373.369
373.365
373.361
373.357
373.353
373.349
373.345
373.341
373.337
373.334
373.33
373.327
373.323
373.32
373.317
373.314
373.311
373.308
373.305
373.303
373.301
373.298
373.296
373.294
373.293
373.291
373.289
373.288
373.287
373.286
373.285
373.285
373.284
373.284
373.285
373.285
373.286
373.287
373.288
373.29
373.292
373.294
373.297
373.3
373.304
373.308
373.312
373.318
373.323
373.329
373.335
373.343
373.35
373.359
373.367
373.377
373.386
373.398
373.407
373.42
373.43
373.444
373.454
373.47
373.48
373.498
372.546
372.645
372.74
372.829
372.907
372.975
373.034
373.085
373.13
373.168
373.2
373.227
373.25
373.27
373.286
373.3
373.311
373.32
373.327
373.332
373.336
373.339
373.34
373.341
373.341
373.34
373.339
373.337
373.335
373.332
373.329
373.326
373.322
373.319
373.315
373.312
373.308
373.304
373.301
373.297
373.293
373.29
373.286
373.283
373.279
373.276
373.273
373.269
373.266
373.263
373.26
373.257
373.254
373.252
373.249
373.247
373.244
373.242
373.24
373.237
373.235
373.233
373.231
373.229
373.227
373.226
373.224
373.222
373.221
373.219
373.218
373.217
373.216
373.214
373.213
373.213
373.212
373.211
373.21
373.21
373.209
373.209
373.209
373.208
373.208
373.208
373.208
373.209
373.209
373.21
373.211
373.212
373.213
373.214
373.216
373.218
373.219
373.222
373.223
373.229
372.515
372.61
372.702
372.785
372.86
372.926
372.984
373.035
373.078
373.116
373.149
373.176
373.2
373.219
373.236
373.249
373.261
373.27
373.277
373.283
373.287
373.29
373.292
373.293
373.293
373.292
373.291
373.29
373.288
373.285
373.282
373.28
373.276
373.273
373.27
373.266
373.263
373.259
373.256
373.253
373.249
373.246
373.242
373.239
373.236
373.232
373.229
373.226
373.223
373.22
373.217
373.215
373.212
373.21
373.207
373.205
373.202
373.2
373.198
373.196
373.194
373.192
373.19
373.188
373.186
373.185
373.183
373.181
373.18
373.178
373.177
373.175
373.174
373.173
373.172
373.171
373.169
373.168
373.167
373.166
373.165
373.165
373.163
373.163
373.162
373.161
373.16
373.16
373.159
373.158
373.157
373.157
373.156
373.156
373.155
373.154
373.154
373.153
373.152
373.152
372.499
372.59
372.677
372.756
372.827
372.889
372.944
372.992
373.035
373.071
373.103
373.13
373.153
373.172
373.189
373.203
373.214
373.223
373.231
373.237
373.242
373.245
373.248
373.249
373.25
373.25
373.249
373.248
373.246
373.244
373.242
373.239
373.237
373.234
373.231
373.228
373.225
373.222
373.219
373.216
373.212
373.209
373.206
373.203
373.2
373.197
373.194
373.192
373.189
373.186
373.183
373.181
373.178
373.176
373.174
373.172
373.169
373.167
373.165
373.163
373.161
373.16
373.158
373.156
373.154
373.153
373.151
373.15
373.148
373.147
373.145
373.144
373.143
373.142
373.14
373.139
373.138
373.137
373.136
373.135
373.134
373.133
373.133
373.132
373.131
373.13
373.129
373.129
373.128
373.127
373.126
373.126
373.125
373.124
373.123
373.122
373.122
373.121
373.12
373.119
372.495
372.579
372.662
372.736
372.802
372.86
372.912
372.959
372.999
373.034
373.065
373.092
373.114
373.134
373.15
373.164
373.176
373.185
373.193
373.2
373.204
373.208
373.211
373.213
373.214
373.214
373.214
373.213
373.212
373.21
373.208
373.206
373.204
373.201
373.199
373.196
373.193
373.19
373.187
373.184
373.182
373.179
373.176
373.173
373.17
373.168
373.165
373.162
373.16
373.157
373.155
373.152
373.15
373.148
373.146
373.144
373.142
373.14
373.138
373.136
373.134
373.133
373.131
373.129
373.128
373.126
373.125
373.123
373.122
373.12
373.119
373.118
373.117
373.116
373.115
373.114
373.113
373.112
373.111
373.11
373.109
373.108
373.107
373.106
373.105
373.105
373.104
373.103
373.102
373.102
373.101
373.1
373.1
373.099
373.098
373.097
373.097
373.096
373.095
373.094
372.5
372.578
372.655
372.724
372.785
372.839
372.889
372.932
372.971
373.005
373.034
373.06
373.082
373.101
373.117
373.13
373.142
373.152
373.16
373.166
373.171
373.175
373.178
373.18
373.181
373.182
373.182
373.181
373.181
373.179
373.178
373.176
373.174
373.172
373.169
373.167
373.164
373.162
373.159
373.157
373.154
373.151
373.149
373.146
373.144
373.141
373.139
373.136
373.134
373.132
373.13
373.127
373.125
373.123
373.121
373.119
373.117
373.116
373.114
373.112
373.111
373.109
373.107
373.106
373.104
373.103
373.102
373.1
373.099
373.098
373.097
373.095
373.094
373.093
373.092
373.091
373.09
373.09
373.089
373.088
373.087
373.086
373.085
373.085
373.084
373.083
373.082
373.082
373.081
373.08
373.08
373.079
373.079
373.078
373.077
373.077
373.076
373.075
373.074
373.074
372.512
372.583
372.654
372.717
372.774
372.825
372.871
372.912
372.948
372.98
373.008
373.033
373.054
373.072
373.088
373.101
373.113
373.122
373.13
373.137
373.142
373.146
373.149
373.151
373.153
373.154
373.154
373.154
373.153
373.152
373.151
373.149
373.148
373.146
373.144
373.141
373.139
373.137
373.135
373.132
373.13
373.128
373.125
373.123
373.121
373.118
373.116
373.114
373.112
373.11
373.108
373.106
373.104
373.102
373.1
373.098
373.097
373.095
373.093
373.092
373.09
373.089
373.087
373.086
373.085
373.083
373.082
373.081
373.08
373.079
373.077
373.076
373.075
373.074
373.073
373.073
373.072
373.071
373.07
373.069
373.069
373.068
373.067
373.066
373.066
373.065
373.064
373.064
373.063
373.063
373.062
373.061
373.061
373.06
373.059
373.059
373.058
373.058
373.057
373.056
372.53
372.594
372.658
372.717
372.769
372.816
372.858
372.896
372.931
372.961
372.987
373.011
373.031
373.048
373.063
373.076
373.087
373.097
373.105
373.111
373.116
373.12
373.124
373.126
373.128
373.129
373.129
373.129
373.129
373.128
373.127
373.126
373.124
373.123
373.121
373.119
373.117
373.115
373.113
373.111
373.109
373.107
373.105
373.103
373.101
373.098
373.096
373.095
373.093
373.091
373.089
373.087
373.085
373.084
373.082
373.08
373.079
373.077
373.076
373.074
373.073
373.072
373.07
373.069
373.068
373.067
373.066
373.064
373.063
373.062
373.061
373.06
373.059
373.059
373.058
373.057
373.056
373.055
373.055
373.054
373.053
373.052
373.052
373.051
373.051
373.05
373.049
373.049
373.048
373.048
373.047
373.047
373.046
373.045
373.045
373.044
373.044
373.043
373.043
373.042
372.553
372.61
372.668
372.722
372.769
372.812
372.851
372.886
372.918
372.946
372.971
372.993
373.012
373.029
373.043
373.055
373.066
373.075
373.083
373.089
373.094
373.098
373.102
373.104
373.106
373.107
373.108
373.108
373.108
373.107
373.107
373.106
373.104
373.103
373.101
373.1
373.098
373.096
373.094
373.093
373.091
373.089
373.087
373.085
373.083
373.082
373.08
373.078
373.076
373.075
373.073
373.071
373.07
373.068
373.067
373.065
373.064
373.063
373.061
373.06
373.059
373.057
373.056
373.055
373.054
373.053
373.052
373.051
373.05
373.049
373.048
373.047
373.046
373.045
373.045
373.044
373.043
373.043
373.042
373.041
373.041
373.04
373.039
373.039
373.038
373.038
373.037
373.037
373.036
373.036
373.035
373.035
373.034
373.034
373.033
373.033
373.032
373.032
373.031
373.03
372.581
372.631
372.684
372.731
372.774
372.813
372.849
372.881
372.91
372.936
372.959
372.98
372.998
373.013
373.027
373.038
373.049
373.057
373.064
373.071
373.076
373.08
373.083
373.085
373.087
373.089
373.089
373.09
373.09
373.09
373.089
373.088
373.087
373.086
373.085
373.083
373.082
373.08
373.079
373.077
373.075
373.074
373.072
373.071
373.069
373.067
373.066
373.064
373.063
373.061
373.06
373.058
373.057
373.055
373.054
373.053
373.052
373.05
373.049
373.048
373.047
373.046
373.045
373.044
373.043
373.042
373.041
373.04
373.039
373.038
373.037
373.036
373.036
373.035
373.034
373.034
373.033
373.032
373.032
373.031
373.03
373.03
373.029
373.029
373.028
373.028
373.027
373.027
373.026
373.026
373.026
373.025
373.025
373.024
373.024
373.023
373.023
373.022
373.022
373.021
372.613
372.657
372.703
372.746
372.784
372.819
372.851
372.881
372.907
372.931
372.952
372.971
372.987
373.002
373.014
373.025
373.035
373.043
373.05
373.055
373.06
373.064
373.067
373.07
373.072
373.073
373.074
373.074
373.075
373.074
373.074
373.073
373.073
373.072
373.071
373.069
373.068
373.067
373.065
373.064
373.063
373.061
373.06
373.058
373.057
373.055
373.054
373.053
373.051
373.05
373.049
373.047
373.046
373.045
373.044
373.042
373.041
373.04
373.039
373.038
373.037
373.036
373.035
373.034
373.033
373.033
373.032
373.031
373.03
373.029
373.029
373.028
373.027
373.027
373.026
373.025
373.025
373.024
373.024
373.023
373.023
373.022
373.022
373.021
373.021
373.02
373.02
373.019
373.019
373.019
373.018
373.018
373.017
373.017
373.017
373.016
373.016
373.015
373.015
373.014
372.649
372.686
372.727
372.764
372.798
372.829
372.858
372.884
372.908
372.929
372.948
372.965
372.98
372.994
373.005
373.015
373.024
373.031
373.038
373.043
373.048
373.051
373.054
373.057
373.059
373.06
373.061
373.061
373.062
373.062
373.061
373.061
373.06
373.059
373.058
373.057
373.056
373.055
373.054
373.053
373.052
373.05
373.049
373.048
373.047
373.045
373.044
373.043
373.042
373.041
373.039
373.038
373.037
373.036
373.035
373.034
373.033
373.032
373.031
373.03
373.029
373.029
373.028
373.027
373.026
373.025
373.025
373.024
373.023
373.022
373.022
373.021
373.021
373.02
373.019
373.019
373.018
373.018
373.017
373.017
373.016
373.016
373.016
373.015
373.015
373.014
373.014
373.014
373.013
373.013
373.012
373.012
373.012
373.011
373.011
373.011
373.01
373.01
373.01
373.009
372.687
372.719
372.754
372.786
372.816
372.843
372.868
372.891
372.912
372.931
372.948
372.963
372.976
372.988
372.999
373.008
373.016
373.022
373.028
373.033
373.037
373.041
373.043
373.046
373.047
373.049
373.05
373.05
373.051
373.051
373.05
373.05
373.05
373.049
373.048
373.047
373.046
373.046
373.045
373.044
373.042
373.041
373.04
373.039
373.038
373.037
373.036
373.035
373.034
373.033
373.032
373.031
373.03
373.029
373.028
373.027
373.026
373.025
373.025
373.024
373.023
373.022
373.022
373.021
373.02
373.019
373.019
373.018
373.018
373.017
373.016
373.016
373.015
373.015
373.014
373.014
373.013
373.013
373.012
373.012
373.012
373.011
373.011
373.01
373.01
373.01
373.009
373.009
373.009
373.008
373.008
373.008
373.007
373.007
373.007
373.006
373.006
373.006
373.006
373.005
372.727
372.753
372.783
372.811
372.836
372.859
372.881
372.901
372.919
372.935
372.95
372.963
372.975
372.985
372.995
373.003
373.01
373.016
373.021
373.025
373.029
373.032
373.035
373.037
373.038
373.039
373.04
373.041
373.041
373.041
373.041
373.041
373.041
373.04
373.039
373.039
373.038
373.037
373.036
373.035
373.034
373.034
373.033
373.032
373.031
373.03
373.029
373.028
373.027
373.026
373.025
373.025
373.024
373.023
373.022
373.021
373.021
373.02
373.019
373.018
373.018
373.017
373.016
373.016
373.015
373.015
373.014
373.013
373.013
373.012
373.012
373.011
373.011
373.01
373.01
373.01
373.009
373.009
373.008
373.008
373.008
373.007
373.007
373.007
373.006
373.006
373.006
373.005
373.005
373.005
373.005
373.004
373.004
373.004
373.003
373.003
373.003
373.003
373.002
373.002
372.767
372.789
372.814
372.837
372.858
372.877
372.896
372.912
372.928
372.942
372.954
372.966
372.976
372.985
372.992
372.999
373.005
373.011
373.015
373.019
373.022
373.025
373.027
373.029
373.03
373.031
373.032
373.033
373.033
373.033
373.033
373.033
373.032
373.032
373.031
373.031
373.03
373.03
373.029
373.028
373.027
373.026
373.026
373.025
373.024
373.023
373.022
373.022
373.021
373.02
373.019
373.019
373.018
373.017
373.017
373.016
373.015
373.015
373.014
373.013
373.013
373.012
373.012
373.011
373.011
373.01
373.01
373.009
373.009
373.008
373.008
373.007
373.007
373.006
373.006
373.006
373.005
373.005
373.005
373.004
373.004
373.004
373.003
373.003
373.003
373.003
373.002
373.002
373.002
373.002
373.001
373.001
373.001
373.001
373
373
373
373
372.999
372.999
372.81
372.827
372.847
372.865
372.882
372.898
372.913
372.926
372.939
372.95
372.961
372.97
372.978
372.986
372.992
372.998
373.003
373.007
373.011
373.014
373.016
373.019
373.02
373.022
373.023
373.024
373.025
373.025
373.025
373.025
373.025
373.025
373.025
373.024
373.024
373.023
373.023
373.022
373.021
373.021
373.02
373.019
373.019
373.018
373.017
373.017
373.016
373.015
373.015
373.014
373.013
373.013
373.012
373.011
373.011
373.01
373.01
373.009
373.009
373.008
373.008
373.007
373.007
373.006
373.006
373.005
373.005
373.004
373.004
373.004
373.003
373.003
373.003
373.002
373.002
373.002
373.001
373.001
373.001
373
373
373
373
372.999
372.999
372.999
372.999
372.999
372.998
372.998
372.998
372.998
372.997
372.997
372.997
372.997
372.997
372.996
372.996
372.996
372.851
372.865
372.88
372.894
372.907
372.919
372.93
372.941
372.951
372.96
372.968
372.975
372.981
372.987
372.992
372.997
373
373.004
373.006
373.009
373.011
373.012
373.014
373.015
373.016
373.016
373.017
373.017
373.017
373.017
373.017
373.016
373.016
373.016
373.015
373.015
373.014
373.014
373.013
373.013
373.012
373.011
373.011
373.01
373.01
373.009
373.009
373.008
373.007
373.007
373.006
373.006
373.005
373.005
373.004
373.004
373.004
373.003
373.003
373.002
373.002
373.002
373.001
373.001
373.001
373
373
373
372.999
372.999
372.999
372.998
372.998
372.998
372.998
372.997
372.997
372.997
372.997
372.996
372.996
372.996
372.996
372.996
372.996
372.995
372.995
372.995
372.995
372.995
372.995
372.994
372.994
372.994
372.994
372.994
372.994
372.993
372.993
372.993
372.894
372.904
372.914
372.924
372.933
372.942
372.95
372.957
372.964
372.971
372.976
372.981
372.985
372.989
372.992
372.995
372.998
373
373.002
373.003
373.004
373.005
373.006
373.007
373.007
373.007
373.007
373.007
373.007
373.007
373.007
373.007
373.006
373.006
373.006
373.005
373.005
373.004
373.004
373.004
373.003
373.003
373.002
373.002
373.001
373.001
373.001
373
373
373
372.999
372.999
372.999
372.998
372.998
372.998
372.998
372.997
372.997
372.997
372.997
372.996
372.996
372.996
372.996
372.996
372.995
372.995
372.995
372.995
372.995
372.994
372.994
372.994
372.994
372.994
372.994
372.994
372.993
372.993
372.993
372.993
372.993
372.993
372.993
372.993
372.993
372.992
372.992
372.992
372.992
372.992
372.992
372.992
372.992
372.992
372.992
372.992
372.992
372.991
372.937
372.942
372.949
372.954
372.959
372.964
372.968
372.972
372.976
372.978
372.981
372.983
372.986
372.987
372.989
372.99
372.991
372.992
372.993
372.994
372.994
372.995
372.995
372.995
372.996
372.996
372.996
372.996
372.996
372.996
372.996
372.996
372.996
372.996
372.996
372.996
372.996
372.996
372.996
372.996
372.996
372.996
372.995
372.995
372.995
372.995
372.995
372.995
372.995
372.995
372.995
372.995
372.994
372.994
372.994
372.994
372.994
372.994
372.994
372.994
372.994
372.994
372.994
372.994
372.993
372.993
372.993
372.993
372.993
372.993
372.993
372.993
372.993
372.993
372.993
372.993
372.993
372.993
372.992
372.992
372.992
372.992
372.992
372.992
372.992
372.992
372.992
372.992
372.992
372.992
372.992
372.992
372.992
372.992
372.992
372.992
372.992
372.992
372.992
372.991
372.971
372.973
372.974
372.975
372.976
372.977
372.977
372.978
372.978
372.979
372.98
372.98
372.981
372.981
372.982
372.983
372.983
372.984
372.985
372.985
372.986
372.986
372.987
372.987
372.988
372.988
372.989
372.989
372.99
372.99
372.99
372.991
372.991
372.991
372.991
372.992
372.992
372.992
372.992
372.992
372.993
372.993
372.993
372.993
372.993
372.993
372.993
372.993
372.993
372.993
372.993
372.993
372.993
372.993
372.993
372.993
372.993
372.994
372.994
372.993
372.994
372.993
372.993
372.993
372.993
372.993
372.993
372.993
372.993
372.993
372.993
372.993
372.993
372.993
372.993
372.993
372.993
372.993
372.993
372.993
372.993
372.993
372.993
372.993
372.993
372.993
372.993
372.993
372.993
372.993
372.993
372.993
372.993
372.993
372.992
372.992
372.992
372.992
372.992
372.992
371.636
371.659
371.714
371.798
371.879
372.014
372.094
372.246
372.337
372.499
371.782
371.794
371.83
371.894
371.951
372.057
372.122
372.239
372.326
372.444
371.9
371.906
371.932
371.98
372.024
372.105
372.161
372.247
372.327
372.421
372.004
372.006
372.023
372.058
372.094
372.151
372.21
372.268
372.338
372.416
372.1
372.097
372.107
372.13
372.163
372.201
372.253
372.301
372.356
372.421
372.187
372.181
372.186
372.201
372.227
372.255
372.295
372.337
372.381
372.436
372.267
372.26
372.261
372.27
372.288
372.311
372.341
372.375
372.411
372.456
372.342
372.333
372.331
372.337
372.349
372.366
372.389
372.415
372.445
372.482
372.411
372.402
372.399
372.401
372.409
372.421
372.438
372.459
372.482
372.512
372.476
372.467
372.462
372.463
372.467
372.476
372.488
372.504
372.523
372.546
372.537
372.528
372.523
372.522
372.525
372.531
372.539
372.551
372.565
372.583
372.594
372.586
372.581
372.579
372.58
372.584
372.591
372.599
372.61
372.624
372.649
372.641
372.636
372.634
372.634
372.637
372.641
372.647
372.655
372.666
372.701
372.694
372.69
372.687
372.687
372.688
372.691
372.696
372.702
372.709
372.751
372.745
372.741
372.739
372.738
372.738
372.74
372.743
372.748
372.754
372.8
372.795
372.791
372.789
372.788
372.788
372.789
372.791
372.795
372.799
372.846
372.843
372.84
372.838
372.837
372.837
372.837
372.838
372.84
372.843
372.893
372.89
372.888
372.887
372.886
372.885
372.885
372.886
372.887
372.889
372.937
372.935
372.934
372.933
372.933
372.932
372.932
372.932
372.933
372.934
372.978
372.977
372.976
372.975
372.974
372.973
372.973
372.971
372.971
372.971
373.302
373.286
373.222
373.124
372.987
372.799
372.532
372.153
371.644
370.973
372.972
372.925
372.836
372.708
372.526
372.28
371.947
371.484
370.86
370.164
372.659
372.576
372.462
372.304
372.083
371.785
371.383
370.835
370.125
369.42
372.375
372.257
372.115
371.926
371.666
371.321
370.865
370.245
369.433
368.812
372.124
371.976
371.807
371.589
371.298
370.912
370.404
369.72
368.843
368.26
371.908
371.736
371.544
371.302
370.983
370.566
370.026
369.294
368.343
367.819
371.732
371.543
371.335
371.075
370.739
370.3
369.735
368.977
367.991
367.481
371.598
371.4
371.183
370.912
370.567
370.121
369.548
368.789
367.772
367.532
371.508
371.309
371.089
370.817
370.473
370.03
369.462
368.73
367.765
367.714
371.463
371.27
371.054
370.789
370.456
370.033
369.489
368.822
367.925
368.159
375.287
375.46
375.637
375.823
376.038
376.255
376.515
376.745
376.985
377.014
375.256
375.424
375.597
375.777
375.983
376.195
376.438
376.652
376.897
376.947
375.175
375.334
375.495
375.662
375.851
376.048
376.259
376.458
376.658
376.671
375.053
375.197
375.342
375.489
375.656
375.822
376.003
376.151
376.3
376.272
374.893
375.015
375.142
375.261
375.399
375.531
375.665
375.761
375.836
375.751
374.696
374.794
374.894
374.988
375.084
375.174
375.26
375.29
375.28
375.117
374.464
374.541
374.609
374.669
374.73
374.763
374.788
374.751
374.65
374.39
374.208
374.254
374.296
374.312
374.328
374.314
374.265
374.156
373.949
373.588
373.931
373.949
373.954
373.935
373.895
373.828
373.708
373.507
373.209
372.733
373.645
373.635
373.6
373.537
373.446
373.315
373.125
372.84
372.425
371.854
373
373
373
373
373
373
373
373
373.001
373.001
373.001
373.001
373.001
373.001
373.002
373.002
373.002
373.002
373.003
373.003
373.003
373.004
373.004
373.004
373.005
373.005
373.006
373.006
373.007
373.008
373.009
373.009
373.011
373.011
373.012
373.013
373.015
373.016
373.017
373.018
373.021
373.022
373.024
373.025
373.028
373.03
373.033
373.035
373.039
373.041
373.045
373.047
373.052
373.055
373.061
373.064
373.071
373.075
373.082
373.087
373.095
373.1
373.111
373.117
373.128
373.135
373.148
373.156
373.172
373.181
373.199
373.21
373.23
373.243
373.266
373.282
373.307
373.327
373.355
373.379
373.412
373.44
373.478
373.511
373.555
373.595
373.647
373.695
373.756
373.816
373.89
373.963
374.054
374.147
374.261
374.381
374.528
374.687
374.881
375.117
373
373
373
373
373
373
373
373
373.001
373.001
373.001
373.001
373.001
373.001
373.002
373.002
373.002
373.002
373.003
373.003
373.003
373.004
373.004
373.004
373.005