/*--------------------------------*- C++ -*----------------------------------*\
  =========                 |
  \\      /  F ield         | OpenFOAM: The Open Source CFD Toolbox
   \\    /   O peration     | Website:  https://openfoam.org
    \\  /    A nd           | Version:  8
     \\/     M anipulation  |
\*---------------------------------------------------------------------------*/
FoamFile
{
    version     2.0;
    format      ascii;
    class       volScalarField;
    location    "1";
    object      N;
}
// * * * * * * * * * * * * * * * * * * * * * * * * * * * * * * * * * * * * * //

dimensions      [0 -3 0 0 0 0 0];

internalField   nonuniform List<scalar> 
800
(
1921574.7
1921372.3
1921474.7
1921465.7
1921472.3
1921470.6
1921471.7
1921471.2
1921471.4
1921471.4
1921471.4
1921471.4
1921471.2
1921471.7
1921470.6
1921472.3
1921465.7
1921474.7
1921372.3
1921574.7
661.28249
637.32305
649.75178
648.14682
648.95978
648.63295
648.90802
648.90299
648.99284
648.92573
648.92574
648.99285
648.903
648.90802
648.63296
648.95979
648.14684
649.7518
637.32306
661.28245
0.64453669
0.62523704
0.63546327
0.63382278
0.6346884
0.63435884
0.63463156
0.63462937
0.63472401
0.63467143
0.63467143
0.63472402
0.63462938
0.63463157
0.63435885
0.6346884
0.6338228
0.63546329
0.62523706
0.64453667
0.1004346
0.1004182
0.10042698
0.10042533
0.10042625
0.10042591
0.10042619
0.10042618
0.10042628
0.10042624
0.10042624
0.10042628
0.10042618
0.10042619
0.10042591
0.10042625
0.10042533
0.10042698
0.1004182
0.1004346
0.10001309
0.10001309
0.10001309
0.10001309
0.10001309
0.10001309
0.10001309
0.10001309
0.10001309
0.10001309
0.10001309
0.10001309
0.10001309
0.10001309
0.10001309
0.10001309
0.10001309
0.10001309
0.10001309
0.10001309
0.099928681
0.099928681
0.099928687
0.099928679
0.099928684
0.099928681
0.099928683
0.099928685
0.099928685
0.099928685
0.099928685
0.099928685
0.099928685
0.099928683
0.099928681
0.099928684
0.099928679
0.099928687
0.099928681
0.099928681
0.10005585
0.10005585
0.10005585
0.10005585
0.10005586
0.10005586
0.10005586
0.10005586
0.10005586
0.10005586
0.10005586
0.10005586
0.10005586
0.10005586
0.10005586
0.10005586
0.10005585
0.10005585
0.10005585
0.10005585
0.099892926
0.099892929
0.09989293
0.099892931
0.099892933
0.099892934
0.099892935
0.099892936
0.099892937
0.099892938
0.099892938
0.099892937
0.099892936
0.099892935
0.099892934
0.099892933
0.099892931
0.09989293
0.099892929
0.099892926
0.10013341
0.10013342
0.10013342
0.10013342
0.10013341
0.10013342
0.10013342
0.10013342
0.10013342
0.10013342
0.10013342
0.10013342
0.10013342
0.10013342
0.10013342
0.10013341
0.10013342
0.10013342
0.10013342
0.10013341
0.099776842
0.099776852
0.099776854
0.09977685
0.099776852
0.099776848
0.09977685
0.099776847
0.099776848
0.099776846
0.099776846
0.099776848
0.099776847
0.09977685
0.099776848
0.099776852
0.09977685
0.099776854
0.099776852
0.099776842
1920949.7
1920745.2
1920848.6
1920839.4
1920846.2
1920844.4
1920845.5
1920845.1
1920845.3
1920845.3
1920845.3
1920845.3
1920845.1
1920845.5
1920844.4
1920846.2
1920839.4
1920848.6
1920745.2
1920949.7
582.76748
559.98528
571.76854
570.23243
571.00355
570.69148
570.95457
570.95147
571.0376
570.973
570.973
571.0376
570.95147
570.95457
570.69148
571.00356
570.23244
571.76856
559.98529
582.76746
0.58613019
0.56803547
0.57760028
0.57606856
0.57687228
0.57656574
0.57682131
0.57682193
0.57691089
0.57686137
0.57686137
0.5769109
0.57682194
0.57682132
0.57656575
0.57687229
0.57606857
0.5776003
0.56803548
0.58613018
0.10038831
0.10037291
0.10038114
0.10037961
0.10038045
0.10038014
0.1003804
0.10038039
0.10038049
0.10038045
0.10038045
0.10038049
0.1003804
0.1003804
0.10038014
0.10038045
0.10037961
0.10038114
0.10037291
0.10038831
0.10001307
0.10001308
0.10001308
0.10001308
0.10001308
0.10001308
0.10001308
0.10001308
0.10001308
0.10001308
0.10001308
0.10001308
0.10001308
0.10001308
0.10001308
0.10001308
0.10001308
0.10001308
0.10001308
0.10001307
0.099928699
0.099928699
0.099928706
0.099928698
0.099928703
0.0999287
0.099928702
0.099928703
0.099928704
0.099928704
0.099928704
0.099928704
0.099928703
0.099928702
0.0999287
0.099928703
0.099928698
0.099928706
0.099928699
0.099928699
0.10005586
0.10005586
0.10005586
0.10005586
0.10005586
0.10005587
0.10005587
0.10005587
0.10005587
0.10005587
0.10005587
0.10005587
0.10005587
0.10005587
0.10005587
0.10005586
0.10005586
0.10005586
0.10005586
0.10005586
0.099892942
0.099892945
0.099892946
0.099892947
0.099892949
0.09989295
0.099892951
0.099892952
0.099892953
0.099892954
0.099892954
0.099892953
0.099892952
0.099892951
0.09989295
0.099892949
0.099892947
0.099892946
0.099892945
0.099892942
0.10013344
0.10013344
0.10013344
0.10013344
0.10013344
0.10013344
0.10013344
0.10013344
0.10013344
0.10013344
0.10013344
0.10013344
0.10013344
0.10013344
0.10013344
0.10013344
0.10013344
0.10013344
0.10013344
0.10013344
0.099776881
0.099776891
0.099776894
0.099776889
0.099776891
0.099776888
0.099776889
0.099776886
0.099776887
0.099776886
0.099776886
0.099776887
0.099776886
0.099776889
0.099776888
0.099776891
0.099776889
0.099776894
0.099776891
0.099776881
1920949.7
1920745.2
1920848.6
1920839.4
1920846.2
1920844.4
1920845.5
1920845.1
1920845.3
1920845.3
1920845.3
1920845.3
1920845.1
1920845.5
1920844.4
1920846.2
1920839.4
1920848.6
1920745.2
1920949.7
582.76748
559.98528
571.76853
570.23242
571.00354
570.69147
570.95456
570.95146
571.03759
570.97299
570.973
571.0376
570.95147
570.95457
570.69148
571.00355
570.23244
571.76855
559.98529
582.76749
0.58613018
0.56803545
0.57760027
0.57606854
0.57687226
0.57656573
0.5768213
0.57682192
0.57691088
0.57686136
0.57686136
0.57691089
0.57682193
0.57682131
0.57656573
0.57687227
0.57606856
0.57760029
0.56803547
0.5861302
0.10038831
0.10037291
0.10038114
0.10037961
0.10038045
0.10038014
0.1003804
0.10038039
0.10038049
0.10038045
0.10038045
0.10038049
0.10038039
0.1003804
0.10038014
0.10038045
0.10037961
0.10038114
0.10037291
0.10038831
0.10001307
0.10001308
0.10001308
0.10001308
0.10001308
0.10001308
0.10001308
0.10001308
0.10001308
0.10001308
0.10001308
0.10001308
0.10001308
0.10001308
0.10001308
0.10001308
0.10001308
0.10001308
0.10001308
0.10001307
0.099928699
0.099928699
0.099928706
0.099928698
0.099928703
0.0999287
0.099928702
0.099928703
0.099928704
0.099928704
0.099928704
0.099928704
0.099928703
0.099928702
0.0999287
0.099928703
0.099928698
0.099928706
0.099928699
0.099928699
0.10005586
0.10005586
0.10005586
0.10005586
0.10005586
0.10005587
0.10005587
0.10005587
0.10005587
0.10005587
0.10005587
0.10005587
0.10005587
0.10005587
0.10005587
0.10005586
0.10005586
0.10005586
0.10005586
0.10005586
0.099892942
0.099892945
0.099892946
0.099892947
0.099892949
0.09989295
0.099892951
0.099892952
0.099892953
0.099892954
0.099892954
0.099892953
0.099892952
0.099892951
0.09989295
0.099892949
0.099892947
0.099892946
0.099892945
0.099892942
0.10013344
0.10013344
0.10013344
0.10013344
0.10013344
0.10013344
0.10013344
0.10013344
0.10013344
0.10013344
0.10013344
0.10013344
0.10013344
0.10013344
0.10013344
0.10013344
0.10013344
0.10013344
0.10013344
0.10013344
0.099776881
0.099776891
0.099776894
0.099776889
0.099776891
0.099776888
0.099776889
0.099776886
0.099776887
0.099776886
0.099776886
0.099776887
0.099776886
0.099776889
0.099776888
0.099776891
0.099776889
0.099776894
0.099776891
0.099776881
1921574.7
1921372.3
1921474.7
1921465.7
1921472.3
1921470.6
1921471.7
1921471.2
1921471.4
1921471.4
1921471.4
1921471.4
1921471.2
1921471.7
1921470.6
1921472.3
1921465.7
1921474.7
1921372.3
1921574.7
661.28243
637.32299
649.75172
648.14677
648.95973
648.63289
648.90796
648.90293
648.99279
648.92568
648.92568
648.99279
648.90294
648.90797
648.6329
648.95974
648.14678
649.75174
637.32301
661.28245
0.64453662
0.62523697
0.6354632
0.63382271
0.63468833
0.63435877
0.63463149
0.6346293
0.63472394
0.63467136
0.63467136
0.63472395
0.63462931
0.6346315
0.63435878
0.63468833
0.63382273
0.63546322
0.625237
0.64453666
0.1004346
0.1004182
0.10042698
0.10042533
0.10042625
0.10042591
0.10042619
0.10042618
0.10042628
0.10042624
0.10042624
0.10042628
0.10042618
0.10042619
0.10042591
0.10042625
0.10042533
0.10042698
0.1004182
0.1004346
0.10001309
0.10001309
0.10001309
0.10001309
0.10001309
0.10001309
0.10001309
0.10001309
0.10001309
0.10001309
0.10001309
0.10001309
0.10001309
0.10001309
0.10001309
0.10001309
0.10001309
0.10001309
0.10001309
0.10001309
0.099928681
0.099928681
0.099928687
0.099928679
0.099928684
0.099928681
0.099928683
0.099928685
0.099928685
0.099928685
0.099928685
0.099928685
0.099928685
0.099928683
0.099928681
0.099928684
0.099928679
0.099928687
0.099928681
0.099928681
0.10005585
0.10005585
0.10005585
0.10005585
0.10005586
0.10005586
0.10005586
0.10005586
0.10005586
0.10005586
0.10005586
0.10005586
0.10005586
0.10005586
0.10005586
0.10005586
0.10005585
0.10005585
0.10005585
0.10005585
0.099892926
0.099892929
0.09989293
0.099892931
0.099892933
0.099892934
0.099892935
0.099892936
0.099892937
0.099892938
0.099892938
0.099892937
0.099892936
0.099892935
0.099892934
0.099892933
0.099892931
0.09989293
0.099892929
0.099892926
0.10013341
0.10013342
0.10013342
0.10013342
0.10013341
0.10013342
0.10013342
0.10013342
0.10013342
0.10013342
0.10013342
0.10013342
0.10013342
0.10013342
0.10013342
0.10013341
0.10013342
0.10013342
0.10013342
0.10013341
0.099776842
0.099776852
0.099776854
0.09977685
0.099776852
0.099776848
0.09977685
0.099776847
0.099776848
0.099776846
0.099776846
0.099776848
0.099776847
0.09977685
0.099776848
0.099776852
0.09977685
0.099776854
0.099776852
0.099776842
)
;

boundaryField
{
    left
    {
        type            zeroGradient;
    }
    right
    {
        type            zeroGradient;
    }
    walls
    {
        type            zeroGradient;
    }
    centreline
    {
        type            zeroGradient;
    }
    frontAndBack
    {
        type            zeroGradient;
    }
}


// ************************************************************************* //
