/*--------------------------------*- C++ -*----------------------------------*\
  =========                 |
  \\      /  F ield         | OpenFOAM: The Open Source CFD Toolbox
   \\    /   O peration     | Website:  https://openfoam.org
    \\  /    A nd           | Version:  8
     \\/     M anipulation  |
\*---------------------------------------------------------------------------*/
FoamFile
{
    version     2.0;
    format      ascii;
    class       surfaceScalarField;
    location    "1";
    object      phi;
}
// * * * * * * * * * * * * * * * * * * * * * * * * * * * * * * * * * * * * * //

dimensions      [1 0 -1 0 0 0 0];

internalField   nonuniform List<scalar> 
2080
(
-6.3404017e-05
0.0024625294
-0.00021290848
-3.0069989e-06
0.0023379838
-0.00021300703
-4.2307595e-06
0.0024016859
-0.0002130262
-7.4849917e-08
0.0023952109
-0.00021305234
-2.0516573e-07
0.0023984856
-0.00021303724
4.1803141e-07
0.002395799
-0.00021303553
-1.3070109e-07
0.0023966586
-0.0002130302
-3.6995289e-08
0.002396436
-0.00021303129
-5.0520792e-08
0.0023971669
-0.00021303093
-3.006513e-11
0.0023971799
-0.00021303214
5.0460995e-08
0.0023971799
-0.00021303214
3.697205e-08
0.0023971669
-0.00021303093
1.3069226e-07
0.002396436
-0.00021303129
-4.1802576e-07
0.0023966587
-0.0002130302
2.0517284e-07
0.0023957991
-0.00021303553
7.4860445e-08
0.0023984857
-0.00021303723
4.2307805e-06
0.002395211
-0.00021305233
3.0070154e-06
0.0024016859
-0.00021302619
6.3403997e-05
0.0023379838
-0.00021300702
0.0024625292
-0.00021290853
2.4564053e-05
0.017479889
0.00012461411
-3.3558643e-07
0.017406491
0.00012464649
-3.7040055e-06
0.017447759
0.00012458954
3.0298505e-08
0.017434619
0.00012456356
-3.5803073e-07
0.017440964
0.00012457751
4.6857143e-07
0.017436009
0.00012457999
6.5791342e-08
0.017437521
0.00012459202
1.3970675e-07
0.017437134
0.00012459217
7.6928597e-08
0.017438289
0.00012459416
-3.1292227e-11
0.01743836
0.00012459221
-7.6974261e-08
0.01743836
0.00012459221
-1.397377e-07
0.017438289
0.00012459416
-6.5795596e-08
0.017437134
0.00012459217
-4.6855855e-07
0.017437521
0.00012459202
3.5804013e-07
0.017436009
0.00012457999
-3.0295984e-08
0.017440964
0.00012457751
3.7039914e-06
0.017434619
0.00012456357
3.3552849e-07
0.01744776
0.00012458954
-2.4564128e-05
0.017406491
0.00012464648
0.017479889
0.00012461414
3.0536283e-06
0.032452283
5.2266169e-05
-4.1261031e-06
0.032404707
5.1907682e-05
-4.6918956e-06
0.032432028
5.2146699e-05
-1.5833001e-06
0.032418183
5.2044805e-05
-1.0970281e-06
0.032426407
5.2117236e-05
-7.1487514e-08
0.032419345
5.2119122e-05
-1.3860354e-07
0.032421427
5.2150434e-05
5.4141059e-08
0.032420543
5.214856e-05
-2.5901186e-08
0.032422341
5.2152049e-05
-2.3634484e-11
0.03242248
5.2146043e-05
2.5858553e-08
0.03242248
5.2146043e-05
-5.4156118e-08
0.032422341
5.2152049e-05
1.3861898e-07
0.032420543
5.2148559e-05
7.1515145e-08
0.032421427
5.2150434e-05
1.0970696e-06
0.032419345
5.2119122e-05
1.5833308e-06
0.032426407
5.2117236e-05
4.6919139e-06
0.032418183
5.2044803e-05
4.1260983e-06
0.032432028
5.2146689e-05
-3.053652e-06
0.032404707
5.1907657e-05
0.032452284
5.2266128e-05
1.6866377e-05
0.028670139
8.1137781e-06
1.5011729e-06
0.028640127
8.5857927e-06
1.2951632e-06
0.028655717
8.3841581e-06
-6.856266e-07
0.028646465
8.5638493e-06
-6.2563948e-07
0.028652504
8.4477048e-06
1.25468e-07
0.028647924
8.4435472e-06
1.0192788e-06
0.028649814
8.3989971e-06
1.119963e-06
0.028648892
8.396883e-06
8.1855777e-07
0.028649834
8.3945434e-06
-3.0406433e-11
0.028649736
8.4018601e-06
-8.1860715e-07
0.028649736
8.4018609e-06
-1.1199884e-06
0.028649834
8.3945464e-06
-1.0192724e-06
0.028648892
8.3968862e-06
-1.2543588e-07
0.028649814
8.3989999e-06
6.2568075e-07
0.028647924
8.4435491e-06
6.8566864e-07
0.028652504
8.4477059e-06
-1.2951422e-06
0.028646465
8.5638495e-06
-1.5011658e-06
0.028655717
8.3841589e-06
-1.6866371e-05
0.028640127
8.5857946e-06
0.028670139
8.1138044e-06
-3.337019e-06
0.024990414
-1.3017669e-05
-5.7963014e-06
0.024955792
-1.2959105e-05
-7.6106085e-06
0.024969933
-1.2998622e-05
-4.6418651e-06
0.024958174
-1.2961792e-05
-4.7493453e-06
0.024967968
-1.2991365e-05
-1.7768284e-06
0.024963647
-1.2988527e-05
-7.2335839e-07
0.024967266
-1.3000613e-05
3.3195537e-07
0.024964383
-1.3000851e-05
1.5798698e-07
0.024964846
-1.300319e-05
-3.3713562e-12
0.024963888
-1.30024e-05
-1.5798483e-07
0.024963888
-1.3002398e-05
-3.3193192e-07
0.024964846
-1.3003187e-05
7.2341528e-07
0.024964383
-1.3000847e-05
1.7769092e-06
0.024967266
-1.3000611e-05
4.7494321e-06
0.024963647
-1.2988529e-05
4.64192e-06
0.024967968
-1.2991368e-05
7.6106252e-06
0.024958174
-1.2961795e-05
5.7962908e-06
0.024969933
-1.299862e-05
3.3370004e-06
0.024955792
-1.2959095e-05
0.024990414
-1.3017638e-05
5.8059712e-06
-0.00027668717
1.2367322e-05
1.7146544e-06
-0.0002964995
1.2506097e-05
7.8402643e-06
-0.0002923617
1.2486294e-05
9.631515e-07
-0.00029605212
1.2482921e-05
2.399025e-06
-0.00029559359
1.2470695e-05
9.7571746e-07
-0.00029375541
1.2474619e-05
2.78806e-06
-0.00029520125
1.2473711e-05
1.70836e-06
-0.00029516676
1.2466504e-05
1.4379794e-06
-0.00029665073
1.2460971e-05
-2.3060898e-11
-0.00029675052
1.2455696e-05
-1.4380184e-06
-0.00029675051
1.2455697e-05
-1.7083812e-06
-0.00029665068
1.2460973e-05
-2.788054e-06
-0.00029516669
1.2466506e-05
-9.7569487e-07
-0.00029520116
1.2473713e-05
-2.3989994e-06
-0.00029375534
1.2474619e-05
-9.6315672e-07
-0.00029559354
1.2470693e-05
-7.8403103e-06
-0.00029605207
1.2482924e-05
-1.7147006e-06
-0.00029236165
1.2486302e-05
-5.8059944e-06
-0.00029649943
1.2506106e-05
-0.0002766871
1.236733e-05
-1.3038737e-05
-0.04822871
-2.7128193e-05
-8.234715e-06
-0.048271801
-2.7193226e-05
-1.1225615e-05
-0.048256816
-2.7171378e-05
-7.343224e-06
-0.048267311
-2.7186677e-05
-6.1740256e-06
-0.048261946
-2.7166267e-05
-4.9046885e-06
-0.048265046
-2.7177593e-05
-5.211885e-06
-0.048263309
-2.7166031e-05
-3.3717826e-06
-0.048264414
-2.7154443e-05
-2.0637031e-06
-0.048263974
-2.7138433e-05
3.6345566e-11
-0.048264246
-2.7129448e-05
2.0637857e-06
-0.048264246
-2.7129448e-05
3.371879e-06
-0.048263974
-2.7138435e-05
5.2119815e-06
-0.048264414
-2.7154446e-05
4.9047854e-06
-0.048263309
-2.7166033e-05
6.1741088e-06
-0.048265046
-2.7177591e-05
7.3432944e-06
-0.048261946
-2.7166264e-05
1.122566e-05
-0.048267311
-2.7186673e-05
8.2347283e-06
-0.048256816
-2.7171375e-05
1.3038735e-05
-0.048271801
-2.7193231e-05
-0.04822871
-2.7128204e-05
9.3446117e-06
-0.054340183
-7.0858148e-06
-9.0278248e-06
-0.05434574
-7.154952e-06
7.3367264e-06
-0.054360939
-7.1071018e-06
3.8124388e-07
-0.054344123
-7.1544886e-06
6.9891928e-06
-0.05435228
-7.140484e-06
3.0226654e-06
-0.054344479
-7.1637166e-06
5.5658305e-06
-0.054349428
-7.1525781e-06
2.6213615e-06
-0.054345645
-7.1671027e-06
2.2265483e-06
-0.054348356
-7.1601408e-06
-2.5495407e-12
-0.054347403
-7.1627408e-06
-2.2265427e-06
-0.054347403
-7.1627411e-06
-2.6213399e-06
-0.054348356
-7.1601403e-06
-5.5658168e-06
-0.054345646
-7.1671027e-06
-3.0226652e-06
-0.054349428
-7.1525772e-06
-6.989209e-06
-0.054344479
-7.1637143e-06
-3.8126497e-07
-0.05435228
-7.1404831e-06
-7.3367601e-06
-0.054344123
-7.1544875e-06
9.0277774e-06
-0.054360939
-7.1071008e-06
-9.3446502e-06
-0.05434574
-7.154952e-06
-0.054340183
-7.085809e-06
-3.0021522e-05
-0.0095857374
-4.0952139e-05
-1.2358686e-05
-0.0096366656
-4.1152128e-05
-2.2061073e-05
-0.0096292097
-4.1228597e-05
-1.0191023e-05
-0.0096336847
-4.1148467e-05
-1.6068538e-05
-0.0096263724
-4.1150558e-05
-8.782208e-06
-0.0096307988
-4.1127986e-05
-1.1335515e-05
-0.0096258615
-4.1129794e-05
-5.7425616e-06
-0.0096286543
-4.1117196e-05
-4.3725306e-06
-0.0096263182
-4.1118532e-05
3.1836143e-11
-0.0096272801
-4.1114148e-05
4.3725863e-06
-0.0096272801
-4.1114147e-05
5.7425969e-06
-0.0096263182
-4.1118531e-05
1.1335524e-05
-0.0096286544
-4.1117196e-05
8.7821842e-06
-0.0096258615
-4.1129793e-05
1.6068461e-05
-0.0096307988
-4.1127986e-05
1.0190918e-05
-0.0096263724
-4.1150557e-05
2.2060949e-05
-0.0096336847
-4.1148467e-05
1.235858e-05
-0.0096292096
-4.1228596e-05
3.0021456e-05
-0.0096366655
-4.1152127e-05
-0.0095857373
-4.0952136e-05
4.9713277e-05
9.5366262e-05
4.0340276e-05
9.5890356e-05
3.5961758e-05
9.5779732e-05
2.4308393e-05
9.5795109e-05
1.9986011e-05
9.5754283e-05
1.09454e-05
9.5773367e-05
7.9189173e-06
9.5756179e-05
2.6661828e-06
9.5770329e-05
1.5466525e-06
9.5761507e-05
-5.834592e-11
9.5764779e-05
-1.5467704e-06
9.5764779e-05
-2.6662646e-06
9.5761506e-05
-7.9189577e-06
9.5770328e-05
-1.0945411e-05
9.5756178e-05
-1.9986e-05
9.5773367e-05
-2.4308379e-05
9.5754283e-05
-3.5961753e-05
9.5795109e-05
-4.0340271e-05
9.5779732e-05
-4.9713275e-05
9.5890358e-05
9.5366261e-05
-6.3491366e-05
0.0020346701
-1.1979477e-09
-3.0113317e-06
0.0019094263
-1.2262431e-09
-4.237161e-06
0.0019733435
-1.2338886e-09
-7.4372554e-08
0.0019668384
-1.2391196e-09
-2.0592194e-07
0.0019701357
-1.2413701e-09
4.182856e-07
0.0019674459
-1.2421473e-09
-1.314487e-07
0.0019683183
-1.2434993e-09
-3.7148798e-08
0.0019680947
-1.2437415e-09
-5.0751101e-08
0.0019688287
-1.24439e-09
-3.0178868e-11
0.0019688397
-1.2446978e-09
5.0691149e-08
0.0019688397
-1.2454511e-09
3.7125581e-08
0.0019688287
-1.2458905e-09
1.3144004e-07
0.0019680947
-1.2446216e-09
-4.1827948e-07
0.0019683184
-1.2448148e-09
2.0592943e-07
0.001967446
-1.2407794e-09
7.4383299e-08
0.0019701358
-1.237852e-09
4.2371825e-06
0.0019668385
-1.2325352e-09
3.0113433e-06
0.0019733436
-1.2227805e-09
6.3491336e-05
0.0019094263
-1.2143093e-09
0.00203467
-1.2207885e-09
2.4583525e-05
0.017329643
-1.2752865e-09
-3.5031616e-07
0.017256113
-1.3349263e-09
-3.7178334e-06
0.017297447
-1.3374938e-09
3.169434e-08
0.017284317
-1.3463606e-09
-3.5454429e-07
0.017290661
-1.3478207e-09
4.7124891e-07
0.017285706
-1.3493044e-09
6.7005187e-08
0.017287217
-1.3501089e-09
1.3963808e-07
0.01728683
-1.3503007e-09
7.6641423e-08
0.017287985
-1.3510092e-09
-3.1425167e-11
0.017288057
-1.351183e-09
-7.6687142e-08
0.017288057
-1.3515861e-09
-1.3966914e-07
0.017287985
-1.3518322e-09
-6.7009524e-08
0.01728683
-1.3523937e-09
-4.712358e-07
0.017287217
-1.3507481e-09
3.5455389e-07
0.017285706
-1.3480646e-09
-3.1691878e-08
0.017290661
-1.3426936e-09
3.7178186e-06
0.017284317
-1.339865e-09
3.5025752e-07
0.017297447
-1.3254731e-09
-2.4583602e-05
0.017256114
-1.3265139e-09
0.017329643
-1.1922443e-09
3.0101255e-06
0.032406712
-8.0955789e-10
-4.1183858e-06
0.0323594
-8.2147384e-10
-4.6889203e-06
0.032386637
-8.2382883e-10
-1.5778377e-06
0.032372884
-8.2271549e-10
-1.0906793e-06
0.03238104
-8.2290825e-10
-6.7621819e-08
0.032373971
-8.2225747e-10
-1.3680701e-07
0.03237602
-8.2283381e-10
5.3641222e-08
0.032375137
-8.2261398e-10
-2.7246112e-08
0.032376933
-8.2351879e-10
-2.3685726e-11
0.032377078
-8.2373223e-10
2.720367e-08
0.032377078
-8.2386355e-10
-5.365638e-08
0.032376933
-8.2326031e-10
1.3682235e-07
0.032375137
-8.2308659e-10
6.7649244e-08
0.03237602
-8.2270771e-10
1.0907208e-06
0.032373971
-8.2118109e-10
1.5778673e-06
0.03238104
-8.2009231e-10
4.6889362e-06
0.032372884
-8.2326146e-10
4.118378e-06
0.032386637
-8.3503621e-10
-3.0101513e-06
0.0323594
-8.6057056e-10
0.032406712
-8.538847e-10
1.6981318e-05
0.02863409
-5.3578537e-10
1.5202427e-06
0.028604069
-5.7556442e-10
1.3088627e-06
0.028619645
-5.7851089e-10
-6.9681313e-07
0.02861038
-5.7847964e-10
-6.3817935e-07
0.028616424
-5.7790058e-10
1.1525139e-07
0.028611841
-5.7619536e-10
1.0184796e-06
0.02861373
-5.7578025e-10
1.1194486e-06
0.028612807
-5.7562756e-10
8.2201655e-07
0.028613749
-5.76689e-10
-2.989192e-11
0.028613651
-5.7661688e-10
-8.2206566e-07
0.028613651
-5.7552432e-10
-1.1194739e-06
0.028613749
-5.7368203e-10
-1.0184735e-06
0.028612807
-5.7263911e-10
-1.1521976e-07
0.02861373
-5.7302389e-10
6.3822031e-07
0.028611841
-5.7618832e-10
6.9685466e-07
0.028616424
-5.8078958e-10
-1.3088418e-06
0.02861038
-5.8232296e-10
-1.5202344e-06
0.028619645
-5.7992273e-10
-1.6981309e-05
0.028604069
-5.6819631e-10
0.02863409
-4.8361735e-10
-3.3253376e-06
0.024939611
-5.7513475e-10
-5.7921875e-06
0.024904773
-5.717045e-10
-7.6173107e-06
0.024918978
-5.7135149e-10
-4.6452836e-06
0.024907152
-5.7283663e-10
-4.7569397e-06
0.024916994
-5.7742576e-10
-1.7808087e-06
0.02491266
-5.8107901e-10
-7.2661444e-07
0.024916297
-5.8230018e-10
3.3092246e-07
0.02491341
-5.8237353e-10
1.5763125e-07
0.024913875
-5.8275183e-10
-3.2484022e-12
0.024912915
-5.81136e-10
-1.5762854e-07
0.024912915
-5.7953593e-10
-3.3089926e-07
0.024913875
-5.7780585e-10
7.2667081e-07
0.02491341
-5.7761313e-10
1.7808892e-06
0.024916297
-5.7770368e-10
4.7570259e-06
0.02491266
-5.8062341e-10
4.645338e-06
0.024916994
-5.825156e-10
7.6173288e-06
0.024907152
-5.7625635e-10
5.7921798e-06
0.024918978
-5.65384e-10
3.3253224e-06
0.024904773
-5.5655456e-10
0.024939611
-5.3168044e-10
5.8440314e-06
-0.00031522944
-4.4814461e-10
1.7255894e-06
-0.00033508617
-4.3363365e-10
7.8387365e-06
-0.00033091895
-4.2547165e-10
9.613296e-07
-0.00033463646
-4.2824324e-10
2.4025939e-06
-0.00033416007
-4.3642287e-10
9.7644908e-07
-0.00033233267
-4.3891551e-10
2.7869508e-06
-0.00033377104
-4.4075116e-10
1.7050741e-06
-0.00033373792
-4.4021184e-10
1.4359573e-06
-0.00033521687
-4.3911247e-10
-2.3111576e-11
-0.0003353157
-4.4116516e-10
-1.4359957e-06
-0.00033531569
-4.4097884e-10
-1.7050952e-06
-0.00033521682
-4.372056e-10
-2.7869453e-06
-0.00033373786
-4.3817642e-10
-9.7642657e-07
-0.00033377095
-4.4196149e-10
-2.4025682e-06
-0.00033233261
-4.4156754e-10
-9.6133458e-07
-0.00033416002
-4.366751e-10
-7.838781e-06
-0.00033463642
-4.2619299e-10
-1.7256349e-06
-0.00033091889
-4.1739043e-10
-5.8440551e-06
-0.0003350861
-4.1891403e-10
-0.00031522937
-4.3319516e-10
-1.3061144e-05
-0.048303458
-3.7509554e-10
-8.247223e-06
-0.048346454
-3.7109883e-10
-1.1226033e-05
-0.04833142
-3.7375428e-10
-7.3420822e-06
-0.048341951
-3.7890041e-10
-6.1764896e-06
-0.048336569
-3.8033852e-10
-4.9038862e-06
-0.048339689
-3.7669366e-10
-5.2075684e-06
-0.048337944
-3.7457529e-10
-3.3657143e-06
-0.048339057
-3.7491879e-10
-2.0598955e-06
-0.04833861
-3.7609608e-10
3.5950101e-11
-0.048338883
-3.7790263e-10
2.0599775e-06
-0.048338883
-3.7918993e-10
3.3658107e-06
-0.04833861
-3.7870767e-10
5.207665e-06
-0.048339057
-3.7763751e-10
4.9039837e-06
-0.048337944
-3.7637114e-10
6.1765736e-06
-0.048339689
-3.7375204e-10
7.3421522e-06
-0.048336569
-3.7246204e-10
1.1226077e-05
-0.048341951
-3.7118935e-10
8.2472349e-06
-0.04833142
-3.6941936e-10
1.3061141e-05
-0.048346454
-3.7221391e-10
-0.048303458
-3.7960637e-10
9.3537259e-06
-0.05446221
-1.1504515e-10
-9.0347895e-06
-0.054467921
-1.1543558e-10
7.3410839e-06
-0.054483019
-1.1986789e-10
3.7806272e-07
-0.054466294
-1.2123694e-10
6.9928941e-06
-0.054474386
-1.1885825e-10
3.0229073e-06
-0.054466642
-1.1669635e-10
5.5674056e-06
-0.054471555
-1.1556723e-10
2.6228134e-06
-0.054467807
-1.1663722e-10
2.2278487e-06
-0.054470498
-1.1794192e-10
-2.7080215e-12
-0.054469554
-1.1628069e-10
-2.2278428e-06
-0.054469554
-1.16438e-10
-2.6227917e-06
-0.054470498
-1.1783821e-10
-5.5673921e-06
-0.054467807
-1.1771712e-10
-3.0229071e-06
-0.054471555
-1.1579267e-10
-6.9929089e-06
-0.054466642
-1.1564689e-10
-3.7808597e-07
-0.054474386
-1.1760226e-10
-7.3411196e-06
-0.054466294
-1.2087029e-10
9.0347452e-06
-0.054483019
-1.184273e-10
-9.3537624e-06
-0.054467921
-1.1403728e-10
-0.05446221
-1.112297e-10
-3.0119642e-05
-0.0097927245
-1.775169e-10
-1.2345066e-05
-0.0098436016
-1.7937593e-10
-2.2061532e-05
-0.009836108
-1.8119351e-10
-1.017912e-05
-0.0098406093
-1.8192034e-10
-1.6075105e-05
-0.009833262
-1.8053649e-10
-8.7800379e-06
-0.0098377107
-1.8077058e-10
-1.1339733e-05
-0.0098327518
-1.7987885e-10
-5.7421877e-06
-0.0098355601
-1.8158846e-10
-4.3739599e-06
-0.0098332126
-1.8323461e-10
3.156578e-11
-0.0098341778
-1.8251099e-10
4.3740159e-06
-0.0098341778
-1.8257898e-10
5.7422234e-06
-0.0098332126
-1.8156091e-10
1.1339741e-05
-0.0098355601
-1.7992386e-10
8.7800142e-06
-0.0098327518
-1.7889053e-10
1.6075028e-05
-0.0098377107
-1.7986912e-10
1.0179016e-05
-0.0098332619
-1.7956505e-10
2.2061407e-05
-0.0098406093
-1.8162594e-10
1.234496e-05
-0.0098361079
-1.7897167e-10
3.0119576e-05
-0.0098436016
-1.758887e-10
-0.0097927244
-1.7507432e-10
4.9605098e-05
-7.934458e-11
4.0376132e-05
-7.6880419e-11
3.5954162e-05
-7.6130427e-11
2.4309432e-05
-8.1996661e-11
1.9992397e-05
-8.1875604e-11
1.0949987e-05
-7.998861e-11
7.9239417e-06
-8.0449875e-11
2.6684478e-06
-7.9628014e-11
1.5479284e-06
-7.905987e-11
-5.8543275e-11
-8.0330614e-11
-1.5480467e-06
-7.9744706e-11
-2.6685298e-06
-8.0306393e-11
-7.9239822e-06
-7.9810398e-11
-1.0949998e-05
-7.9473568e-11
-1.9992386e-05
-7.8531078e-11
-2.4309419e-05
-8.1302027e-11
-3.5954156e-05
-7.9691599e-11
-4.0376127e-05
-7.7264678e-11
-4.9605096e-05
-7.7468059e-11
-7.6826428e-11
-6.3491366e-05
0.0020346704
0.0002129069
-3.0113322e-06
0.0019094265
0.00021300539
-4.2371625e-06
0.0019733438
0.00021302454
-7.4373176e-08
0.0019668386
0.00021305067
-2.0592218e-07
0.0019701359
0.00021303556
4.1828548e-07
0.0019674461
0.00021303386
-1.3144878e-07
0.0019683185
0.00021302852
-3.7148913e-08
0.0019680949
0.00021302962
-5.0751295e-08
0.0019688289
0.00021302925
-3.0379128e-11
0.0019688399
0.00021303046
5.0691028e-08
0.0019688399
0.00021303046
3.7125602e-08
0.001968829
0.00021302925
1.314403e-07
0.001968095
0.00021302961
-4.1827872e-07
0.0019683186
0.00021302852
2.0593054e-07
0.0019674462
0.00021303386
7.4384697e-08
0.001970136
0.00021303557
4.2371849e-06
0.0019668387
0.00021305067
3.0113397e-06
0.0019733438
0.00021302455
6.3491327e-05
0.0019094265
0.00021300539
0.0020346703
0.00021290692
2.4583515e-05
0.017329643
-0.00012461591
-3.5032433e-07
0.017256114
-0.00012464837
-3.7178355e-06
0.017297448
-0.00012459143
3.1693148e-08
0.017284318
-0.00012456546
-3.545447e-07
0.017290661
-0.00012457941
4.7124883e-07
0.017285706
-0.00012458189
6.7005052e-08
0.017287217
-0.00012459392
1.3963805e-07
0.01728683
-0.00012459407
7.6641387e-08
0.017287986
-0.00012459606
-3.1509633e-11
0.017288057
-0.00012459411
-7.668735e-08
0.017288057
-0.00012459411
-1.3966929e-07
0.017287986
-0.00012459606
-6.7009104e-08
0.01728683
-0.00012459407
-4.7123494e-07
0.017287217
-0.00012459392
3.5455529e-07
0.017285706
-0.00012458189
-3.1689406e-08
0.017290661
-0.00012457941
3.717821e-06
0.017284318
-0.00012456545
3.5027384e-07
0.017297448
-0.00012459142
-2.4583577e-05
0.017256114
-0.00012464835
0.017329644
-0.00012461583
3.0101249e-06
0.032406712
-5.2267239e-05
-4.1183863e-06
0.0323594
-5.1908778e-05
-4.6889203e-06
0.032386637
-5.21478e-05
-1.5778373e-06
0.032372884
-5.2045904e-05
-1.0906794e-06
0.032381041
-5.2118336e-05
-6.7621864e-08
0.032373971
-5.2120221e-05
-1.3680715e-07
0.03237602
-5.2151534e-05
5.3641274e-08
0.032375137
-5.2149659e-05
-2.7246027e-08
0.032376933
-5.215315e-05
-2.3675579e-11
0.032377078
-5.2147145e-05
2.7203486e-08
0.032377078
-5.2147144e-05
-5.3656493e-08
0.032376933
-5.2153149e-05
1.3682281e-07
0.032375137
-5.2149659e-05
6.7649565e-08
0.03237602
-5.2151533e-05
1.090721e-06
0.032373971
-5.2120219e-05
1.577866e-06
0.032381041
-5.2118333e-05
4.6889316e-06
0.032372884
-5.2045902e-05
4.1183707e-06
0.032386637
-5.2147801e-05
-3.010159e-06
0.0323594
-5.1908805e-05
0.032406713
-5.2267227e-05
1.6981312e-05
0.02863409
-8.1145055e-06
1.52024e-06
0.028604069
-8.5865781e-06
1.3088629e-06
0.028619645
-8.3849436e-06
-6.9681261e-07
0.02861038
-8.5646384e-06
-6.3817967e-07
0.028616424
-8.44849e-06
1.1525138e-07
0.028611841
-8.4443305e-06
1.0184796e-06
0.02861373
-8.3997791e-06
1.1194488e-06
0.028612807
-8.397665e-06
8.2201673e-07
0.028613749
-8.3953264e-06
-2.9648466e-11
0.028613651
-8.4026433e-06
-8.220654e-07
0.028613651
-8.4026428e-06
-1.1194737e-06
0.028613749
-8.3953256e-06
-1.0184736e-06
0.028612807
-8.3976643e-06
-1.1522046e-07
0.02861373
-8.3997787e-06
6.3821957e-07
0.028611841
-8.4443328e-06
6.9685403e-07
0.028616424
-8.4484949e-06
-1.3088407e-06
0.02861038
-8.5646438e-06
-1.5202283e-06
0.028619645
-8.3849473e-06
-1.6981295e-05
0.028604069
-8.5865684e-06
0.02863409
-8.1144663e-06
-3.3253366e-06
0.024939611
1.3016874e-05
-5.7921879e-06
0.024904773
1.2958315e-05
-7.6173117e-06
0.024918978
1.2997833e-05
-4.6452842e-06
0.024907152
1.2961001e-05
-4.7569406e-06
0.024916994
1.2990567e-05
-1.7808093e-06
0.02491266
1.2987727e-05
-7.2661459e-07
0.024916297
1.299981e-05
3.3092305e-07
0.02491341
1.3000048e-05
1.5763192e-07
0.024913875
1.3002387e-05
-2.4825793e-12
0.024912915
1.3001597e-05
-1.5762828e-07
0.024912915
1.3001598e-05
-3.3089922e-07
0.024913875
1.300239e-05
7.266706e-07
0.02491341
1.3000051e-05
1.7808886e-06
0.024916297
1.2999813e-05
4.757026e-06
0.024912661
1.2987726e-05
4.6453394e-06
0.024916994
1.2990563e-05
7.6173317e-06
0.024907152
1.2960998e-05
5.7921839e-06
0.024918978
1.2997838e-05
3.3253275e-06
0.024904773
1.2958327e-05
0.024939611
1.3016912e-05
5.8440335e-06
-0.00031522938
-1.2367931e-05
1.7255896e-06
-0.00033508611
-1.2506686e-05
7.8387354e-06
-0.00033091889
-1.2486873e-05
9.61329e-07
-0.0003346364
-1.2483503e-05
2.4025931e-06
-0.00033416001
-1.2471287e-05
9.7644919e-07
-0.00033233261
-1.2475218e-05
2.7869513e-06
-0.00033377097
-1.2474313e-05
1.7050745e-06
-0.00033373786
-1.2467105e-05
1.4359565e-06
-0.00033521681
-1.246157e-05
-2.2714047e-11
-0.00033531564
-1.2456297e-05
-1.4359952e-06
-0.00033531562
-1.2456296e-05
-1.7050957e-06
-0.00033521676
-1.2461569e-05
-2.7869459e-06
-0.00033373779
-1.2467104e-05
-9.7642693e-07
-0.00033377089
-1.2474314e-05
-2.4025668e-06
-0.00033233254
-1.247522e-05
-9.6133274e-07
-0.00033415996
-1.2471287e-05
-7.8387791e-06
-0.00033463636
-1.2483502e-05
-1.7256348e-06
-0.00033091883
-1.2486867e-05
-5.8440562e-06
-0.00033508605
-1.2506675e-05
-0.00031522931
-1.2367917e-05
-1.3061145e-05
-0.048303458
2.7127662e-05
-8.2472238e-06
-0.048346453
2.7192705e-05
-1.1226034e-05
-0.04833142
2.7170854e-05
-7.3420825e-06
-0.048341951
2.7186146e-05
-6.1764891e-06
-0.048336569
2.7165736e-05
-4.903886e-06
-0.048339689
2.7177064e-05
-5.2075674e-06
-0.048337944
2.7165506e-05
-3.3657142e-06
-0.048339057
2.7153917e-05
-2.0598968e-06
-0.04833861
2.7137905e-05
3.5904161e-11
-0.048338883
2.7128918e-05
2.0599774e-06
-0.048338883
2.7128918e-05
3.365811e-06
-0.04833861
2.7137905e-05
5.2076658e-06
-0.048339057
2.7153916e-05
4.9039842e-06
-0.048337944
2.7165505e-05
6.1765739e-06
-0.048339689
2.7177066e-05
7.3421524e-06
-0.048336569
2.7165742e-05
1.1226077e-05
-0.048341951
2.7186153e-05
8.2472343e-06
-0.04833142
2.7170859e-05
1.3061141e-05
-0.048346454
2.7192709e-05
-0.048303458
2.7127666e-05
9.3537241e-06
-0.05446221
7.0856623e-06
-9.0347903e-06
-0.054467921
7.1547972e-06
7.3410844e-06
-0.054483019
7.106941e-06
3.7806312e-07
-0.054466294
7.154328e-06
6.9928947e-06
-0.054474386
7.1403255e-06
3.0229075e-06
-0.054466642
7.1635621e-06
5.5674061e-06
-0.054471555
7.1524235e-06
2.6228136e-06
-0.054467807
7.1669478e-06
2.2278483e-06
-0.054470498
7.1599852e-06
-2.9706645e-12
-0.054469554
7.1625854e-06
-2.2278428e-06
-0.054469554
7.1625845e-06
-2.6227914e-06
-0.054470498
7.1599839e-06
-5.5673913e-06
-0.054467807
7.1669465e-06
-3.0229067e-06
-0.054471555
7.1524232e-06
-6.9929093e-06
-0.054466642
7.1635628e-06
-3.7808625e-07
-0.054474386
7.1403265e-06
-7.3411201e-06
-0.054466294
7.1543287e-06
9.0347453e-06
-0.054483019
7.1069422e-06
-9.3537618e-06
-0.054467921
7.1547972e-06
-0.05446221
7.0856598e-06
-3.0119642e-05
-0.0097927245
4.0951884e-05
-1.2345067e-05
-0.0098436016
4.1151869e-05
-2.2061532e-05
-0.009836108
4.1228336e-05
-1.017912e-05
-0.0098406093
4.1148206e-05
-1.6075105e-05
-0.0098332619
4.1150298e-05
-8.7800379e-06
-0.0098377107
4.1127727e-05
-1.1339733e-05
-0.0098327518
4.1129534e-05
-5.7421886e-06
-0.0098355601
4.1116936e-05
-4.3739596e-06
-0.0098332126
4.1118269e-05
3.2168118e-11
-0.0098341778
4.1113884e-05
4.3740159e-06
-0.0098341778
4.1113884e-05
5.7422238e-06
-0.0098332126
4.1118269e-05
1.1339741e-05
-0.0098355601
4.1116937e-05
8.780014e-06
-0.0098327518
4.1129536e-05
1.6075028e-05
-0.0098377107
4.1127728e-05
1.0179016e-05
-0.0098332619
4.1150299e-05
2.2061408e-05
-0.0098406093
4.1148207e-05
1.2344961e-05
-0.0098361079
4.1228338e-05
3.0119577e-05
-0.0098436016
4.1151872e-05
-0.0097927244
4.0951884e-05
4.9605094e-05
-9.536637e-05
4.0376133e-05
-9.5890466e-05
3.5954165e-05
-9.5779839e-05
2.4309432e-05
-9.5795221e-05
1.9992397e-05
-9.5754398e-05
1.0949987e-05
-9.5773477e-05
7.9239423e-06
-9.575629e-05
2.668448e-06
-9.5770441e-05
1.5479281e-06
-9.5761617e-05
-5.8524651e-11
-9.576489e-05
-1.5480463e-06
-9.5764889e-05
-2.6685298e-06
-9.5761618e-05
-7.9239821e-06
-9.577044e-05
-1.0949997e-05
-9.5756289e-05
-1.9992385e-05
-9.5773478e-05
-2.4309417e-05
-9.5754396e-05
-3.5954157e-05
-9.5795221e-05
-4.0376129e-05
-9.5779838e-05
-4.9605096e-05
-9.5890465e-05
-9.5366368e-05
-6.3404036e-05
0.0024625297
-3.0070096e-06
0.0023379841
-4.2307644e-06
0.0024016862
-7.4851688e-08
0.0023952112
-2.0516656e-07
0.0023984859
4.1803098e-07
0.0023957993
-1.3070143e-07
0.0023966589
-3.6995515e-08
0.0023964363
-5.0521191e-08
0.0023971672
-3.048183e-11
0.0023971802
5.0460684e-08
0.0023971802
3.6972129e-08
0.0023971672
1.3069258e-07
0.0023964363
-4.1802393e-07
0.002396659
2.0517586e-07
0.0023957994
7.4864031e-08
0.0023984861
4.2307872e-06
0.0023952113
3.0070194e-06
0.0024016862
6.3404006e-05
0.0023379841
0.0024625296
2.4564033e-05
0.01747989
-3.3560186e-07
0.017406491
-3.7040098e-06
0.01744776
3.0295866e-08
0.017434619
-3.5803165e-07
0.017440965
4.6857088e-07
0.01743601
6.5791011e-08
0.017437522
1.3970639e-07
0.017437135
7.6928389e-08
0.01743829
-3.1571737e-11
0.017438361
-7.6974373e-08
0.017438361
-1.3973756e-07
0.01743829
-6.5794814e-08
0.017437135
-4.685565e-07
0.017437522
3.5804282e-07
0.01743601
-3.0290706e-08
0.017440965
3.703998e-06
0.01743462
3.3555948e-07
0.01744776
-2.4564086e-05
0.017406492
0.01747989
3.0536219e-06
0.032452284
-4.1261064e-06
0.032404707
-4.691896e-06
0.032432029
-1.5832999e-06
0.032418183
-1.0970281e-06
0.032426408
-7.1487521e-08
0.032419345
-1.3860367e-07
0.032421427
5.4140714e-08
0.032420544
-2.5901457e-08
0.032422342
-2.3605684e-11
0.032422481
2.5858836e-08
0.032422481
-5.4155699e-08
0.032422342
1.3861954e-07
0.032420544
7.1515667e-08
0.032421428
1.0970698e-06
0.032419346
1.5833286e-06
0.032426408
4.6919055e-06
0.032418184
4.1260938e-06
0.032432029
-3.0536457e-06
0.032404708
0.032452284
1.6866362e-05
0.028670139
1.5011668e-06
0.028640127
1.295163e-06
0.028655717
-6.8562573e-07
0.028646465
-6.2563884e-07
0.028652504
1.2546828e-07
0.028647924
1.0192787e-06
0.028649814
1.1199627e-06
0.028648892
8.1855779e-07
0.028649835
-2.9714953e-11
0.028649736
-8.1860605e-07
0.028649736
-1.1199878e-06
0.028649835
-1.0192729e-06
0.028648892
-1.2543745e-07
0.028649814
6.2567856e-07
0.028647924
6.8566731e-07
0.028652505
-1.2951393e-06
0.028646465
-1.5011508e-06
0.028655717
-1.6866339e-05
0.028640127
0.028670139
-3.3370173e-06
0.024990414
-5.7963008e-06
0.024955792
-7.6106098e-06
0.024969933
-4.6418673e-06
0.024958174
-4.7493473e-06
0.024967968
-1.7768293e-06
0.024963647
-7.233587e-07
0.024967266
3.3195539e-07
0.024964384
1.5798742e-07
0.024964846
-2.2991692e-12
0.024963888
-1.5798348e-07
0.024963888
-3.3193144e-07
0.024964846
7.2341432e-07
0.024964384
1.7769076e-06
0.024967266
4.7494319e-06
0.024963647
4.6419231e-06
0.024967968
7.610632e-06
0.024958174
5.7963004e-06
0.024969933
3.3370139e-06
0.024955792
0.024990414
5.8059779e-06
-0.00027668703
1.7146585e-06
-0.00029649937
7.8402633e-06
-0.00029236157
9.6314839e-07
-0.00029605198
2.3990213e-06
-0.00029559346
9.7571627e-07
-0.00029375527
2.78806e-06
-0.00029520111
1.7083606e-06
-0.00029516662
1.4379791e-06
-0.00029665059
-2.2495036e-11
-0.00029675038
-1.4380172e-06
-0.00029675037
-1.7083821e-06
-0.00029665054
-2.7880552e-06
-0.00029516655
-9.7569443e-07
-0.00029520102
-2.398995e-06
-0.0002937552
-9.631512e-07
-0.0002955934
-7.8403051e-06
-0.00029605194
-1.7147024e-06
-0.00029236151
-5.8059998e-06
-0.0002964993
-0.00027668697
-1.3038734e-05
-0.04822871
-8.2347157e-06
-0.048271801
-1.1225617e-05
-0.048256816
-7.3432249e-06
-0.048267311
-6.1740245e-06
-0.048261946
-4.9046873e-06
-0.048265046
-5.2118848e-06
-0.048263309
-3.3717833e-06
-0.048264413
-2.0637041e-06
-0.048263974
3.580696e-11
-0.048264246
2.0637855e-06
-0.048264246
3.3718794e-06
-0.048263974
5.2119827e-06
-0.048264413
4.9047868e-06
-0.048263309
6.1741101e-06
-0.048265046
7.3432959e-06
-0.048261946
1.1225661e-05
-0.048267311
8.2347256e-06
-0.048256816
1.303873e-05
-0.048271801
-0.04822871
9.3446105e-06
-0.054340183
-9.0278262e-06
-0.05434574
7.3367249e-06
-0.054360939
3.8124437e-07
-0.054344123
6.989195e-06
-0.05435228
3.0226659e-06
-0.054344479
5.5658301e-06
-0.054349428
2.6213614e-06
-0.054345645
2.2265481e-06
-0.054348356
-2.8960387e-12
-0.054347403
-2.2265427e-06
-0.054347403
-2.6213396e-06
-0.054348356
-5.5658156e-06
-0.054345645
-3.0226649e-06
-0.054349428
-6.9892095e-06
-0.054344479
-3.8126747e-07
-0.05435228
-7.3367605e-06
-0.054344123
9.0277808e-06
-0.054360939
-9.3446484e-06
-0.05434574
-0.054340183
-3.0021523e-05
-0.0095857373
-1.2358687e-05
-0.0096366655
-2.2061074e-05
-0.0096292097
-1.0191023e-05
-0.0096336847
-1.6068538e-05
-0.0096263724
-8.7822081e-06
-0.0096307988
-1.1335516e-05
-0.0096258614
-5.7425624e-06
-0.0096286543
-4.3725307e-06
-0.0096263182
3.2030429e-11
-0.0096272801
4.3725872e-06
-0.0096272801
5.7425978e-06
-0.0096263182
1.1335524e-05
-0.0096286543
8.7821842e-06
-0.0096258615
1.6068461e-05
-0.0096307988
1.0190918e-05
-0.0096263723
2.206095e-05
-0.0096336847
1.2358581e-05
-0.0096292096
3.0021457e-05
-0.0096366655
-0.0095857373
4.9713277e-05
4.0340276e-05
3.596176e-05
2.4308392e-05
1.9986007e-05
1.0945401e-05
7.9189188e-06
2.666183e-06
1.5466526e-06
-5.852652e-11
-1.5467694e-06
-2.6662659e-06
-7.9189587e-06
-1.094541e-05
-1.9985998e-05
-2.4308378e-05
-3.5961754e-05
-4.0340272e-05
-4.9713275e-05
)
;

boundaryField
{
    left
    {
        type            calculated;
        value           uniform 0;
    }
    right
    {
        type            calculated;
        value           uniform 0;
    }
    walls
    {
        type            calculated;
        value           uniform 0;
    }
    centreline
    {
        type            calculated;
        value           nonuniform List<scalar> 
80
(
-0.013578351
-0.013578493