/*--------------------------------*- C++ -*----------------------------------*\
  =========                 |
  \\      /  F ield         | OpenFOAM: The Open Source CFD Toolbox
   \\    /   O peration     | Website:  https://openfoam.org
    \\  /    A nd           | Version:  8
     \\/     M anipulation  |
\*---------------------------------------------------------------------------*/
FoamFile
{
    version     2.0;
    format      ascii;
    class       volVectorField;
    location    "1";
    object      U;
}
// * * * * * * * * * * * * * * * * * * * * * * * * * * * * * * * * * * * * * //

dimensions      [0 1 -1 0 0 0 0];

internalField   nonuniform List<vector> 
800
(
(-0.00075360006 3.8624158 -0.0015045325)
(2.4747076e-05 3.8629229 -0.001505139)
(-5.806148e-05 3.8630905 -0.0015051941)
(1.2059524e-05 3.8630949 -0.0015052132)
(-1.3247361e-05 3.8630932 -0.0015052025)
(1.0644799e-05 3.8630997 -0.0015052021)
(-6.5047972e-06 3.8630933 -0.0015052008)
(5.4061602e-06 3.863101 -0.0015052035)
(-6.0496602e-06 3.8630975 -0.001505203)
(5.7433045e-06 3.8631008 -0.0015052041)
(-5.7436363e-06 3.8631008 -0.0015052041)
(6.0494544e-06 3.8630975 -0.001505203)
(-5.4062695e-06 3.863101 -0.0015052035)
(6.5048108e-06 3.8630933 -0.0015052008)
(-1.0644751e-05 3.8630997 -0.0015052021)
(1.3247401e-05 3.8630932 -0.0015052025)
(-1.2059426e-05 3.8630949 -0.0015052132)
(5.8061565e-05 3.8630905 -0.0015051941)
(-2.4747018e-05 3.8629229 -0.001505139)
(0.00075360006 3.8624158 -0.0015045326)
(0.00019150718 -4.4961988 0.00033610802)
(5.4002168e-05 -4.4975079 0.00033634142)
(-5.609714e-05 -4.4973361 0.00033615455)
(1.6279608e-05 -4.4973799 0.00033610299)
(-1.572718e-05 -4.4973584 0.00033614218)
(1.1500521e-05 -4.4973817 0.00033615012)
(-7.0920763e-06 -4.4973691 0.00033617644)
(7.8684673e-06 -4.4973794 0.00033617626)
(-6.7021303e-06 -4.4973711 0.00033617951)
(7.7652901e-06 -4.497375 0.00033617499)
(-7.7656168e-06 -4.497375 0.00033617499)
(6.7019242e-06 -4.4973711 0.00033617951)
(-7.8685563e-06 -4.4973794 0.00033617626)
(7.0921211e-06 -4.4973691 0.00033617644)
(-1.150044e-05 -4.4973817 0.00033615012)
(1.5727205e-05 -4.4973584 0.00033614218)
(-1.627962e-05 -4.4973799 0.00033610299)
(5.6097003e-05 -4.4973361 0.00033615455)
(-5.4002535e-05 -4.4975079 0.00033634141)
(-0.00019150748 -4.4961988 0.00033610801)
(4.0704673e-05 5.3779002 9.8920337e-05)
(-9.9931343e-06 5.3789481 9.8316696e-05)
(-3.1457744e-05 5.3790161 9.8737647e-05)
(-4.8074068e-06 5.3789846 9.8587615e-05)
(-1.17076e-05 5.3789991 9.8691713e-05)
(3.6641046e-06 5.3789945 9.869625e-05)
(-4.7331178e-06 5.3789895 9.8742435e-05)
(3.9179119e-06 5.378999 9.8739082e-05)
(-3.5966854e-06 5.378997 9.8743364e-05)
(3.5018461e-06 5.3790018 9.8733395e-05)
(-3.502047e-06 5.3790018 9.8733395e-05)
(3.5965801e-06 5.378997 9.8743364e-05)
(-3.9179216e-06 5.378999 9.8739082e-05)
(4.7332479e-06 5.3789895 9.8742433e-05)
(-3.6639225e-06 5.3789945 9.8696252e-05)
(1.1707765e-05 5.3789991 9.8691712e-05)
(4.8075326e-06 5.3789846 9.8587614e-05)
(3.145777e-05 5.3790161 9.8737635e-05)
(9.993057e-06 5.3789481 9.8316668e-05)
(-4.0704799e-05 5.3779002 9.8920287e-05)
(9.5697961e-05 -6.1268812 2.618586e-05)
(1.9327118e-05 -6.1283717 2.6947025e-05)
(-3.2124388e-06 -6.1282962 2.6656406e-05)
(9.2626372e-06 -6.1283408 2.6916566e-05)
(-1.2383797e-05 -6.1283097 2.6751259e-05)
(6.7620259e-06 -6.1283439 2.6735425e-05)
(-5.5421563e-06 -6.1283259 2.6673322e-05)
(1.3528445e-05 -6.1283417 2.6668934e-05)
(-5.6680598e-06 -6.1283296 2.6668285e-05)
(1.180325e-05 -6.1283344 2.6679713e-05)
(-1.1803477e-05 -6.1283344 2.6679713e-05)
(5.6679233e-06 -6.1283296 2.6668288e-05)
(-1.3528495e-05 -6.1283417 2.6668938e-05)
(5.5422548e-06 -6.1283259 2.6673325e-05)
(-6.7618606e-06 -6.1283439 2.6735429e-05)
(1.2383956e-05 -6.1283097 2.6751262e-05)
(-9.2625247e-06 -6.1283408 2.6916566e-05)
(3.2124541e-06 -6.1282962 2.6656405e-05)
(-1.9327074e-05 -6.1283717 2.6947024e-05)
(-9.5697914e-05 -6.1268812 2.6185885e-05)
(-8.2063261e-07 7.3714091 -3.1866869e-05)
(-1.5017462e-05 7.3729559 -3.1729412e-05)
(-2.9184981e-05 7.372967 -3.1819662e-05)
(-1.5397158e-05 7.3729617 -3.1754438e-05)
(-1.8249472e-05 7.3729632 -3.1805358e-05)
(-9.1683912e-06 7.3729738 -3.1804001e-05)
(-3.5905899e-06 7.3729649 -3.1825384e-05)
(-4.108893e-07 7.3729771 -3.1826342e-05)
(2.1466494e-06 7.372969 -3.1829934e-05)
(-1.3009466e-06 7.3729737 -3.182801e-05)
(1.3009279e-06 7.3729737 -3.1828009e-05)
(-2.1466185e-06 7.372969 -3.1829931e-05)
(4.1099833e-07 7.3729771 -3.1826338e-05)
(3.5908291e-06 7.3729649 -3.1825385e-05)
(9.1686903e-06 7.3729738 -3.1804001e-05)
(1.8249709e-05 7.3729632 -3.1805357e-05)
(1.5397298e-05 7.3729617 -3.1754441e-05)
(2.9184951e-05 7.372967 -3.1819671e-05)
(1.5017412e-05 7.3729559 -3.1729405e-05)
(8.2057943e-07 7.3714091 -3.1866843e-05)
(4.1783571e-05 -8.5090199 2.7975325e-05)
(-1.3821372e-05 -8.5110058 2.8185885e-05)
(2.7154063e-05 -8.5109424 2.8154196e-05)
(8.9099231e-06 -8.511 2.8137115e-05)
(-9.2755747e-07 -8.5109497 2.8124717e-05)
(1.1178115e-05 -8.510986 2.8135748e-05)
(-4.3309226e-06 -8.5109567 2.8138064e-05)
(1.9870318e-05 -8.5109852 2.8126584e-05)
(-1.0741199e-05 -8.5109733 2.8116747e-05)
(1.8672138e-05 -8.5109833 2.8107223e-05)
(-1.8672267e-05 -8.5109833 2.8107225e-05)
(1.0741125e-05 -8.5109733 2.811675e-05)
(-1.9870358e-05 -8.5109852 2.8126586e-05)
(4.3309786e-06 -8.5109567 2.8138068e-05)
(-1.1178031e-05 -8.510986 2.813575e-05)
(9.2759291e-07 -8.5109497 2.8124714e-05)
(-8.909988e-06 -8.511 2.8137121e-05)
(-2.715424e-05 -8.5109424 2.8154206e-05)
(1.3821249e-05 -8.5110058 2.8185893e-05)
(-4.1783595e-05 -8.5090199 2.7975331e-05)
(-4.4997329e-05 9.9594727 -4.1191968e-05)
(-1.4396964e-05 9.9616751 -4.1314412e-05)
(-2.8326676e-05 9.9616231 -4.1276605e-05)
(-2.1288992e-05 9.9616713 -4.1285423e-05)
(-1.4584833e-05 9.9616141 -4.1261977e-05)
(-1.5472429e-05 9.9616683 -4.1277337e-05)
(-7.1513115e-06 9.9616251 -4.1264585e-05)
(-1.8795274e-05 9.9616582 -4.1249291e-05)
(3.6976625e-06 9.9616355 -4.1229704e-05)
(-1.3300665e-05 9.9616467 -4.1218673e-05)
(1.3300843e-05 9.9616467 -4.1218672e-05)
(-3.6974498e-06 9.9616355 -4.1229706e-05)
(1.8795506e-05 9.9616582 -4.1249294e-05)
(7.1515505e-06 9.9616251 -4.1264586e-05)
(1.5472648e-05 9.9616683 -4.1277336e-05)
(1.4585001e-05 9.9616141 -4.1261978e-05)
(2.1289155e-05 9.9616713 -4.1285421e-05)
(2.8326726e-05 9.9616231 -4.1276602e-05)
(1.4396985e-05 9.9616751 -4.1314415e-05)
(4.4997297e-05 9.9594727 -4.1191981e-05)
(9.5152866e-05 -11.988775 -1.0129613e-06)
(-5.891084e-05 -11.991618 -1.0892248e-06)
(2.3826813e-05 -11.99146 -1.0379032e-06)
(5.0783784e-06 -11.991585 -1.0948007e-06)
(-3.0585508e-06 -11.991483 -1.0781426e-06)
(3.1165601e-05 -11.991567 -1.1038829e-06)
(-1.8738357e-05 -11.991505 -1.0895245e-06)
(4.1303724e-05 -11.99155 -1.1041593e-06)
(-3.041783e-05 -11.991521 -1.0951459e-06)
(3.9793031e-05 -11.991535 -1.0973589e-06)
(-3.9793041e-05 -11.991535 -1.0973527e-06)
(3.0417874e-05 -11.991521 -1.095153e-06)
(-4.1303693e-05 -11.99155 -1.104159e-06)
(1.8738388e-05 -11.991505 -1.0895247e-06)
(-3.116563e-05 -11.991567 -1.1038775e-06)
(3.0585116e-06 -11.991483 -1.0781396e-06)
(-5.078438e-06 -11.991585 -1.0947967e-06)
(-2.3826893e-05 -11.99146 -1.0379004e-06)
(5.8910732e-05 -11.991618 -1.0892264e-06)
(-9.5152901e-05 -11.988775 -1.0129547e-06)
(-0.00011044419 13.787944 -4.6534577e-05)
(4.6060297e-06 13.791235 -4.6553932e-05)
(-4.9662806e-05 13.79098 -4.660827e-05)
(-2.3273904e-05 13.791204 -4.6522408e-05)
(-1.5403384e-05 13.791047 -4.653298e-05)
(-3.7773821e-05 13.79118 -4.650825e-05)
(5.1954431e-06 13.791085 -4.6515865e-05)
(-4.291112e-05 13.791155 -4.6503705e-05)
(2.1719565e-05 13.791108 -4.6508186e-05)
(-3.6379102e-05 13.79113 -4.6504772e-05)
(3.6379213e-05 13.79113 -4.6504771e-05)
(-2.1719486e-05 13.791108 -4.6508185e-05)
(4.2911167e-05 13.791155 -4.6503705e-05)
(-5.195457e-06 13.791085 -4.6515864e-05)
(3.7773747e-05 13.79118 -4.6508251e-05)
(1.54032e-05 13.791047 -4.6532978e-05)
(2.3273712e-05 13.791204 -4.6522411e-05)
(4.9662571e-05 13.79098 -4.660827e-05)
(-4.6061689e-06 13.791235 -4.6553931e-05)
(0.00011044411 13.787944 -4.6534575e-05)
(-3.03082e-05 -16.201849 -0.00092361681)
(0.00017528167 -16.205923 -0.00092374361)
(-4.7460912e-05 -16.205586 -0.00092382426)
(0.00014827331 -16.205869 -0.00092383419)
(-6.9559051e-05 -16.205646 -0.00092384851)
(0.0001246438 -16.205825 -0.00092384609)
(-8.8065627e-05 -16.205686 -0.00092384943)
(0.00010884821 -16.205783 -0.00092384611)
(-9.9202855e-05 -16.205716 -0.00092384798)
(0.00010291337 -16.205746 -0.00092384769)
(-0.00010291353 -16.205746 -0.00092384769)
(9.9202686e-05 -16.205716 -0.00092384798)
(-0.0001088483 -16.205783 -0.00092384612)
(8.8065603e-05 -16.205686 -0.00092384943)
(-0.00012464381 -16.205825 -0.00092384609)
(6.9559104e-05 -16.205646 -0.00092384851)
(-0.00014827333 -16.205869 -0.00092383418)
(4.746095e-05 -16.205586 -0.00092382427)
(-0.00017528169 -16.205923 -0.0009237436)
(3.0308227e-05 -16.201849 -0.0009236168)
(-0.00075466888 3.8644853 0.00028654825)
(2.4717184e-05 3.8649915 0.00028646444)
(-5.809567e-05 3.8651596 0.00028649859)
(1.2062087e-05 3.8651639 0.00028647616)
(-1.325248e-05 3.8651623 0.00028648918)
(1.0650273e-05 3.8651688 0.00028649229)
(-6.5127898e-06 3.8651624 0.0002864916)
(5.4096532e-06 3.8651701 0.00028649135)
(-6.0558839e-06 3.8651666 0.00028649029)
(5.7479535e-06 3.8651699 0.00028649013)
(-5.7482863e-06 3.8651699 0.00028649013)
(6.0556778e-06 3.8651666 0.00028649029)
(-5.409762e-06 3.8651701 0.00028649135)
(6.5128049e-06 3.8651624 0.0002864916)
(-1.0650222e-05 3.8651688 0.00028649229)
(1.3252521e-05 3.8651623 0.00028648919)
(-1.2061986e-05 3.8651639 0.00028647617)
(5.809576e-05 3.8651596 0.00028649861)
(-2.4717177e-05 3.8649915 0.00028646448)
(0.00075466882 3.8644853 0.00028654809)
(0.00019180959 -4.5010691 0.00031918606)
(5.3999726e-05 -4.5023812 0.00031932726)
(-5.6229679e-05 -4.5022087 0.0003191701)
(1.6281478e-05 -4.5022527 0.00031911567)
(-1.5715497e-05 -4.5022311 0.00031915693)
(1.152291e-05 -4.5022544 0.00031916423)
(-7.0868729e-06 -4.5022418 0.00031919103)
(7.8751191e-06 -4.502252 0.0003191906)
(-6.7092337e-06 -4.5022438 0.00031919397)
(7.7687278e-06 -4.5022476 0.00031918939)
(-7.7690557e-06 -4.5022476 0.00031918939)
(6.709028e-06 -4.5022438 0.00031919397)
(-7.8752094e-06 -4.502252 0.0003191906)
(7.0869182e-06 -4.5022418 0.00031919102)
(-1.1522828e-05 -4.5022544 0.00031916423)
(1.5715523e-05 -4.5022311 0.00031915694)
(-1.6281489e-05 -4.5022527 0.00031911569)
(5.6229536e-05 -4.5022087 0.00031917012)
(-5.4000099e-05 -4.5023812 0.00031932726)
(-0.00019180989 -4.5010691 0.00031918621)
(4.0452467e-05 5.3825762 0.00011306466)
(-1.0094337e-05 5.3836263 0.00011245511)
(-3.1344924e-05 5.3836943 0.00011287422)
(-4.8284202e-06 5.383663 0.00011272443)
(-1.1664902e-05 5.3836773 0.00011282829)
(3.6911769e-06 5.3836727 0.00011283277)
(-4.7183323e-06 5.3836676 0.00011287896)
(3.9207761e-06 5.3836771 0.00011287562)
(-3.60392e-06 5.3836751 0.00011287995)
(3.500055e-06 5.38368 0.00011286998)
(-3.5002564e-06 5.38368 0.00011286998)
(3.6038152e-06 5.3836751 0.00011287995)
(-3.9207863e-06 5.3836771 0.00011287562)
(4.7184618e-06 5.3836676 0.00011287897)
(-3.6909938e-06 5.3836727 0.00011283277)
(1.1665066e-05 5.3836773 0.00011282829)
(4.8285377e-06 5.383663 0.00011272442)
(3.134494e-05 5.3836943 0.00011287419)
(1.0094243e-05 5.3836263 0.00011245503)
(-4.0452601e-05 5.3825762 0.00011306451)
(9.6122856e-05 -6.132565 9.7798491e-06)
(1.9553365e-05 -6.1340569 1.0522458e-05)
(-3.2213987e-06 -6.1339816 1.0233264e-05)
(9.3152618e-06 -6.1340261 1.0493005e-05)
(-1.2478916e-05 -6.1339951 1.032803e-05)
(6.7296943e-06 -6.1340293 1.0312144e-05)
(-5.5823467e-06 -6.1340114 1.0250122e-05)
(1.3533227e-05 -6.1340272 1.0245659e-05)
(-5.6703937e-06 -6.1340151 1.024502e-05)
(1.1816721e-05 -6.1340198 1.0256423e-05)
(-1.1816946e-05 -6.1340198 1.0256425e-05)
(5.6702589e-06 -6.1340151 1.0245028e-05)
(-1.353328e-05 -6.1340272 1.0245666e-05)
(5.5824461e-06 -6.1340114 1.0250129e-05)
(-6.7295295e-06 -6.1340293 1.0312145e-05)
(1.2479073e-05 -6.1339951 1.0328029e-05)
(-9.3151517e-06 -6.1340261 1.0493002e-05)
(3.2214157e-06 -6.1339816 1.0233263e-05)
(-1.9553312e-05 -6.1340569 1.0522462e-05)
(-9.6122795e-05 -6.132565 9.7799269e-06)
(-7.4485666e-07 7.3777889 -1.5068769e-05)
(-1.4999482e-05 7.3793374 -1.4928505e-05)
(-2.9211365e-05 7.3793486 -1.5019511e-05)
(-1.5392727e-05 7.3793431 -1.4953998e-05)
(-1.8283656e-05 7.3793448 -1.5005074e-05)
(-9.180451e-06 7.3793554 -1.5003703e-05)
(-3.6065138e-06 7.3793465 -1.5025073e-05)
(-4.1434203e-07 7.3793587 -1.5026051e-05)
(2.14385e-06 7.3793507 -1.5029658e-05)
(-1.2998736e-06 7.3793553 -1.5027748e-05)
(1.2998556e-06 7.3793553 -1.5027746e-05)
(-2.1438165e-06 7.3793507 -1.502965e-05)
(4.1444711e-07 7.3793587 -1.5026043e-05)
(3.606754e-06 7.3793465 -1.5025066e-05)
(9.1807479e-06 7.3793554 -1.5003706e-05)
(1.8283892e-05 7.3793448 -1.5005082e-05)
(1.5392864e-05 7.3793431 -1.4954004e-05)
(2.9211346e-05 7.3793486 -1.5019499e-05)
(1.4999442e-05 7.3793374 -1.4928483e-05)
(7.4481316e-07 7.3777889 -1.5068701e-05)
(4.1921411e-05 -8.5167115 1.1728781e-05)
(-1.3747612e-05 -8.5187005 1.1924884e-05)
(2.7149453e-05 -8.5186369 1.1894063e-05)
(8.8982807e-06 -8.5186946 1.1876457e-05)
(-9.2584767e-07 -8.5186442 1.1864306e-05)
(1.1194921e-05 -8.5186805 1.1875306e-05)
(-4.3422063e-06 -8.5186512 1.1877643e-05)
(1.9872567e-05 -8.5186797 1.1866273e-05)
(-1.0762044e-05 -8.5186678 1.1856436e-05)
(1.8680286e-05 -8.5186778 1.1846914e-05)
(-1.8680415e-05 -8.5186778 1.1846915e-05)
(1.0761973e-05 -8.5186678 1.1856438e-05)
(-1.9872609e-05 -8.5186797 1.1866277e-05)
(4.3422619e-06 -8.5186512 1.1877644e-05)
(-1.1194837e-05 -8.5186805 1.1875303e-05)
(9.2588369e-07 -8.5186442 1.1864304e-05)
(-8.8983445e-06 -8.5186946 1.187646e-05)
(-2.7149622e-05 -8.5186369 1.1894074e-05)
(1.3747486e-05 -8.5187005 1.1924903e-05)
(-4.1921436e-05 -8.5167115 1.1728798e-05)
(-4.5083848e-05 9.9682158 -2.4988078e-05)
(-1.4438494e-05 9.9704215 -2.5098618e-05)
(-2.8326039e-05 9.9703694 -2.5061243e-05)
(-2.1289174e-05 9.9704176 -2.5069845e-05)
(-1.458826e-05 9.9703604 -2.50465e-05)
(-1.5482031e-05 9.9704146 -2.5061865e-05)
(-7.1385729e-06 9.9703714 -2.5049113e-05)
(-1.8785724e-05 9.9704045 -2.5033872e-05)
(3.7163903e-06 9.9703819 -2.5014256e-05)
(-1.3301398e-05 9.970393 -2.5003221e-05)
(1.3301574e-05 9.970393 -2.5003223e-05)
(-3.716178e-06 9.9703819 -2.5014259e-05)
(1.8785957e-05 9.9704045 -2.5033876e-05)
(7.1388116e-06 9.9703714 -2.5049116e-05)
(1.5482252e-05 9.9704146 -2.5061862e-05)
(1.458843e-05 9.9703604 -2.5046493e-05)
(2.1289335e-05 9.9704176 -2.5069838e-05)
(2.8326087e-05 9.9703694 -2.5061239e-05)
(1.443851e-05 9.9704215 -2.5098623e-05)
(4.5083812e-05 9.9682158 -2.4988092e-05)
(9.5199839e-05 -11.999437 -1.7670508e-05)
(-5.8955244e-05 -12.002283 -1.7772872e-05)
(2.3850998e-05 -12.002124 -1.7722666e-05)
(5.0714465e-06 -12.00225 -1.7779002e-05)
(-3.0646656e-06 -12.002148 -1.7762567e-05)
(3.1184032e-05 -12.002231 -1.7788251e-05)
(-1.8754106e-05 -12.002169 -1.7773849e-05)
(4.1327896e-05 -12.002215 -1.778858e-05)
(-3.0437117e-05 -12.002185 -1.777951e-05)
(3.9818066e-05 -12.0022 -1.7781754e-05)
(-3.9818076e-05 -12.0022 -1.7781761e-05)
(3.0437162e-05 -12.002185 -1.7779502e-05)
(-4.1327866e-05 -12.002215 -1.778858e-05)
(1.8754137e-05 -12.002169 -1.7773847e-05)
(-3.1184061e-05 -12.002231 -1.7788251e-05)
(3.0646325e-06 -12.002148 -1.7762568e-05)
(-5.0715219e-06 -12.00225 -1.7779004e-05)
(-2.385107e-05 -12.002124 -1.7722667e-05)
(5.895514e-05 -12.002283 -1.7772871e-05)
(-9.519987e-05 -11.999437 -1.7670502e-05)
(-0.0001105242 13.799824 -2.081251e-05)
(4.5982663e-06 13.803118 -2.0794324e-05)
(-4.9677916e-05 13.802863 -2.0848289e-05)
(-2.3245696e-05 13.803087 -2.0761768e-05)
(-1.5403592e-05 13.802931 -2.0773683e-05)
(-3.778345e-05 13.803064 -2.0747707e-05)
(5.2041509e-06 13.802969 -2.0756634e-05)
(-4.2927633e-05 13.803039 -2.0743538e-05)
(2.1733481e-05 13.802992 -2.0748752e-05)
(-3.6396264e-05 13.803014 -2.0745012e-05)
(3.6396373e-05 13.803014 -2.0745011e-05)
(-2.17334e-05 13.802992 -2.074875e-05)
(4.292768e-05 13.803039 -2.0743537e-05)
(-5.2041648e-06 13.802969 -2.0756633e-05)
(3.7783376e-05 13.803064 -2.0747705e-05)
(1.5403408e-05 13.802931 -2.0773682e-05)
(2.3245503e-05 13.803087 -2.0761764e-05)
(4.967768e-05 13.802863 -2.0848287e-05)
(-4.5984045e-06 13.803118 -2.0794321e-05)
(0.00011052411 13.799824 -2.0812506e-05)
(-3.0999242e-05 -16.216691 0.0010646113)
(0.00017553447 -16.22077 0.0010652035)
(-4.7563046e-05 -16.220433 0.0010650953)
(0.00014834711 -16.220717 0.0010651069)
(-6.9621231e-05 -16.220494 0.0010650755)
(0.00012471929 -16.220673 0.001065091)
(-8.8123377e-05 -16.220534 0.0010650776)
(0.00010891782 -16.220631 0.001065088)
(-9.9263971e-05 -16.220563 0.0010650815)
(0.00010297744 -16.220594 0.0010650841)
(-0.0001029776 -16.220594 0.0010650841)
(9.9263802e-05 -16.220563 0.0010650815)
(-0.00010891791 -16.220631 0.001065088)
(8.8123353e-05 -16.220534 0.0010650776)
(-0.0001247193 -16.220673 0.001065091)
(6.9621282e-05 -16.220494 0.0010650755)
(-0.00014834713 -16.220717 0.0010651069)
(4.7563084e-05 -16.220433 0.0010650953)
(-0.0001755345 -16.22077 0.0010652035)
(3.0999273e-05 -16.216691 0.0010646113)
(-0.00075466887 3.8644853 -0.00028655492)
(2.4717184e-05 3.8649915 -0.00028647126)
(-5.8095678e-05 3.8651596 -0.00028650545)
(1.2062081e-05 3.8651639 -0.00028648304)
(-1.3252482e-05 3.8651623 -0.00028649608)
(1.0650272e-05 3.8651688 -0.00028649919)
(-6.5127901e-06 3.8651624 -0.00028649852)
(5.4096525e-06 3.8651701 -0.00028649827)
(-6.0558847e-06 3.8651666 -0.00028649721)
(5.7479525e-06 3.8651699 -0.00028649705)
(-5.7482873e-06 3.8651699 -0.00028649705)
(6.0556777e-06 3.8651666 -0.00028649721)
(-5.4097618e-06 3.8651701 -0.00028649827)
(6.5128072e-06 3.8651624 -0.00028649852)
(-1.0650216e-05 3.8651688 -0.00028649919)
(1.3252529e-05 3.8651623 -0.00028649607)
(-1.2061975e-05 3.8651639 -0.00028648303)
(5.8095773e-05 3.8651596 -0.00028650541)
(-2.4717223e-05 3.8649915 -0.00028647124)
(0.00075466877 3.8644853 -0.00028655492)
(0.00019180954 -4.5010691 -0.0003191925)
(5.3999669e-05 -4.5023812 -0.00031933402)
(-5.6229691e-05 -4.5022087 -0.00031917687)
(1.6281472e-05 -4.5022527 -0.00031912249)
(-1.5715502e-05 -4.5022311 -0.00031916376)
(1.152291e-05 -4.5022544 -0.00031917106)
(-7.0868741e-06 -4.5022418 -0.00031919786)
(7.8751188e-06 -4.502252 -0.00031919744)
(-6.7092337e-06 -4.5022438 -0.00031920081)
(7.7687274e-06 -4.5022476 -0.00031919623)
(-7.769056e-06 -4.5022476 -0.00031919623)
(6.7090259e-06 -4.5022438 -0.00031920081)
(-7.8752088e-06 -4.502252 -0.00031919744)
(7.086922e-06 -4.5022418 -0.00031919786)
(-1.1522823e-05 -4.5022544 -0.00031917106)
(1.5715533e-05 -4.5022311 -0.00031916374)
(-1.6281477e-05 -4.5022527 -0.00031912247)
(5.6229545e-05 -4.5022087 -0.00031917683)
(-5.3999971e-05 -4.5023812 -0.00031933396)
(-0.00019180975 -4.5010691 -0.00031919221)
(4.0452462e-05 5.3825762 -0.00011306811)
(-1.0094338e-05 5.3836263 -0.00011245862)
(-3.1344929e-05 5.3836943 -0.00011287773)
(-4.8284155e-06 5.383663 -0.00011272794)
(-1.1664904e-05 5.3836773 -0.00011283181)
(3.6911769e-06 5.3836727 -0.00011283628)
(-4.7183328e-06 5.3836676 -0.00011288248)
(3.9207756e-06 5.3836771 -0.00011287914)
(-3.603919e-06 5.3836751 -0.00011288347)
(3.5000546e-06 5.38368 -0.0001128735)
(-3.5002559e-06 5.38368 -0.0001128735)
(3.6038134e-06 5.3836751 -0.00011288347)
(-3.9207853e-06 5.3836771 -0.00011287914)
(4.7184643e-06 5.3836676 -0.00011288248)
(-3.6909926e-06 5.3836727 -0.00011283628)
(1.1665067e-05 5.3836773 -0.0001128318)
(4.8285253e-06 5.383663 -0.00011272794)
(3.1344916e-05 5.3836943 -0.00011287775)
(1.0094197e-05 5.3836263 -0.0001124587)
(-4.0452625e-05 5.3825762 -0.00011306814)
(9.6122833e-05 -6.132565 -9.7818336e-06)
(1.9553344e-05 -6.1340569 -1.0524581e-05)
(-3.2214022e-06 -6.1339816 -1.0235399e-05)
(9.3152666e-06 -6.1340261 -1.0495137e-05)
(-1.2478917e-05 -6.1339951 -1.0330161e-05)
(6.7296937e-06 -6.1340293 -1.0314268e-05)
(-5.5823462e-06 -6.1340114 -1.0252246e-05)
(1.3533226e-05 -6.1340272 -1.0247782e-05)
(-5.6703921e-06 -6.1340151 -1.0247148e-05)
(1.1816721e-05 -6.1340198 -1.0258551e-05)
(-1.1816944e-05 -6.1340198 -1.0258549e-05)
(5.6702586e-06 -6.1340151 -1.0247145e-05)
(-1.3533277e-05 -6.1340272 -1.0247779e-05)
(5.582443e-06 -6.1340114 -1.0252242e-05)
(-6.7295322e-06 -6.1340293 -1.0314269e-05)
(1.247907e-05 -6.1339951 -1.033017e-05)
(-9.3151519e-06 -6.1340261 -1.0495148e-05)
(3.2214221e-06 -6.1339816 -1.0235404e-05)
(-1.9553262e-05 -6.1340569 -1.0524556e-05)
(-9.612275e-05 -6.132565 -9.7817304e-06)
(-7.4485462e-07 7.3777889 1.5066938e-05)
(-1.4999478e-05 7.3793374 1.4926684e-05)
(-2.9211372e-05 7.3793486 1.5017691e-05)
(-1.5392727e-05 7.3793431 1.4952172e-05)
(-1.828366e-05 7.3793448 1.5003233e-05)
(-9.1804526e-06 7.3793554 1.5001851e-05)
(-3.6065166e-06 7.3793465 1.5023217e-05)
(-4.1434024e-07 7.3793587 1.5024195e-05)
(2.1438516e-06 7.3793507 1.5027801e-05)
(-1.2998712e-06 7.3793553 1.5025896e-05)
(1.2998578e-06 7.3793553 1.5025898e-05)
(-2.1438173e-06 7.3793507 1.5027808e-05)
(4.1444819e-07 7.3793587 1.5024202e-05)
(3.6067519e-06 7.3793465 1.5023226e-05)
(9.1807465e-06 7.3793554 1.5001856e-05)
(1.8283894e-05 7.3793448 1.5003226e-05)
(1.5392871e-05 7.3793431 1.4952166e-05)
(2.9211357e-05 7.3793486 1.5017696e-05)
(1.4999461e-05 7.3793374 1.4926711e-05)
(7.4482456e-07 7.3777889 1.5067018e-05)
(4.1921414e-05 -8.5167115 -1.1730006e-05)
(-1.3747604e-05 -8.5187005 -1.1926073e-05)
(2.7149446e-05 -8.5186369 -1.189523e-05)
(8.8982814e-06 -8.5186946 -1.1877633e-05)
(-9.2585243e-07 -8.5186442 -1.1865505e-05)
(1.1194922e-05 -8.5186805 -1.187651e-05)
(-4.3422066e-06 -8.5186512 -1.1878852e-05)
(1.987257e-05 -8.5186797 -1.186748e-05)
(-1.0762046e-05 -8.5186678 -1.1857641e-05)
(1.8680283e-05 -8.5186778 -1.1848125e-05)
(-1.8680411e-05 -8.5186778 -1.1848125e-05)
(1.0761971e-05 -8.5186678 -1.1857638e-05)
(-1.9872609e-05 -8.5186797 -1.1867479e-05)
(4.3422593e-06 -8.5186512 -1.1878856e-05)
(-1.1194837e-05 -8.5186805 -1.1876515e-05)
(9.2588928e-07 -8.5186442 -1.1865504e-05)
(-8.8983378e-06 -8.5186946 -1.1877632e-05)
(-2.7149619e-05 -8.5186369 -1.189522e-05)
(1.3747485e-05 -8.5187005 -1.1926052e-05)
(-4.192144e-05 -8.5167115 -1.1729982e-05)
(-4.5083848e-05 9.9682158 2.4987224e-05)
(-1.4438498e-05 9.9704215 2.5097773e-05)
(-2.8326038e-05 9.9703694 2.5060392e-05)
(-2.1289177e-05 9.9704176 2.5068984e-05)
(-1.4588259e-05 9.9703604 2.5045635e-05)
(-1.548203e-05 9.9704146 2.5061008e-05)
(-7.1385726e-06 9.9703714 2.5048262e-05)
(-1.878572e-05 9.9704045 2.5033019e-05)
(3.7163869e-06 9.9703819 2.5013401e-05)
(-1.33014e-05 9.970393 2.5002362e-05)
(1.3301575e-05 9.970393 2.500236e-05)
(-3.71618e-06 9.9703819 2.5013399e-05)
(1.878596e-05 9.9704045 2.5033017e-05)
(7.1388127e-06 9.9703714 2.504826e-05)
(1.5482254e-05 9.9704146 2.5061012e-05)
(1.458843e-05 9.9703604 2.5045646e-05)
(2.1289336e-05 9.9704176 2.5068994e-05)
(2.8326085e-05 9.9703694 2.50604e-05)
(1.4438509e-05 9.9704215 2.5097777e-05)
(4.5083811e-05 9.9682158 2.4987228e-05)
(9.5199837e-05 -11.999437 1.7670272e-05)
(-5.895525e-05 -12.002283 1.7772634e-05)
(2.3851e-05 -12.002124 1.772242e-05)
(5.0714469e-06 -12.00225 1.7778753e-05)
(-3.0646642e-06 -12.002148 1.7762323e-05)
(3.1184032e-05 -12.002231 1.7788011e-05)
(-1.8754106e-05 -12.002169 1.7773612e-05)
(4.1327898e-05 -12.002215 1.778834e-05)
(-3.0437118e-05 -12.002185 1.7779268e-05)
(3.9818066e-05 -12.0022 1.7781516e-05)
(-3.9818077e-05 -12.0022 1.7781522e-05)
(3.0437163e-05 -12.002185 1.777926e-05)
(-4.1327865e-05 -12.002215 1.7788338e-05)
(1.8754139e-05 -12.002169 1.7773609e-05)
(-3.1184061e-05 -12.002231 1.7788014e-05)
(3.0646313e-06 -12.002148 1.7762327e-05)
(-5.0715219e-06 -12.00225 1.7778756e-05)
(-2.3851073e-05 -12.002124 1.7722424e-05)
(5.8955143e-05 -12.002283 1.7772636e-05)
(-9.519987e-05 -11.999437 1.7670274e-05)
(-0.0001105242 13.799824 2.0812207e-05)
(4.5982636e-06 13.803118 2.0794018e-05)
(-4.9677915e-05 13.802863 2.084798e-05)
(-2.3245696e-05 13.803087 2.0761459e-05)
(-1.5403592e-05 13.802931 2.0773376e-05)
(-3.7783449e-05 13.803064 2.0747398e-05)
(5.2041505e-06 13.802969 2.0756328e-05)
(-4.2927634e-05 13.803039 2.0743229e-05)
(2.1733479e-05 13.802992 2.074844e-05)
(-3.6396261e-05 13.803014 2.0744701e-05)
(3.6396373e-05 13.803014 2.07447e-05)
(-2.17334e-05 13.802992 2.074844e-05)
(4.292768e-05 13.803039 2.074323e-05)
(-5.204165e-06 13.802969 2.0756329e-05)
(3.7783376e-05 13.803064 2.0747399e-05)
(1.5403408e-05 13.802931 2.0773376e-05)
(2.3245504e-05 13.803087 2.0761455e-05)
(4.967768e-05 13.802863 2.0847982e-05)
(-4.5984017e-06 13.803118 2.0794021e-05)
(0.00011052411 13.799824 2.0812208e-05)
(-3.0999244e-05 -16.216691 -0.0010646115)
(0.00017553446 -16.22077 -0.0010652036)
(-4.7563034e-05 -16.220433 -0.0010650954)
(0.00014834711 -16.220717 -0.001065107)
(-6.962123e-05 -16.220494 -0.0010650756)
(0.00012471929 -16.220673 -0.0010650911)
(-8.8123377e-05 -16.220534 -0.0010650777)
(0.00010891782 -16.220631 -0.0010650881)
(-9.9263971e-05 -16.220563 -0.0010650816)
(0.00010297744 -16.220594 -0.0010650842)
(-0.0001029776 -16.220594 -0.0010650842)
(9.9263802e-05 -16.220563 -0.0010650816)
(-0.00010891791 -16.220631 -0.0010650882)
(8.8123353e-05 -16.220534 -0.0010650777)
(-0.0001247193 -16.220673 -0.0010650911)
(6.9621285e-05 -16.220494 -0.0010650756)
(-0.00014834713 -16.220717 -0.001065107)
(4.756308e-05 -16.220433 -0.0010650954)
(-0.00017553449 -16.22077 -0.0010652036)
(3.0999274e-05 -16.216691 -0.0010646114)
(-0.00075360014 3.8624158 0.0015045303)
(2.474698e-05 3.8629229 0.0015051366)
(-5.806151e-05 3.8630905 0.0015051917)
(1.2059508e-05 3.8630949 0.0015052108)
(-1.3247369e-05 3.8630932 0.0015052001)
(1.0644796e-05 3.8630997 0.0015051997)
(-6.5047995e-06 3.8630933 0.0015051983)
(5.4061589e-06 3.863101 0.001505201)
(-6.0496618e-06 3.8630975 0.0015052006)
(5.7433025e-06 3.8631008 0.0015052017)
(-5.7436382e-06 3.8631008 0.0015052017)
(6.0494537e-06 3.8630975 0.0015052006)
(-5.4062678e-06 3.863101 0.001505201)
(6.5048122e-06 3.8630933 0.0015051983)
(-1.0644733e-05 3.8630997 0.0015051997)
(1.3247419e-05 3.8630932 0.0015052001)
(-1.2059395e-05 3.8630949 0.0015052108)
(5.8061598e-05 3.8630905 0.0015051917)
(-2.4746988e-05 3.8629229 0.0015051366)
(0.00075360008 3.8624158 0.0015045303)
(0.00019150708 -4.4961988 -0.00033611081)
(5.4002059e-05 -4.4975079 -0.0003363443)
(-5.609716e-05 -4.4973361 -0.00033615744)
(1.6279591e-05 -4.4973799 -0.0003361059)
(-1.5727185e-05 -4.4973584 -0.00033614509)
(1.1500517e-05 -4.4973817 -0.00033615303)
(-7.0920777e-06 -4.4973691 -0.00033617935)
(7.8684654e-06 -4.4973794 -0.00033617918)
(-6.7021317e-06 -4.4973711 -0.00033618243)
(7.765289e-06 -4.497375 -0.00033617791)
(-7.7656182e-06 -4.497375 -0.00033617791)
(6.7019243e-06 -4.4973711 -0.00033618243)
(-7.8685551e-06 -4.4973794 -0.00033617918)
(7.0921279e-06 -4.4973691 -0.00033617935)
(-1.1500427e-05 -4.4973817 -0.00033615303)
(1.5727219e-05 -4.4973584 -0.00033614508)
(-1.6279591e-05 -4.4973799 -0.00033610589)
(5.6097032e-05 -4.4973361 -0.00033615742)
(-5.4002307e-05 -4.4975079 -0.00033634426)
(-0.00019150725 -4.4961988 -0.00033611068)
(4.0704648e-05 5.3779002 -9.8921584e-05)
(-9.993164e-06 5.3789481 -9.8317983e-05)
(-3.1457747e-05 5.3790161 -9.8738942e-05)
(-4.8074055e-06 5.3789847 -9.8588908e-05)
(-1.17076e-05 5.3789991 -9.8693006e-05)
(3.6641045e-06 5.3789945 -9.8697544e-05)
(-4.7331178e-06 5.3789895 -9.8743728e-05)
(3.9179109e-06 5.378999 -9.8740375e-05)
(-3.5966869e-06 5.378997 -9.8744658e-05)
(3.5018457e-06 5.3790018 -9.8734689e-05)
(-3.5020464e-06 5.3790018 -9.8734689e-05)
(3.5965816e-06 5.378997 -9.8744657e-05)
(-3.9179199e-06 5.378999 -9.8740373e-05)
(4.7332504e-06 5.3789895 -9.8743723e-05)
(-3.6639191e-06 5.3789945 -9.8697541e-05)
(1.1707763e-05 5.3789991 -9.8693002e-05)
(4.8075154e-06 5.3789847 -9.8588904e-05)
(3.1457718e-05 5.3790161 -9.8738938e-05)
(9.9930668e-06 5.3789481 -9.8318012e-05)
(-4.0704751e-05 5.3779002 -9.8921485e-05)
(9.5697914e-05 -6.1268812 -2.6186687e-05)
(1.9327067e-05 -6.1283717 -2.6947899e-05)
(-3.2124423e-06 -6.1282962 -2.6657288e-05)
(9.2626392e-06 -6.1283408 -2.6917446e-05)
(-1.2383794e-05 -6.1283097 -2.6752136e-05)
(6.7620281e-06 -6.1283439 -2.67363e-05)
(-5.542156e-06 -6.1283259 -2.6674197e-05)
(1.3528443e-05 -6.1283417 -2.6669809e-05)
(-5.6680609e-06 -6.1283296 -2.6669161e-05)
(1.1803251e-05 -6.1283344 -2.6680589e-05)
(-1.1803474e-05 -6.1283344 -2.6680588e-05)
(5.6679271e-06 -6.1283296 -2.6669161e-05)
(-1.3528494e-05 -6.1283417 -2.6669809e-05)
(5.5422508e-06 -6.1283259 -2.6674198e-05)
(-6.7618696e-06 -6.1283439 -2.6736305e-05)
(1.2383947e-05 -6.1283097 -2.6752143e-05)
(-9.2625243e-06 -6.1283408 -2.6917453e-05)
(3.2124716e-06 -6.1282962 -2.6657292e-05)
(-1.9326955e-05 -6.1283717 -2.6947885e-05)
(-9.5697813e-05 -6.1268812 -2.6186633e-05)
(-8.2062756e-07 7.3714091 3.1866107e-05)
(-1.5017457e-05 7.3729559 3.1728659e-05)
(-2.9184983e-05 7.372967 3.181891e-05)
(-1.5397166e-05 7.3729617 3.1753682e-05)
(-1.8249479e-05 7.3729632 3.1804597e-05)
(-9.1683949e-06 7.3729738 3.1803242e-05)
(-3.5905916e-06 7.3729649 3.1824623e-05)
(-4.1088965e-07 7.3729771 3.1825581e-05)
(2.1466497e-06 7.372969 3.1829173e-05)
(-1.3009443e-06 7.3729737 3.1827246e-05)
(1.300932e-06 7.3729737 3.1827247e-05)
(-2.1466147e-06 7.372969 3.1829174e-05)
(4.1099765e-07 7.3729771 3.1825584e-05)
(3.5908244e-06 7.3729649 3.1824625e-05)
(9.1686847e-06 7.3729738 3.1803236e-05)
(1.8249712e-05 7.3729632 3.180459e-05)
(1.5397314e-05 7.3729617 3.1753679e-05)
(2.9184975e-05 7.372967 3.1818917e-05)
(1.5017458e-05 7.3729559 3.172867e-05)
(8.2061237e-07 7.3714091 3.1866152e-05)
(4.1783586e-05 -8.5090199 -2.7975827e-05)
(-1.382135e-05 -8.5110058 -2.8186363e-05)
(2.7154067e-05 -8.5109424 -2.8154666e-05)
(8.9099134e-06 -8.511 -2.813759e-05)
(-9.2756876e-07 -8.5109497 -2.8125197e-05)
(1.1178109e-05 -8.510986 -2.813624e-05)
(-4.3309238e-06 -8.5109567 -2.8138557e-05)
(1.987032e-05 -8.5109852 -2.8127077e-05)
(-1.0741199e-05 -8.5109733 -2.8117238e-05)
(1.8672137e-05 -8.5109833 -2.8107714e-05)
(-1.8672264e-05 -8.5109833 -2.8107712e-05)
(1.0741126e-05 -8.5109733 -2.8117237e-05)
(-1.9870362e-05 -8.5109852 -2.8127078e-05)