/*--------------------------------*- C++ -*----------------------------------*\
  =========                 |
  \\      /  F ield         | OpenFOAM: The Open Source CFD Toolbox
   \\    /   O peration     | Website:  https://openfoam.org
    \\  /    A nd           | Version:  8
     \\/     M anipulation  |
\*---------------------------------------------------------------------------*/
FoamFile
{
    version     2.0;
    format      ascii;
    class       surfaceScalarField;
    location    "0.8";
    object      phi;
}
// * * * * * * * * * * * * * * * * * * * * * * * * * * * * * * * * * * * * * //

dimensions      [1 0 -1 0 0 0 0];

internalField   nonuniform List<scalar> 
4780
(
-2.2014369e-09
-3.9782109e-05
-3.1363392e-16
-4.3240277e-10
-3.9786096e-05
-1.1000781e-16
3.4929674e-11
-3.9784841e-05
3.1032753e-16
-8.1351256e-11
-3.9784217e-05
3.6933635e-16
-3.2110482e-14
-3.978445e-05
2.4235653e-16
8.1302947e-11
-3.978445e-05
-3.621476e-16
-3.4944549e-11
-3.9784217e-05
-4.5280129e-16
4.3241545e-10
-3.9784841e-05
-4.3404716e-16
2.2014536e-09
-3.9786096e-05
2.0078358e-16
-3.9782109e-05
-5.0568289e-17
-3.6902382e-09
-5.2208358e-05
-4.7433858e-16
-8.8931645e-10
-5.2218862e-05
-2.5539616e-16
4.7380938e-11
-5.2215786e-05
2.652253e-16
-1.644723e-10
-5.2213973e-05
4.9729235e-16
-2.7506982e-14
-5.2214617e-05
-7.9571563e-17
1.6443054e-10
-5.2214617e-05
-2.7981687e-16
-4.7391607e-11
-5.2213973e-05
-4.0993668e-16
8.8933052e-10
-5.2215786e-05
-5.5004781e-16
3.6902542e-09
-5.2218862e-05
7.6032478e-18
-5.2208358e-05
-1.5335456e-16
-2.5609931e-09
-5.4570708e-05
-3.0922537e-16
-1.1127629e-09
-5.4585255e-05
-2.4579088e-16
4.3812526e-11
-5.4581928e-05
1.4751735e-17
-2.0701725e-10
-5.4578665e-05
-2.8139611e-16
-2.7363809e-14
-5.4579803e-05
-6.9261846e-16
2.0697493e-10
-5.4579803e-05
-8.7967629e-16
-4.382329e-11
-5.4578665e-05
-7.5878796e-16
1.1127778e-09
-5.4581928e-05
-4.0513189e-16
2.5610093e-09
-5.4585255e-05
-1.3350201e-16
-5.4570708e-05
-2.2230441e-16
-1.7162416e-09
-5.4886991e-05
-3.2483232e-16
-1.2087458e-09
-5.49038e-05
-2.6243326e-16
3.908328e-11
-5.4901253e-05
3.4717654e-16
-2.2754061e-10
-5.4896432e-05
-5.8768051e-17
-2.8246708e-14
-5.4898099e-05
-7.0602196e-16
2.2749833e-10
-5.4898099e-05
-9.8430205e-16
-3.9094274e-11
-5.4896432e-05
-6.8240674e-16
1.2087603e-09
-5.4901253e-05
-3.5179357e-16
1.7162579e-09
-5.49038e-05
-7.7580045e-17
-5.4886991e-05
-7.5800736e-17
-1.2563504e-09
-5.4918798e-05
-3.7598175e-16
-1.2446883e-09
-5.4936915e-05
-1.9496393e-16
3.7317235e-11
-5.4935677e-05
5.4172792e-17
-2.3751861e-10
-5.4929255e-05
7.187452e-17
-2.9010836e-14
-5.493147e-05
-3.3168983e-16
2.3747607e-10
-5.493147e-05
-9.3554519e-16
-3.7328679e-11
-5.4929255e-05
-6.3467557e-16
1.2447024e-09
-5.4935677e-05
-3.9791773e-16
1.2563667e-09
-5.4936915e-05
-1.1673965e-16
-5.4918798e-05
-2.2742325e-16
-1.0862371e-09
-5.4920977e-05
-4.0165863e-16
-1.2547273e-09
-5.4940051e-05
-1.758949e-16
3.7822284e-11
-5.4940313e-05
-2.4391829e-16
-2.4301068e-10
-5.4932274e-05
-3.3260946e-16
-2.9705792e-14
-5.4935047e-05
-3.5382763e-16
2.4296763e-10
-5.4935047e-05
-7.9356412e-16
-3.7834062e-11
-5.4932274e-05
-8.7937806e-16
1.2547412e-09
-5.4940313e-05
-4.4697751e-16
1.0862534e-09
-5.4940051e-05
6.8212066e-17
-5.4920977e-05
-6.2865841e-17
-9.8719689e-10
-5.4920797e-05
-4.2729045e-16
-1.2554343e-09
-5.4940629e-05
-1.7693069e-16
3.9774569e-11
-5.4942493e-05
-3.3571475e-16
-2.4682755e-10
-5.4932827e-05
-2.751609e-17
-3.0193239e-14
-5.4936167e-05
1.4735965e-16
2.4678398e-10
-5.4936167e-05
-6.7400418e-16
-3.9786507e-11
-5.4932827e-05
-7.9332248e-16
1.255448e-09
-5.4942493e-05
-6.6080304e-16
9.8721311e-10
-5.4940629e-05
-1.4714129e-16
-5.4920797e-05
-1.8905734e-16
-9.5411229e-10
-5.492049e-05
-3.4710519e-16
-1.2525342e-09
-5.4941016e-05
-1.6280955e-16
4.2534615e-11
-5.4944511e-05
-4.4137837e-16
-2.5002781e-10
-5.4933214e-05
-4.7024155e-18
-3.0738121e-14
-5.4937128e-05
2.7916453e-16
2.4998364e-10
-5.4937128e-05
-6.1640737e-16
-4.2546971e-11
-5.4933214e-05
-6.800705e-16
1.2525481e-09
-5.4944511e-05
-6.4692507e-16
9.5412897e-10
-5.4941016e-05
2.7581344e-17
-5.492049e-05
-2.8773009e-16
-9.1140221e-10
-5.4920232e-05
-3.2447885e-16
-1.2487184e-09
-5.4941369e-05
-1.8603077e-16
4.5541936e-11
-5.4946532e-05
-5.2166325e-16
-2.5305911e-10
-5.4933598e-05
5.2973732e-16
-3.1165648e-14
-5.4938095e-05
1.0212453e-15
2.5301442e-10
-5.4938095e-05
-1.2218569e-16
-4.5554548e-11
-5.4933598e-05
-4.3218641e-16
1.2487323e-09
-5.4946531e-05
-8.4836101e-16
9.1141916e-10
-5.4941369e-05
-5.0906043e-17
-5.4920232e-05
-2.8126252e-16
-8.8660947e-10
-5.4920006e-05
-2.9712482e-16
-1.2440857e-09
-5.4941707e-05
-1.7662183e-16
4.9277802e-11
-5.4948556e-05
-4.4576766e-16
-2.5593341e-10
-5.493398e-05
-2.553257e-16
-3.1729194e-14
-5.4939067e-05
3.2315111e-16
2.5588798e-10
-5.4939067e-05
-4.4466296e-16
-4.9290474e-11
-5.493398e-05
-6.7350861e-16
1.2440998e-09
-5.4948556e-05
-3.4731762e-16
8.8662667e-10
-5.4941707e-05
5.8946977e-16
-5.4920006e-05
-3.269352e-17
-8.5221323e-10
-5.4919829e-05
-6.4864456e-16
-1.2394887e-09
-5.4942028e-05
-2.9629746e-16
5.2703556e-11
-5.495059e-05
-5.5045765e-16
-2.5882669e-10
-5.4934369e-05
-9.1388882e-18
-3.2041343e-14
-5.4940052e-05
3.9461053e-16
2.5878069e-10
-5.4940052e-05
-4.1534993e-16
-5.2716557e-11
-5.4934368e-05
-7.6122645e-16
1.2395031e-09
-5.495059e-05
-2.4849825e-16
8.5223071e-10
-5.4942028e-05
9.5053425e-16
-5.4919829e-05
1.6804832e-16
-8.1997263e-10
-5.4919689e-05
-2.5867831e-16
-1.2340843e-09
-5.4942325e-05
-8.1713754e-17
5.7431958e-11
-5.4952625e-05
-5.6025282e-16
-2.6152774e-10
-5.4934751e-05
-8.0412091e-16
-3.255045e-14
-5.4941039e-05
-1.4085144e-16
2.6148096e-10
-5.4941039e-05
-7.0811653e-16
-5.7444996e-11
-5.4934751e-05
-9.7142049e-16
1.2340992e-09
-5.4952625e-05
-4.8608371e-16
8.1999035e-10
-5.4942325e-05
9.9022165e-16
-5.4919689e-05
6.5418893e-16
-7.9052179e-10
-5.4919596e-05
-4.9880525e-16
-1.2290892e-09
-5.4942614e-05
-3.63133e-16
6.1044557e-11
-5.4954673e-05
-3.6403241e-16
-2.6434343e-10
-5.4935142e-05
2.4740526e-16
-3.289614e-14
-5.4942041e-05
3.8079065e-16
2.6429587e-10
-5.4942041e-05
-4.3966225e-16
-6.10577e-11
-5.4935142e-05
-4.7860893e-16
1.229104e-09
-5.4954672e-05
-5.4622757e-16
7.9053955e-10
-5.4942614e-05
4.893595e-16
-5.4919596e-05
1.7970841e-16
-7.4745543e-10
-5.4919551e-05
-1.0154212e-16
-1.2228189e-09
-5.4942867e-05
-1.799573e-17
6.7120176e-11
-5.4956719e-05
-4.6391175e-16
-2.6682581e-10
-5.4935525e-05
-7.8401347e-16
-3.3396865e-14
-5.4943043e-05
-2.0835664e-16
2.6677785e-10
-5.4943043e-05
-4.75022e-16
-6.7133865e-11
-5.4935525e-05
-7.8461288e-16
1.2228339e-09
-5.4956719e-05
-6.8855154e-16
7.4747384e-10
-5.4942867e-05
-4.8299351e-17
-5.491955e-05
-3.154587e-16
-7.2578043e-10
-5.491955e-05
-5.9498551e-16
-1.2176246e-09
-5.4943125e-05
-2.2936377e-16
7.0530848e-11
-5.4958782e-05
-4.6954235e-17
-2.6960274e-10
-5.4935921e-05
-6.0716835e-17
-3.3709423e-14
-5.4944064e-05
-1.8962099e-16
2.6955445e-10
-5.4944064e-05
-4.3750231e-16
-7.0545629e-11
-5.4935921e-05
-6.2158286e-16
1.2176397e-09
-5.4958781e-05
-3.0869742e-16
7.2579961e-10
-5.4943124e-05
-7.7143697e-17
-5.491955e-05
-3.3463306e-16
-6.6693018e-10
-5.4919609e-05
-1.180692e-16
-1.210223e-09
-5.4943328e-05
-6.4269055e-17
7.8612618e-11
-5.4960839e-05
3.9508208e-17
-2.7177215e-10
-5.4936302e-05
4.8663233e-16
-3.4169341e-14
-5.4945079e-05
5.6002143e-16
2.7172308e-10
-5.4945079e-05
2.8044617e-16
-7.8626708e-11
-5.4936302e-05
1.2093838e-16
1.2102383e-09
-5.4960839e-05
-2.8575333e-16
6.6694877e-10
-5.4943328e-05
-4.7074336e-16
-5.4919609e-05
-5.9759711e-16
-6.5938053e-10
-5.4919708e-05
-3.6647724e-16
-1.2051597e-09
-5.4943558e-05
-2.6304137e-16
8.1050745e-11
-5.496292e-05
-7.4760193e-16
-2.7459606e-10
-5.4936705e-05
-1.4204235e-15
-3.4762868e-14
-5.4946121e-05
-6.1253455e-16
2.7454608e-10
-5.4946121e-05
-9.9447502e-16
-8.1064582e-11
-5.4936705e-05
-9.5407741e-16
1.2051753e-09
-5.496292e-05
4.1570384e-17
6.5939886e-10
-5.4943558e-05
-3.7578948e-16
-5.4919708e-05
-4.7853238e-16
-5.7563174e-10
-5.4919882e-05
3.9354534e-16
-1.1961665e-09
-5.4943701e-05
6.1201627e-16
9.2321654e-11
-5.4964987e-05
-1.8183585e-16
-2.7628763e-10
-5.4937082e-05
-4.4066235e-16
-3.5096552e-14
-5.4947147e-05
-1.596498e-16
2.7623722e-10
-5.4947147e-05
-4.0444928e-16
-9.2336045e-11
-5.4937082e-05
-5.4366643e-16
1.1961818e-09
-5.4964987e-05
-5.0775578e-16
5.7565058e-10
-5.4943701e-05
-5.1745767e-16
-5.4919882e-05
-3.2284075e-16
-5.938529e-10
-5.4920082e-05
3.4447536e-16
-1.1918109e-09
-5.4943908e-05
4.40106e-16
9.2320077e-11
-5.4967088e-05
-8.3429801e-16
-2.7933318e-10
-5.4937495e-05
-2.3091479e-15
-3.5752342e-14
-5.4948211e-05
-1.2373381e-15
2.7928175e-10
-5.4948211e-05
-1.285473e-15
-9.2335667e-11
-5.4937495e-05
-1.4805872e-15
1.1918272e-09
-5.4967088e-05
-1.9904384e-16
5.9387322e-10
-5.4943908e-05
3.3532536e-17
-5.4920082e-05
-4.7738074e-16
-4.6933815e-10
-5.4920383e-05
3.1556472e-16
-1.1804384e-09
-5.4943975e-05
4.355066e-16
1.088828e-10
-5.4969162e-05
1.6863539e-16
-2.8026033e-10
-5.493786e-05
1.0351272e-15
-3.5966644e-14
-5.4949243e-05
8.6279665e-16
2.8020855e-10
-5.4949243e-05
2.3108132e-16
-1.0889807e-10
-5.493786e-05
4.9079952e-16
1.1804543e-09
-5.4969162e-05
-6.6150366e-16
4.6935795e-10
-5.4943974e-05
-8.733695e-17
-5.4920383e-05
2.6610576e-16
-5.3342915e-10
-5.4920684e-05
2.3791388e-16
-1.1777811e-09
-5.4944168e-05
4.6629723e-16
1.0377513e-10
-5.4971284e-05
-6.0603136e-16
-2.8386048e-10
-5.4938285e-05
-4.5450148e-16
-3.6658555e-14
-5.4950332e-05
-8.1076966e-17
2.8380779e-10
-5.4950332e-05
-3.4807716e-16
-1.0379076e-10
-5.4938285e-05
-1.1288641e-16
1.1777976e-09
-5.4971284e-05
-8.9559757e-16
5.3344969e-10
-5.4944168e-05
-1.1049221e-16
-5.4920684e-05
2.6711686e-16
-3.417046e-10
-5.4921128e-05
-4.5375872e-16
-1.1627121e-09
-5.4944133e-05
-4.1485674e-16
1.2929637e-10
-5.4973359e-05
-4.2635434e-16
-2.8352278e-10
-5.493863e-05
5.0341097e-16
-3.7027478e-14
-5.4951363e-05
7.8667086e-16
2.8346975e-10
-5.4951362e-05
5.2548582e-16
-1.2931214e-10
-5.493863e-05
1.0344353e-15
1.1627288e-09
-5.4973359e-05
6.225603e-17
3.4172511e-10
-5.4944133e-05
-7.4904842e-16
-5.4921128e-05
-3.8426652e-16
-4.8479659e-10
-5.4921523e-05
-2.134895e-16
-1.1633997e-09
-5.4944331e-05
-1.8402812e-16
1.1440953e-10
-5.4975505e-05
-8.736657e-16
-2.8828128e-10
-5.4939073e-05
-5.1080886e-16
-3.7724483e-14
-5.4952481e-05
2.6039489e-16
2.8822722e-10
-5.4952481e-05
1.0857189e-16
-1.1442474e-10
-5.4939073e-05
9.688039e-16
1.1634164e-09
-5.4975505e-05
2.4150529e-16
4.8481696e-10
-5.4944331e-05
-3.3964649e-16
-5.4921523e-05
2.0769298e-16
-1.8370248e-10
-5.4922134e-05
-4.6296875e-16
-1.1424826e-09
-5.4944158e-05
-7.1458597e-16
1.5509441e-10
-5.4977577e-05
-5.0431221e-17
-2.8582955e-10
-5.4939386e-05
5.9764585e-16
-3.7833114e-14
-5.4953502e-05
3.1092218e-16
2.8577515e-10
-5.4953502e-05
1.4556273e-16
-1.5510955e-10
-5.4939385e-05
5.6884831e-16
1.1424992e-09
-5.4977576e-05
1.3066645e-16
1.8372209e-10
-5.4944158e-05
-4.8571201e-16
-5.4922134e-05
-1.4322064e-16
-4.5790735e-10
-5.4922608e-05
-2.3865748e-16
-1.1491724e-09
-5.4944389e-05
-4.8243413e-16
1.2257487e-10
-5.4979751e-05
-1.5545862e-16
-2.9278408e-10
-5.4939856e-05
2.7759232e-16
-3.8504812e-14
-5.4954658e-05
5.1218746e-16
2.9272856e-10
-5.4954658e-05
2.4749971e-16
-1.2259018e-10
-5.4939856e-05
2.1041321e-16
1.1491891e-09
-5.4979751e-05
-5.1017532e-16
4.5792786e-10
-5.4944389e-05
6.2253137e-17
-5.4922608e-05
6.4994543e-16
1.4334986e-11
-5.4923415e-05
-2.9811824e-16
-1.1190052e-09
-5.4944033e-05
-2.2074204e-16
1.885539e-10
-5.4981812e-05
-6.1021545e-16
-2.8681893e-10
-5.4940118e-05
-9.9307062e-16
-3.8853153e-14
-5.4955657e-05
-5.7920003e-16
2.8676303e-10
-5.4955657e-05
-6.469435e-16
-1.885695e-10
-5.4940118e-05
-8.6555397e-16
1.1190221e-09
-5.4981812e-05
-3.1431451e-16
-1.4313111e-11
-5.4944033e-05
8.9375894e-17
-5.4923414e-05
6.824093e-16
-4.6668549e-10
-5.4923942e-05
-5.6580112e-16
-1.1358322e-09
-5.4944342e-05
-4.7341483e-16
1.2576969e-10
-5.498402e-05
-7.9084209e-16
-2.976666e-10
-5.4940631e-05
-6.4303639e-16
-3.9626574e-14
-5.4956861e-05
-2.1905799e-16
2.9760947e-10
-5.4956861e-05
1.08819e-16
-1.2578573e-10
-5.4940631e-05
-2.670945e-16
1.1358502e-09
-5.498402e-05
-7.122622e-16
4.6670698e-10
-5.4944342e-05
-1.2082256e-15
-5.4923942e-05
-4.9571464e-16
2.8451312e-10
-5.4925004e-05
2.6003401e-16
-1.0912136e-09
-5.4943722e-05
5.7428013e-16
2.3289681e-10
-5.4986065e-05
-6.498765e-16
-2.8597835e-10
-5.4940823e-05
-5.06886e-16
-3.9757877e-14
-5.4957826e-05
-2.6662717e-16
2.8592115e-10
-5.4957826e-05
-3.6038614e-16
-2.3291243e-10
-5.4940822e-05
-4.481763e-16
1.0912313e-09
-5.4986065e-05
-1.0648539e-16
-2.8449253e-10
-5.4943722e-05
-5.7889839e-16
-5.4925004e-05
-8.2533869e-17
-5.295038e-10
-5.4925543e-05
2.3360424e-16
-1.1243801e-09
-5.4944175e-05
4.2826274e-16
1.2043754e-10
-5.4988314e-05
-1.2952376e-15
-3.0335116e-10
-5.4941399e-05
-3.7164022e-16
-4.0642335e-14
-5.4959095e-05
5.0994438e-16
3.0329238e-10
-5.4959095e-05
6.3500821e-16
-1.2045219e-10
-5.4941399e-05
-2.9308147e-16
1.1243984e-09
-5.4988314e-05
-1.3450998e-15
5.2952429e-10
-5.4944175e-05
-1.5390414e-15
-5.4925543e-05
-7.9297635e-16
6.3534808e-10
-5.4926923e-05
-4.8190018e-16
-1.0576327e-09
-5.49432e-05
-5.9619929e-17
2.9242668e-10
-5.4990337e-05
-1.137256e-16
-2.8261222e-10
-5.4941492e-05
1.3030593e-15
-4.0842899e-14
-5.4960009e-05
1.4381659e-15
2.8255365e-10
-5.4960009e-05
1.1204515e-15
-2.9244194e-10
-5.4941492e-05
9.9220478e-16
1.0576514e-09
-5.4990336e-05
5.3031835e-17
-6.3532723e-10
-5.49432e-05
7.3086083e-16
-5.4926923e-05
8.3773981e-16
-6.6932316e-10
-5.4927411e-05
-9.1789104e-17
-1.1160906e-09
-5.4943886e-05
-1.6513883e-16
1.0176194e-10
-5.4992632e-05
-8.6683082e-16
-3.103725e-10
-5.494216e-05
6.0360727e-17
-4.1784476e-14
-5.496136e-05
1.1997771e-15
3.1031181e-10
-5.4961359e-05
8.8352612e-18
-1.0177739e-10
-5.494216e-05
-2.6259044e-16
1.1161099e-09
-5.4992631e-05
4.1139988e-16
6.6934523e-10
-5.4943886e-05
1.3004061e-15
-5.4927411e-05
3.9227402e-16
1.0975983e-09
-5.4929201e-05
-6.5844892e-16
-1.0162847e-09
-5.4942435e-05
-3.4495376e-16
3.7263387e-10
-5.4994626e-05
1.3381443e-15
-2.7581634e-10
-5.4942118e-05
2.4763649e-15
-4.1357065e-14
-5.4962203e-05
1.3703271e-15
2.7575634e-10
-5.4962203e-05
7.7990116e-16
-3.7264992e-10
-5.4942118e-05
8.2209842e-16
1.0163034e-09
-5.4994626e-05
4.3834143e-16
-1.0975766e-09
-5.4942434e-05
6.843302e-16
-5.49292e-05
7.0798928e-16
-9.1333846e-10
-5.4929547e-05
-2.3900095e-16
-1.1129352e-09
-5.494347e-05
-1.2113643e-16
6.3479386e-11
-5.4996971e-05
7.3354583e-16
-3.1937216e-10
-5.4942914e-05
3.4509636e-17
-4.2491545e-14
-5.4963657e-05
-1.0942435e-15
3.1931008e-10
-5.4963657e-05
-9.7261816e-16
-6.3495081e-11
-5.4942914e-05
-1.4642717e-15
1.1129544e-09
-5.4996971e-05
-1.9293713e-15
9.1336048e-10
-5.4943469e-05
-2.1547807e-15
-5.4929546e-05
-1.159187e-15
1.7040755e-09
-5.4931866e-05
-4.66085e-16
-9.6458024e-10
-5.4941384e-05
-9.1060692e-16
4.8023353e-10
-5.4998934e-05
9.5099703e-17
-2.6445759e-10
-5.4942695e-05
2.2704456e-16
-4.2356343e-14
-5.4964405e-05
8.1886281e-16
2.64396e-10
-5.4964405e-05
6.9852343e-16
-4.8025007e-10
-5.4942695e-05
1.4301831e-15
9.6459924e-10
-5.4998934e-05
5.6208116e-16
-1.704053e-09
-5.4941384e-05
1.8075747e-16
-5.4931866e-05
-2.1937859e-16
-1.2941262e-09
-5.4931951e-05
-2.8445189e-16
-1.117901e-09
-5.4942916e-05
-1.6465695e-16
4.2340042e-12
-5.5001336e-05
4.2918391e-16
-3.316887e-10
-5.4943658e-05
-1.3478075e-16
-4.3479558e-14
-5.4965989e-05
-1.5402986e-15
3.3162549e-10
-5.4965989e-05
-1.3387052e-15
-4.2480736e-12
-5.4943657e-05
-9.8946067e-16
1.11792e-09
-5.5001336e-05
-2.7882247e-15
1.2941486e-09
-5.4942916e-05
-2.6716566e-15
-5.4931951e-05
-1.3730399e-15
2.4931503e-09
-5.4934955e-05
-1.7745826e-16
-8.9920197e-10
-5.4940003e-05
-1.0658971e-15
6.2317682e-10
-5.5003266e-05
3.4274366e-15
-2.4715155e-10
-5.4943209e-05
4.1653624e-15
-4.2833087e-14
-5.4966615e-05
1.6193103e-15
2.4708881e-10
-5.4966615e-05
1.33297e-15
-6.231936e-10
-5.4943209e-05
3.4072908e-15
8.9922118e-10
-5.5003266e-05
1.0273528e-15
-2.4931275e-09
-5.4940003e-05
3.0225465e-16
-5.4934955e-05
-3.3264594e-16
-1.8501322e-09
-5.4934622e-05
-2.0055281e-16
-1.1344145e-09
-5.4942216e-05
-5.5180651e-16
-9.615452e-11
-5.500572e-05
-9.6405565e-16
-3.4875665e-10
-5.4944399e-05
-6.738648e-16
-4.4888282e-14
-5.4968359e-05
-4.0311518e-16
3.4869189e-10
-5.4968358e-05
-6.3450716e-16
9.6137231e-11
-5.4944398e-05
6.1516306e-16
1.1344339e-09
-5.500572e-05
-1.2604387e-15
1.8501553e-09
-5.4942216e-05
-2.4642441e-15
-5.4934622e-05
-1.3996564e-15
3.5098175e-09
-5.493851e-05
-7.2969378e-17
-8.1595086e-10
-5.4938238e-05
-9.2728142e-16
8.1065712e-10
-5.500762e-05
2.8919547e-15
-2.2222877e-10
-5.494366e-05
2.931093e-15
-4.3735747e-14
-5.4968831e-05
8.6031198e-16
2.2216476e-10
-5.4968831e-05
1.001972e-15
-8.1067394e-10
-5.4943659e-05
2.3292356e-15
8.1597047e-10
-5.500762e-05
1.6782483e-15
-3.5097941e-09
-5.4938238e-05
9.5723846e-16
-5.493851e-05
-3.4733996e-16
-2.6265398e-09
-5.4937559e-05
3.9042755e-17
-1.1666211e-09
-5.494136e-05
-7.3111949e-16
-2.3942654e-10
-5.5010123e-05
2.3931179e-16
-3.7202072e-10
-5.4945138e-05
1.3380712e-15
-4.6025557e-14
-5.4970767e-05
-1.4499772e-18
3.7195485e-10
-5.4970766e-05
-7.7684299e-16
2.394094e-10
-5.4945138e-05
1.598509e-15
1.1666405e-09
-5.5010123e-05
2.415799e-16
2.6265634e-09
-5.4941359e-05
-1.6314483e-15
-5.4937559e-05
-1.7362976e-15
4.8069021e-09
-5.494258e-05
-2.5561705e-17
-7.0953563e-10
-5.4936031e-05
-6.0975092e-16
1.0531127e-09
-5.5011999e-05
1.5500152e-15
-1.8766006e-10
-5.4944038e-05
8.5637862e-16
-4.4453195e-14
-5.4971052e-05
1.2035515e-15
1.8759417e-10
-5.4971052e-05
1.0903176e-15
-1.0531296e-09
-5.4944038e-05
1.3832699e-15
7.0955619e-10
-5.5011998e-05
-2.4362273e-16
-4.8068783e-09
-5.4936031e-05
1.7837402e-16
-5.494258e-05
-5.1981574e-16
-3.6764919e-09
-5.4940759e-05
-1.6827035e-16
-1.2194153e-09
-5.4940337e-05
-1.3536803e-15
-4.381207e-10
-5.5014543e-05
1.9307665e-15
-4.0307965e-10
-5.4945881e-05
2.6852577e-15
-4.6875284e-14
-5.4973215e-05
6.0485103e-16
4.0301296e-10
-5.4973215e-05
3.3829471e-16
4.381031e-10
-5.4945881e-05
2.1428251e-15
1.2194345e-09
-5.5014542e-05
-2.5441211e-16
3.6765161e-09
-5.4940336e-05
-2.2304214e-15
-5.4940759e-05
-2.0301565e-15
6.4464633e-09
-5.4947225e-05
3.1135494e-16
-5.7319498e-10
-5.4933315e-05
-3.7695935e-16
1.3622188e-09
-5.5016405e-05
-1.339384e-15
-1.4086124e-10
-5.4944339e-05
-2.8447917e-15
-4.5277e-14
-5.4973277e-05
-4.2073669e-16
1.407928e-10
-5.4973277e-05
-5.3419178e-16
-1.3622361e-09
-5.4944339e-05
-8.7101127e-16
5.7321628e-10
-5.5016404e-05
-2.8549114e-16
-6.4464386e-09
-5.4933314e-05
1.0067498e-15
-5.4947224e-05
2.4647672e-16
-5.0624909e-09
-5.494422e-05
1.3735114e-16
-1.2985002e-09
-5.4939138e-05
-6.0847473e-16
-7.0483359e-10
-5.5018976e-05
1.2593306e-15
-4.4369907e-10
-5.4946632e-05
1.7476082e-15
-4.7989258e-14
-5.4975706e-05
-3.2723609e-16
4.4363084e-10
-5.4975706e-05
-5.1481031e-16
7.0481574e-10
-5.4946631e-05
4.352765e-16
1.2985198e-09
-5.5018975e-05
5.88647e-17
5.0625157e-09
-5.4939138e-05
-1.346937e-15
-5.494422e-05
-2.9180807e-15
8.5013772e-09
-5.4952515e-05
2.4433447e-15
-3.9777171e-10
-5.4930017e-05
1.9035503e-15
1.7508654e-09
-5.5020839e-05
1.8185343e-15
-7.7933048e-11
-5.494456e-05
1.3039751e-16
-4.5404321e-14
-5.4975504e-05
-6.3211142e-16
7.7860991e-11
-5.4975504e-05
-4.6574676e-16
-1.7508829e-09
-5.494456e-05
-8.6724636e-16
3.9779409e-10
-5.5020838e-05
-1.0691879e-15
-8.5013522e-09
-5.4930017e-05
6.190382e-16
-5.4952514e-05
1.4901709e-15
-6.857973e-09
-5.494794e-05
-1.3912552e-15
-1.4104764e-09
-5.4937759e-05
-2.3082357e-15
-1.0533925e-09
-5.5023414e-05
-2.6248031e-15
-4.9582906e-10
-5.49474e-05
-2.1631849e-15
-4.9360107e-14
-5.4978238e-05
-6.5477792e-16
4.9575929e-10
-5.4978238e-05
-8.4452223e-16
1.0533739e-09
-5.4947399e-05
-2.7019147e-16
1.4104966e-09
-5.5023414e-05
-4.9143306e-16
6.8579993e-09
-5.4937758e-05
-6.3714779e-16
-5.494794e-05
-1.6529232e-15
1.105713e-08
-5.4958536e-05
2.4704386e-15
-1.6734912e-10
-5.4926064e-05
1.3610745e-15
2.2331026e-09
-5.5025292e-05
2.703449e-15
8.7745025e-12
-5.4944704e-05
1.3626199e-15
-4.552133e-14
-5.4977724e-05
-2.6420055e-16
-9.0390357e-12
-5.4977724e-05
-8.8910863e-16
-2.2331208e-09
-5.4944704e-05
-5.6833672e-16
1.6737411e-10
-5.5025292e-05
-2.408717e-16
-1.1057103e-08
-5.4926063e-05
5.5365017e-16
-5.4958536e-05
6.4884953e-16
-9.1490856e-09
-5.4951918e-05
-1.7602794e-15
-1.5629392e-09
-5.4936202e-05
-2.5387925e-15
-1.4989004e-09
-5.5027842e-05
8.2976406e-17
-5.6162449e-10
-5.4948199e-05
4.8661957e-16
-5.0098242e-14
-5.4980804e-05
-1.2018396e-15
5.6155408e-10
-5.4980804e-05
-1.864796e-15
1.4988815e-09
-5.4948199e-05
-1.0441744e-15
1.5629579e-09
-5.5027841e-05
-1.0795934e-15
9.1491124e-09
-5.4936202e-05
1.1017109e-15
-5.4951918e-05
2.0690065e-16
1.4213841e-08
-5.4965391e-05
2.489273e-15
1.0759329e-10
-5.4921352e-05
1.4556398e-15
2.8240507e-09
-5.5029776e-05
-7.5976119e-16
8.7834187e-11
-5.4944739e-05
-1.2841536e-15
-4.637486e-14
-5.4979967e-05
4.180613e-16
-8.7894892e-11
-5.4979967e-05
-7.1759729e-17
-2.8240692e-09
-5.4944739e-05
4.2583298e-17
-1.0757349e-10
-5.5029775e-05
1.1672167e-16
-1.4213813e-08
-5.4921351e-05
1.3815154e-15
-5.4965391e-05
1.6388823e-15
-1.2036696e-08
-5.4956156e-05
-1.915944e-15
-1.7645768e-09
-5.4934455e-05
-3.0833156e-15
-2.0576729e-09
-5.5032258e-05
-1.2029998e-15
-6.4345841e-10
-5.494901e-05
-1.9501927e-15
-5.1565411e-14
-5.4983433e-05
-1.8665061e-15
6.4338755e-10
-5.4983433e-05
-1.7616406e-15
2.0576545e-09
-5.4949009e-05
-1.5123067e-15
1.7645959e-09
-5.5032257e-05
-1.7141984e-15
1.2036723e-08
-5.4934454e-05
-1.5344488e-16
-5.4956156e-05
2.5677024e-16
1.8088611e-08
-5.4973203e-05
2.2665491e-15
3.9843024e-10
-5.4915725e-05
1.7305078e-15
3.539748e-09
-5.5034337e-05
-2.7652608e-16
1.9021071e-10
-5.4944664e-05
-8.810503e-16
-4.6503327e-14
-5.4982231e-05
1.0774953e-15
-1.9027466e-10
-5.4982231e-05
5.813428e-16
-3.5397668e-09
-5.4944664e-05
9.2985802e-16
-3.9840787e-10
-5.5034337e-05
5.2522348e-16
-1.8088583e-08
-5.4915724e-05
-5.6335781e-16
-5.4973202e-05
-1.1198532e-15
-1.5638701e-08
-5.4960654e-05
-1.616779e-15
-2.0252521e-09
-5.4932468e-05
-3.2116793e-15
-2.7471012e-09
-5.5036699e-05
-1.627792e-15
-7.4395168e-10
-5.494984e-05
-1.9967546e-15
-5.2774063e-14
-5.4986123e-05
-2.7426438e-15
7.4388008e-10
-5.4986123e-05
-2.0976932e-15
2.7470831e-09
-5.4949839e-05
-1.7532881e-15
2.0252715e-09
-5.5036699e-05
-1.5028933e-15
1.5638729e-08
-5.4932467e-05
2.8471467e-16
-5.4960653e-05
-1.3914823e-16
2.2818168e-08
-5.4982113e-05
2.2690766e-15
7.6499083e-10
-5.4909063e-05
2.2465431e-15
4.3968929e-09
-5.5038975e-05
4.0739435e-16
3.1569087e-10
-5.4944475e-05
-4.8288991e-17
-4.6571639e-14
-5.498452e-05
1.9393511e-15
-3.1575712e-10
-5.4984519e-05
7.4241009e-16
-4.3969127e-09
-5.4944474e-05
8.0813878e-16
-7.6496681e-10
-5.5038974e-05
1.4164597e-15
-2.281814e-08
-5.4909062e-05
1.3468734e-15
-5.4982113e-05
1.1593231e-15
-2.0092715e-08
-5.4965415e-05
-2.1372142e-15
-2.3560911e-09
-5.4930242e-05
-3.1618611e-15
-3.5854313e-09
-5.5041153e-05
-1.6406963e-15
-8.6598283e-10
-5.4950696e-05
-2.2911772e-15
-5.3920025e-14
-5.4988873e-05
-3.5699963e-15
8.6591024e-10
-5.4988873e-05
-2.5159436e-15
3.5854138e-09
-5.4950696e-05
-1.9415897e-15
2.3561122e-09
-5.5041152e-05
4.7450685e-16
2.0092744e-08
-5.4930241e-05
2.7162994e-16
-5.4965415e-05
-2.0236219e-15
2.8562056e-08
-5.4992292e-05
3.476876e-15
1.2137182e-09
-5.490122e-05
2.7773888e-15
5.4125211e-09
-5.5043691e-05
1.0009358e-15
4.6655174e-10
-5.4944167e-05
8.7357964e-16
-4.6414672e-14
-5.4986834e-05
3.1526264e-15
-4.6661948e-10
-5.4986834e-05
1.6314513e-15
-5.4125416e-09
-5.4944166e-05
2.2152336e-15
-1.2136951e-09
-5.504369e-05
-1.0529681e-15
-2.8562028e-08
-5.4901219e-05
-5.3357736e-16
-5.4992291e-05
1.2537677e-15
-2.5559248e-08
-5.4970443e-05
-7.1377156e-16
-2.7695409e-09
-5.4927776e-05
-1.0895623e-15
-4.5914388e-09
-5.504561e-05
-2.0985295e-15
-1.0126977e-09
-5.4951584e-05
-2.8947669e-16
-5.4837629e-14
-5.4991682e-05
-2.0656703e-15
1.012625e-09
-5.4991682e-05
-3.0344093e-16
4.5914214e-09
-5.4951583e-05
-2.3287477e-16
2.7695608e-09
-5.5045609e-05
-1.2352984e-15
2.5559278e-08
-5.4927776e-05
2.5212733e-15
-5.4970442e-05
5.260428e-16
3.5506389e-08
-5.5003932e-05
1.9115656e-15
1.7563979e-09
-5.4892026e-05
-1.6759852e-16
6.6035302e-09
-5.5048486e-05
3.7277121e-15
6.4571731e-10
-5.4943734e-05
1.3553575e-15
-4.5917492e-14
-5.4989174e-05
1.0512783e-15
-6.4578746e-10
-5.4989174e-05
-4.3763126e-16
-6.6035527e-09
-5.4943734e-05
3.5881469e-16
-1.7563739e-09
-5.5048485e-05
-9.126301e-16
-3.550636e-08
-5.4892025e-05
-7.5638099e-16
-5.5003932e-05
9.0571919e-16
-3.2225488e-08
-5.4975738e-05
-1.6331853e-15
-3.2794036e-09
-5.4925068e-05
-2.5444073e-15
-5.7839641e-09
-5.5050058e-05
3.2843169e-15
-1.1875114e-09
-5.4952506e-05
5.5249148e-15
-5.5087228e-14
-5.4994544e-05
-2.5322116e-15
1.187439e-09
-5.4994544e-05
1.4976942e-17
5.7839481e-09
-5.4952505e-05
1.6024859e-16
3.2794247e-09
-5.5050058e-05
-1.0924901e-15
3.2225518e-08
-5.4925067e-05
-4.541491e-16
-5.4975737e-05
-1.219735e-15
4.3868294e-08
-5.501726e-05
1.5964231e-15
2.4070082e-09
-5.4881281e-05
-5.0413795e-17
7.9860384e-09
-5.5053359e-05
1.3357949e-15
8.5647202e-10
-5.4943174e-05
1.9568507e-15
-4.6176682e-14
-5.4991533e-05
3.672161e-15
-8.5654419e-10
-5.4991533e-05
2.363357e-15
-7.9860624e-09
-5.4943173e-05
3.4159648e-15
-2.4069819e-09
-5.5053358e-05
-7.1376326e-16
-4.3868265e-08
-5.4881281e-05
1.2863336e-15
-5.501726e-05
2.3094891e-15
-4.0309723e-08
-5.49813e-05
-2.007692e-15
-3.9008442e-09
-5.4922113e-05
-2.4431022e-15
-7.1812749e-09
-5.5054488e-05
-4.0136368e-16
-1.3941041e-09
-5.4953465e-05
-1.2160592e-15
-5.6125275e-14
-5.4997449e-05
-5.1858979e-15
1.3940329e-09
-5.4997449e-05
-3.1734977e-15
7.1812607e-09
-5.4953464e-05
-2.0598503e-15
3.9008659e-09
-5.5054487e-05
-6.9725684e-16
4.0309754e-08
-5.4922113e-05
-3.2425244e-15
-5.49813e-05
-4.6404337e-15
5.390113e-08
-5.5032535e-05
2.2689312e-15
3.1811838e-09
-5.4868752e-05
4.499682e-16
9.5745209e-09
-5.5058302e-05
9.3614002e-16
1.1023926e-09
-5.4942482e-05
4.2622104e-16
-4.5912748e-14
-5.4993902e-05
3.405645e-15
-1.1024663e-09
-5.4993902e-05
2.0900143e-15
-9.5745469e-09
-5.4942481e-05
2.7719752e-15
-3.1811577e-09
-5.5058301e-05
-1.813808e-16
-5.3901102e-08
-5.4868751e-05
4.7757493e-16
-5.5032535e-05
1.6358895e-15
-5.0066567e-08
-5.4987132e-05
-1.5211211e-15
-4.6503708e-09
-5.4918912e-05
-2.6882099e-15
-8.8002058e-09
-5.5058885e-05
-1.1888718e-15
-1.6364069e-09
-5.4954466e-05
-1.5888472e-15
-5.6587936e-14
-5.5000383e-05
-5.2907289e-15
1.6363371e-09
-5.5000382e-05
-2.9700402e-15
8.8001936e-09
-5.4954465e-05
-3.0583477e-15
4.6503931e-09
-5.5058884e-05
-2.7059728e-16
5.0066598e-08
-5.4918911e-05
-3.5817715e-15
-5.4987131e-05
-5.1407842e-15
6.5900721e-08
-5.505006e-05
2.2086946e-15
4.0960351e-09
-5.4854163e-05
-7.185978e-17
1.1380667e-08
-5.5063303e-05
1.0905025e-15
1.3873267e-09
-5.4941659e-05
1.4768563e-15
-4.5660644e-14
-5.4996263e-05
4.2702057e-15
-1.3874025e-09
-5.4996263e-05
2.187044e-15
-1.1380695e-08
-5.4941658e-05
3.131838e-15
-4.0960088e-09
-5.5063303e-05
-8.0177866e-16
-6.5900693e-08
-5.4854162e-05
-1.1491093e-16
-5.5050059e-05
1.78443e-15
-6.1793258e-08
-5.4993233e-05
-1.3190086e-15
-5.545792e-09
-5.4915464e-05
-2.5387433e-15
-1.0655014e-08
-5.5063237e-05
-9.0160985e-16
-1.9185727e-09
-5.4955516e-05
-2.0164557e-15
-5.6970341e-14
-5.5003327e-05
-6.564424e-15
1.9185052e-09
-5.5003327e-05
-2.5118184e-15
1.0655005e-08
-5.4955516e-05
-2.3502596e-15
5.5458149e-09
-5.5063237e-05
7.6337235e-16
6.179329e-08
-5.4915463e-05
-1.9159762e-15
-5.4993232e-05
-3.9719133e-15
8.0212936e-08
-5.5070187e-05
2.1295861e-15
5.170046e-09
-5.4837192e-05
-2.5878679e-16
1.3411869e-08
-5.5068343e-05
-2.1928984e-17
1.7153949e-09
-5.4940714e-05
2.2765499e-15
-4.4820244e-14
-5.4998596e-05
6.6903199e-15
-1.715474e-09
-5.4998595e-05
1.4709774e-15
-1.3411901e-08
-5.4940713e-05
2.310949e-15
-5.1700195e-09
-5.5068343e-05
2.7114024e-15
-8.0212908e-08
-5.4837191e-05
5.4560998e-15
-5.5070187e-05
5.3082119e-15
-7.5837346e-08
-5.4999607e-05
-6.2822412e-16
-6.6061431e-09
-5.4911773e-05
-1.9347161e-15
-1.2755874e-08
-5.506753e-05
-1.6203589e-16
-2.2449471e-09
-5.4956628e-05
-1.8382017e-15
-5.7087589e-14
-5.5006263e-05
-6.7778823e-15
2.2448835e-09
-5.5006263e-05
-1.3076491e-15
1.2755869e-08
-5.4956627e-05
-2.4143167e-15
6.6061664e-09
-5.5067529e-05
-3.0308767e-15
7.5837378e-08
-5.4911772e-05
-8.4704633e-15
-5.4999607e-05
-7.160504e-15
9.7242956e-08
-5.5093329e-05
7.3681619e-16
6.4229915e-09
-5.4817457e-05
-7.7153803e-16
1.5669255e-08
-5.5073389e-05
1.1547558e-16
2.0909934e-09
-5.4939662e-05
2.4484514e-15
-4.4184816e-14
-5.5000874e-05
7.2240129e-15
-2.0910758e-09
-5.5000874e-05
1.169689e-15
-1.5669291e-08
-5.4939661e-05
3.397486e-15
-6.4229645e-09
-5.5073388e-05
2.219692e-15
-9.7242927e-08
-5.4817457e-05
5.9077873e-15
-5.5093329e-05
5.7000051e-15
-9.260611e-08
-5.5006259e-05
-1.2107966e-16
-7.8515898e-09
-5.4907842e-05
-2.1537691e-15
-1.510692e-08
-5.5071744e-05
1.5782906e-15
-2.6200321e-09
-5.4957816e-05
-3.489817e-16
-5.6884862e-14
-5.5009169e-05
-8.7087695e-15
2.6199713e-09
-5.5009169e-05
-1.1250726e-15
1.5106918e-08
-5.4957815e-05
-2.5455926e-15
7.8516136e-09
-5.5071743e-05
1.9302899e-16
9.2606142e-08
-5.4907841e-05
-2.7259452e-15
-5.5006258e-05
-4.6242444e-15
1.1746674e-07
-5.5119965e-05
5.1723246e-16
7.8758529e-09
-5.4794507e-05
-2.2829562e-15
1.8145122e-08
-5.5078389e-05
7.4701786e-15
2.5187875e-09
-5.4938529e-05
9.9091705e-15
-4.2629188e-14
-5.5003069e-05
9.099452e-15
-2.5188721e-09
-5.5003069e-05
1.2335145e-15
-1.8145161e-08
-5.4938528e-05
3.9504027e-15
-7.8758261e-09
-5.5078388e-05
-1.3600943e-15
-1.1746671e-07
-5.4794506e-05
-1.0073344e-15
-5.5119965e-05
2.4585831e-15
-1.1257835e-07
-5.5013188e-05
1.7401497e-15
-9.3033083e-09
-5.4903678e-05
-5.6434117e-16
-1.7703703e-08
-5.5075854e-05
-5.4017156e-15
-3.0484508e-09
-5.4959098e-05
-7.0134898e-15
-5.7669024e-14
-5.5012026e-05
-9.306357e-15
3.0483941e-09
-5.5012025e-05
-1.5288782e-15
1.7703705e-08
-5.4959097e-05
-3.3777933e-15
9.3033321e-09
-5.5075853e-05
-9.5345214e-16
1.1257838e-07
-5.4903677e-05
-4.4762157e-15
-5.5013188e-05
-4.8343137e-15
1.4144527e-07
-5.5150654e-05