/*--------------------------------*- C++ -*----------------------------------*\
  =========                 |
  \\      /  F ield         | OpenFOAM: The Open Source CFD Toolbox
   \\    /   O peration     | Website:  https://openfoam.org
    \\  /    A nd           | Version:  8
     \\/     M anipulation  |
\*---------------------------------------------------------------------------*/
FoamFile
{
    version     2.0;
    format      ascii;
    class       volVectorField;
    location    "0.8";
    object      U;
}
// * * * * * * * * * * * * * * * * * * * * * * * * * * * * * * * * * * * * * //

dimensions      [0 1 -1 0 0 0 0];

internalField   nonuniform List<vector> 
2000
(
(-2.6227179e-06 -0.0004418258 -5.2998727e-06)
(-4.9311997e-07 -0.00044183222 -5.3049464e-06)
(-1.0861834e-07 -0.00044183365 -5.3049616e-06)
(1.5296057e-07 -0.00044183095 -5.3049882e-06)
(-2.6271826e-07 -0.0004418322 -5.3049801e-06)
(2.6267402e-07 -0.0004418322 -5.3049803e-06)
(-1.5298256e-07 -0.00044183094 -5.3049884e-06)
(1.0861978e-07 -0.00044183365 -5.3049618e-06)
(4.9313346e-07 -0.00044183222 -5.3049462e-06)
(2.6227254e-06 -0.0004418258 -5.2998726e-06)
(-4.1754947e-06 -0.00084318042 -8.3624831e-06)
(-1.0151991e-06 -0.00084330451 -8.3724995e-06)
(-2.2645253e-07 -0.00084326269 -8.372522e-06)
(2.8800598e-07 -0.00084324542 -8.3725188e-06)
(-5.1403685e-07 -0.00084325161 -8.3725241e-06)
(5.1399913e-07 -0.00084325161 -8.372524e-06)
(-2.8802521e-07 -0.00084324542 -8.372519e-06)
(2.2645684e-07 -0.00084326269 -8.3725223e-06)
(1.0152117e-06 -0.00084330451 -8.3724993e-06)
(4.1755025e-06 -0.00084318042 -8.3624829e-06)
(-2.30666e-06 -0.00087870809 -4.5844881e-06)
(-1.2528728e-06 -0.00087892692 -4.5923594e-06)
(-2.834057e-07 -0.00087886836 -4.5923739e-06)
(3.3929658e-07 -0.00087882579 -4.5923649e-06)
(-6.2140948e-07 -0.00087884088 -4.5923732e-06)
(6.2137242e-07 -0.00087884088 -4.5923731e-06)
(-3.3931646e-07 -0.00087882579 -4.5923651e-06)
(2.8341073e-07 -0.00087886836 -4.5923741e-06)
(1.2528856e-06 -0.00087892692 -4.5923593e-06)
(2.3066675e-06 -0.00087870809 -4.5844881e-06)
(-1.0159328e-06 -0.00091581417 -2.0031368e-06)
(-1.3385973e-06 -0.00091607697 -2.0075828e-06)
(-3.0782189e-07 -0.00091602518 -2.0076132e-06)
(3.5656068e-07 -0.00091596053 -2.0075966e-06)
(-6.6279058e-07 -0.00091598279 -2.0076083e-06)
(6.6275283e-07 -0.00091598279 -2.0076084e-06)
(-3.5657898e-07 -0.00091596053 -2.0075969e-06)
(3.078253e-07 -0.00091602518 -2.0076135e-06)
(1.3386109e-06 -0.00091607697 -2.0075826e-06)
(1.0159396e-06 -0.00091581416 -2.0031366e-06)
(-3.453441e-07 -0.00089403336 -6.8745458e-07)
(-1.3557635e-06 -0.00089432219 -6.8959499e-07)
(-3.161642e-07 -0.0008942912 -6.8960742e-07)
(3.6185033e-07 -0.00089419635 -6.8959559e-07)
(-6.7721692e-07 -0.00089422933 -6.8960468e-07)
(6.7717868e-07 -0.00089422933 -6.896049e-07)
(-3.6186769e-07 -0.00089419635 -6.895959e-07)
(3.1616631e-07 -0.0008942912 -6.8960757e-07)
(1.3557776e-06 -0.00089432219 -6.8959485e-07)
(3.4535012e-07 -0.00089403336 -6.8745447e-07)
(-1.0759e-07 -0.00091302811 -2.5607793e-07)
(-1.3435813e-06 -0.00091333835 -2.5705121e-07)
(-3.1825475e-07 -0.00091332757 -2.5708152e-07)
(3.6389235e-07 -0.00091321156 -2.5705899e-07)
(-6.8210113e-07 -0.00091325124 -2.5707275e-07)
(6.8206252e-07 -0.00091325124 -2.5707292e-07)
(-3.6390922e-07 -0.00091321156 -2.5705924e-07)
(3.1825614e-07 -0.00091332757 -2.5708156e-07)
(1.3435955e-06 -0.00091333835 -2.5705102e-07)
(1.0759559e-07 -0.00091302811 -2.5607783e-07)
(2.083677e-08 -0.00089704276 -4.749566e-08)
(-1.3219261e-06 -0.00089735835 -4.8004076e-08)
(-3.1758032e-07 -0.00089737942 -4.801201e-08)
(3.6502457e-07 -0.00089722934 -4.80032e-08)
(-6.837556e-07 -0.0008972816 -4.8010586e-08)
(6.837169e-07 -0.0008972816 -4.8010849e-08)
(-3.6504125e-07 -0.00089722934 -4.8003387e-08)
(3.175815e-07 -0.00089737942 -4.801205e-08)
(1.32194e-06 -0.00089735835 -4.8004011e-08)
(-2.0831281e-08 -0.00089704276 -4.7495592e-08)
(5.596668e-08 -0.00091082717 -3.1633836e-08)
(-1.2963337e-06 -0.0009111678 -3.1926136e-08)
(-3.1638179e-07 -0.00091120641 -3.1961625e-08)
(3.6656588e-07 -0.00091103957 -3.1932492e-08)
(-6.8492086e-07 -0.0009110967 -3.1948988e-08)
(6.8488201e-07 -0.0009110967 -3.1949187e-08)
(-3.6658239e-07 -0.00091103957 -3.193274e-08)
(3.1638248e-07 -0.00091120641 -3.1961534e-08)
(1.296348e-06 -0.0009111678 -3.1926069e-08)
(-5.5961375e-08 -0.00091082717 -3.1633778e-08)
(1.0192664e-07 -0.00089856922 8.4242057e-09)
(-1.2706275e-06 -0.00089890102 8.1778165e-09)
(-3.1465054e-07 -0.0008989802 8.1768492e-09)
(3.6782775e-07 -0.00089877262 8.1785291e-09)
(-6.8557324e-07 -0.00089884553 8.1746777e-09)
(6.855344e-07 -0.00089884553 8.1743104e-09)
(-3.6784413e-07 -0.00089877262 8.1782551e-09)
(3.1465096e-07 -0.0008989802 8.1768386e-09)
(1.2706419e-06 -0.00089890102 8.1777722e-09)
(-1.0192135e-07 -0.00089856922 8.4242382e-09)
(1.2251552e-07 -0.00090989269 -7.6889222e-09)
(-1.2439895e-06 -0.00091026183 -7.8301195e-09)
(-3.1312368e-07 -0.00091034958 -7.87676e-09)
(3.7004856e-07 -0.00091013401 -7.8368505e-09)
(-6.8689458e-07 -0.00091020798 -7.8580356e-09)
(6.868556e-07 -0.00091020798 -7.8583209e-09)
(-3.7006496e-07 -0.00091013401 -7.8368912e-09)
(3.1312425e-07 -0.00091034957 -7.8767794e-09)
(1.2440039e-06 -0.00091026183 -7.8299498e-09)
(-1.2251015e-07 -0.00090989269 -7.688786e-09)
(1.5511508e-07 -0.00089888692 5.7706644e-09)
(-1.2183686e-06 -0.00089922639 5.5964796e-09)
(-3.1127531e-07 -0.00089936886 5.6096162e-09)
(3.715193e-07 -0.00089910015 5.5971135e-09)
(-6.8751695e-07 -0.00089919569 5.599584e-09)
(6.8747814e-07 -0.00089919569 5.5993534e-09)
(-3.715358e-07 -0.00089910015 5.5969308e-09)
(3.1127576e-07 -0.00089936886 5.6096583e-09)
(1.2183831e-06 -0.00089922639 5.5968373e-09)
(-1.5510973e-07 -0.00089888692 5.7709737e-09)
(1.8235249e-07 -0.00091019048 -2.5303048e-10)
(-1.1916502e-06 -0.00091059037 -2.8134479e-10)
(-3.0973745e-07 -0.00091072419 -3.4889804e-10)
(3.7466553e-07 -0.00091046398 -2.8918408e-10)
(-6.8945201e-07 -0.00091055327 -3.193959e-10)
(6.8941313e-07 -0.00091055327 -3.1956542e-10)
(-3.7468212e-07 -0.00091046398 -2.8925837e-10)
(3.0973814e-07 -0.00091072419 -3.4875745e-10)
(1.1916649e-06 -0.00091059037 -2.810837e-10)
(-1.8234729e-07 -0.00091019048 -2.5268611e-10)
(2.0690241e-07 -0.00089788317 -1.1336893e-09)
(-1.1666201e-06 -0.00089821814 -1.2654804e-09)
(-3.0782125e-07 -0.00089843167 -1.2259402e-09)
(3.7609461e-07 -0.00089809564 -1.2637304e-09)
(-6.8990139e-07 -0.00089821694 -1.2498547e-09)
(6.8986265e-07 -0.00089821694 -1.2500849e-09)
(-3.7611148e-07 -0.00089809564 -1.2639565e-09)
(3.0782228e-07 -0.00089843166 -1.2259125e-09)
(1.1666342e-06 -0.00089821814 -1.26526e-09)
(-2.068968e-07 -0.00089788317 -1.133463e-09)
(2.441078e-07 -0.00091199181 7.4837718e-09)
(-1.1396156e-06 -0.0009124292 7.5886368e-09)
(-3.0635468e-07 -0.00091260256 7.4843304e-09)
(3.805664e-07 -0.00091230506 7.5786792e-09)
(-6.9279699e-07 -0.00091240665 7.5328211e-09)
(6.9275822e-07 -0.00091240665 7.5326829e-09)
(-3.8058293e-07 -0.00091230506 7.5787235e-09)
(3.0635492e-07 -0.00091260256 7.4842508e-09)
(1.1396304e-06 -0.00091242919 7.5886627e-09)
(-2.4410245e-07 -0.00091199181 7.4837472e-09)
(2.5804759e-07 -0.0008951117 -1.0269716e-08)
(-1.1155411e-06 -0.00089542361 -1.0387436e-08)
(-3.0432906e-07 -0.00089572061 -1.0300355e-08)
(3.8146716e-07 -0.00089530678 -1.0383387e-08)
(-6.926729e-07 -0.00089545892 -1.0349112e-08)
(6.9263432e-07 -0.00089545892 -1.0349246e-08)
(-3.8148348e-07 -0.00089530678 -1.0383556e-08)
(3.0432803e-07 -0.00089572061 -1.030041e-08)
(1.115557e-06 -0.00089542361 -1.0387372e-08)
(-2.5804269e-07 -0.0008951117 -1.0269647e-08)
(3.0976755e-07 -0.00091594693 1.8301105e-08)
(-1.0877905e-06 -0.00091643603 1.8577899e-08)
(-3.0303873e-07 -0.00091663656 1.8409592e-08)
(3.8798645e-07 -0.00091631467 1.8564673e-08)
(-6.9713e-07 -0.00091642299 1.8491148e-08)
(6.9709146e-07 -0.00091642299 1.8491097e-08)
(-3.8800297e-07 -0.00091631467 1.856455e-08)
(3.0303895e-07 -0.00091663656 1.8409455e-08)
(1.0878052e-06 -0.00091643603 1.8577817e-08)
(-3.0976237e-07 -0.00091594693 1.8300961e-08)
(3.0702029e-07 -0.00088968391 -2.3771299e-08)
(-1.0652689e-06 -0.00088994398 -2.3921807e-08)
(-3.0080928e-07 -0.00089034456 -2.3752497e-08)
(3.8744844e-07 -0.00088983532 -2.3913362e-08)
(-6.9567664e-07 -0.0008900266 -2.3843622e-08)
(6.9563797e-07 -0.0008900266 -2.3843685e-08)
(-3.8746508e-07 -0.00088983532 -2.3913217e-08)
(3.008101e-07 -0.00089034456 -2.3752285e-08)
(1.065283e-06 -0.00088994398 -2.3921773e-08)
(-3.0701512e-07 -0.00088968391 -2.377134e-08)
(3.8168785e-07 -0.00092322683 3.4965911e-08)
(-1.0359823e-06 -0.00092379391 3.5477288e-08)
(-2.9987041e-07 -0.0009239998 3.519987e-08)
(3.9730314e-07 -0.0009236753 3.5457084e-08)
(-7.0276691e-07 -0.00092378072 3.533729e-08)
(7.0272842e-07 -0.00092378072 3.5337188e-08)
(-3.9731965e-07 -0.0009236753 3.5457144e-08)
(2.9987068e-07 -0.0009239998 3.5199772e-08)
(1.0359965e-06 -0.00092379391 3.5476989e-08)
(-3.8168242e-07 -0.00092322683 3.4965643e-08)
(3.5129838e-07 -0.00088009625 -4.491144e-08)
(-1.0160165e-06 -0.00088026003 -4.5169808e-08)
(-2.9726086e-07 -0.00088079626 -4.4862109e-08)
(3.9367755e-07 -0.00088016289 -4.5153294e-08)
(-6.9861128e-07 -0.00088040669 -4.5024327e-08)
(6.985726e-07 -0.00088040669 -4.5024421e-08)
(-3.9369416e-07 -0.00088016289 -4.5153072e-08)
(2.9726008e-07 -0.00088079626 -4.4861917e-08)
(1.0160326e-06 -0.00088026003 -4.5170048e-08)
(-3.5129357e-07 -0.00088009625 -4.4911761e-08)
(4.6338405e-07 -0.00093572707 6.1401288e-08)
(-9.8386443e-07 -0.00093641674 6.224382e-08)
(-2.9696926e-07 -0.00093659173 6.1788306e-08)
(4.0912216e-07 -0.00093629997 6.2213107e-08)
(-7.1021636e-07 -0.00093638665 6.2017117e-08)
(7.1017798e-07 -0.00093638665 6.2016913e-08)
(-4.0913865e-07 -0.00093629997 6.2212929e-08)
(2.969689e-07 -0.00093659173 6.1788176e-08)
(9.8387954e-07 -0.00093641674 6.2243519e-08)
(-4.63379e-07 -0.00093572707 6.1401224e-08)
(3.869885e-07 -0.00086399841 -7.8356296e-08)
(-9.6813301e-07 -0.00086399849 -7.8836945e-08)
(-2.9364775e-07 -0.0008647202 -7.8305234e-08)
(3.9951289e-07 -0.00086391753 -7.880587e-08)
(-7.0094086e-07 -0.00086423475 -7.8581569e-08)
(7.0090227e-07 -0.00086423475 -7.8581641e-08)
(-3.9952931e-07 -0.00086391753 -7.880585e-08)
(2.9364709e-07 -0.0008647202 -7.8305318e-08)
(9.6814878e-07 -0.00086399849 -7.8837263e-08)
(-3.8698367e-07 -0.00086399841 -7.835634e-08)
(5.600471e-07 -0.00095631935 1.03097e-07)
(-9.3093458e-07 -0.00095720253 1.044122e-07)
(-2.9450489e-07 -0.00095728964 1.0367669e-07)
(4.2440345e-07 -0.00095708532 1.043638e-07)
(-7.2028395e-07 -0.00095712853 1.0404848e-07)
(7.2024551e-07 -0.00095712853 1.0404849e-07)
(-4.2441962e-07 -0.00095708532 1.0436383e-07)
(2.9450408e-07 -0.00095728963 1.0367674e-07)
(9.3095049e-07 -0.00095720253 1.0441199e-07)
(-5.6004248e-07 -0.00095631935 1.0309696e-07)
(4.0832361e-07 -0.00083793483 -1.3047238e-07)
(-9.2215829e-07 -0.00083767249 -1.3133844e-07)
(-2.8988319e-07 -0.00083865388 -1.3046251e-07)
(4.0389044e-07 -0.00083761428 -1.3128486e-07)
(-7.0177261e-07 -0.00083803616 -1.3091387e-07)
(7.0173398e-07 -0.00083803615 -1.3091382e-07)
(-4.0390666e-07 -0.00083761427 -1.3128443e-07)
(2.8988318e-07 -0.00083865387 -1.3046235e-07)
(9.2217306e-07 -0.00083767248 -1.3133854e-07)
(-4.0831852e-07 -0.00083793482 -1.3047232e-07)
(6.7902471e-07 -0.00098909904 1.6730447e-07)
(-8.7642938e-07 -0.00099028123 1.6928577e-07)
(-2.9273016e-07 -0.0009901962 1.6813195e-07)
(4.4461342e-07 -0.00099015927 1.6920993e-07)
(-7.3420816e-07 -0.00099012269 1.687162e-07)
(7.3416998e-07 -0.00099012269 1.6871614e-07)
(-4.4462973e-07 -0.00099015927 1.6921004e-07)
(2.9273055e-07 -0.00099019619 1.6813187e-07)
(8.7644362e-07 -0.00099028123 1.6928581e-07)
(-6.7901957e-07 -0.00098909904 1.6730434e-07)
(4.0724119e-07 -0.00079713058 -2.0934744e-07)
(-8.7889407e-07 -0.000796468 -2.1081411e-07)
(-2.8580104e-07 -0.00079781364 -2.0943802e-07)
(4.0515696e-07 -0.0007964417 -2.1072643e-07)
(-6.9971548e-07 -0.0007970123 -2.101425e-07)
(6.9967717e-07 -0.0007970123 -2.1014258e-07)
(-4.0517339e-07 -0.00079644169 -2.1072633e-07)
(2.8580152e-07 -0.00079781364 -2.0943828e-07)
(8.7890787e-07 -0.000796468 -2.1081398e-07)
(-4.0723555e-07 -0.00079713057 -2.0934746e-07)
(8.3015328e-07 -0.0010395415 2.6283399e-07)
(-8.1925924e-07 -0.0010411694 2.6572428e-07)
(-2.9201392e-07 -0.0010407958 2.6398176e-07)
(4.7190038e-07 -0.0010410357 2.6560807e-07)
(-7.5380962e-07 -0.0010408694 2.6486379e-07)
(7.537715e-07 -0.0010408694 2.6486372e-07)
(-4.7191673e-07 -0.0010410357 2.6560816e-07)
(2.9201431e-07 -0.0010407958 2.6398158e-07)
(8.1927331e-07 -0.0010411694 2.6572434e-07)
(-8.3014777e-07 -0.0010395415 2.6283411e-07)
(3.7319876e-07 -0.00073541587 -3.2433454e-07)
(-8.3948106e-07 -0.00073417149 -3.2666022e-07)
(-2.8111698e-07 -0.00073601954 -3.2460295e-07)
(4.0090947e-07 -0.00073418945 -3.2652448e-07)
(-6.9273789e-07 -0.000734967 -3.2565055e-07)
(6.9269955e-07 -0.000734967 -3.2565047e-07)
(-4.0092589e-07 -0.00073418944 -3.2652435e-07)
(2.8111708e-07 -0.00073601953 -3.2460308e-07)
(8.3949594e-07 -0.00073417149 -3.266604e-07)
(-3.7319384e-07 -0.00073541587 -3.2433463e-07)
(1.0257778e-06 -0.0011144788 3.9933945e-07)
(-7.5793381e-07 -0.001116743 4.0341921e-07)
(-2.9287853e-07 -0.0011159311 4.0090017e-07)
(5.0923544e-07 -0.0011165872 4.0324712e-07)
(-7.8161979e-07 -0.0011162272 4.0217237e-07)
(7.8158188e-07 -0.0011162272 4.0217245e-07)
(-5.0925175e-07 -0.0011165872 4.0324711e-07)
(2.9287924e-07 -0.0011159311 4.0090031e-07)
(7.5794799e-07 -0.001116743 4.0341892e-07)
(-1.025773e-06 -0.0011144788 3.9933933e-07)
(2.9330879e-07 -0.00064535666 -4.8511284e-07)
(-8.0546665e-07 -0.00064330369 -4.885819e-07)
(-2.7538895e-07 -0.00064582561 -4.856557e-07)
(3.8787553e-07 -0.00064338261 -4.8838135e-07)
(-6.7805862e-07 -0.00064443898 -4.8713769e-07)
(6.7802037e-07 -0.00064443898 -4.8713761e-07)
(-3.8789194e-07 -0.00064338261 -4.8838146e-07)
(2.7539071e-07 -0.00064582561 -4.8565567e-07)
(8.0547969e-07 -0.00064330369 -4.8858229e-07)
(-2.9330372e-07 -0.00064535665 -4.8511327e-07)
(1.2805296e-06 -0.0012218676 5.8623392e-07)
(-6.9048247e-07 -0.0012250009 5.9179799e-07)
(-2.9606311e-07 -0.0012235704 5.8832021e-07)
(5.6049876e-07 -0.0012248088 5.9155333e-07)
(-8.2096547e-07 -0.0012241786 5.9007083e-07)
(8.2092756e-07 -0.0012241786 5.9007081e-07)
(-5.6051479e-07 -0.0012248088 5.9155317e-07)
(2.9606426e-07 -0.0012235704 5.8832027e-07)
(6.904969e-07 -0.0012250009 5.9179817e-07)
(-1.2805254e-06 -0.0012218676 5.8623423e-07)
(1.5269257e-07 -0.00051857052 -7.0055788e-07)
(-7.7886352e-07 -0.00051544158 -7.0545746e-07)
(-2.6797353e-07 -0.00051883704 -7.0148899e-07)
(3.6186213e-07 -0.00051560258 -7.0517437e-07)
(-6.5209152e-07 -0.00051702105 -7.0348776e-07)
(6.5205325e-07 -0.00051702104 -7.0348806e-07)
(-3.6187856e-07 -0.00051560257 -7.0517446e-07)
(2.6797473e-07 -0.00051883704 -7.0148875e-07)
(7.7887747e-07 -0.00051544158 -7.0545707e-07)
(-1.5268748e-07 -0.00051857051 -7.0055768e-07)
(1.6109125e-06 -0.0013704144 8.3162244e-07)
(-6.1440935e-07 -0.0013746864 8.3895932e-07)
(-3.0255604e-07 -0.0013724324 8.3436628e-07)
(6.3049501e-07 -0.0013744396 8.3862455e-07)
(-8.7599526e-07 -0.0013734528 8.366678e-07)
(8.7595791e-07 -0.0013734528 8.366676e-07)
(-6.3051135e-07 -0.0013744396 8.3862423e-07)
(3.0255714e-07 -0.0013724324 8.3436587e-07)
(6.144235e-07 -0.0013746864 8.3895968e-07)
(-1.6109078e-06 -0.0013704144 8.3162267e-07)
(-6.5161393e-08 -0.00034612902 -9.7783661e-07)
(-7.6220597e-07 -0.0003416216 -9.8443911e-07)
(-2.5798133e-07 -0.00034611195 -9.7928952e-07)
(3.1776656e-07 -0.00034189072 -9.8405717e-07)
(-6.1044139e-07 -0.00034376288 -9.8186937e-07)
(6.1040353e-07 -0.00034376288 -9.8186938e-07)
(-3.1778304e-07 -0.00034189072 -9.8405746e-07)
(2.5798268e-07 -0.00034611194 -9.7929021e-07)
(7.6221949e-07 -0.0003416216 -9.8443947e-07)
(6.5166368e-08 -0.00034612901 -9.7783689e-07)
(2.0350443e-06 -0.0015691774 1.1416334e-06)
(-5.2662436e-07 -0.0015748889 1.1510126e-06)
(-3.1365216e-07 -0.001571589 1.1451853e-06)
(7.2492862e-07 -0.0015745644 1.1505716e-06)
(-9.5167321e-07 -0.0015731281 1.1480909e-06)
(9.5163598e-07 -0.0015731281 1.1480908e-06)
(-7.249449e-07 -0.0015745644 1.1505719e-06)
(3.136531e-07 -0.001571589 1.1451855e-06)
(5.2663867e-07 -0.0015748889 1.1510129e-06)
(-2.0350397e-06 -0.0015691774 1.1416334e-06)
(-3.7823754e-07 -0.00011892606 -1.3220064e-06)
(-7.5860668e-07 -0.00011270804 -1.3305613e-06)
(-2.4423322e-07 -0.00011852976 -1.3241351e-06)
(2.4961821e-07 -0.00011311663 -1.3300659e-06)
(-5.4792683e-07 -0.00011553929 -1.3273356e-06)
(5.4788913e-07 -0.00011553929 -1.3273356e-06)
(-2.4963458e-07 -0.00011311663 -1.3300661e-06)
(2.442345e-07 -0.00011852976 -1.3241356e-06)
(7.5861996e-07 -0.00011270804 -1.3305619e-06)
(3.7824255e-07 -0.00011892605 -1.3220066e-06)
(2.5726412e-06 -0.0018272447 1.5202731e-06)
(-4.2338399e-07 -0.0018347225 1.5319414e-06)
(-3.3100491e-07 -0.0018301428 1.5248063e-06)
(8.5035493e-07 -0.0018342924 1.5313833e-06)
(-1.0537494e-06 -0.00183231 1.5283453e-06)
(1.0537127e-06 -0.00183231 1.5283451e-06)
(-8.5037116e-07 -0.0018342924 1.5313831e-06)
(3.3100595e-07 -0.0018301428 1.5248059e-06)
(4.2339807e-07 -0.0018347225 1.5319417e-06)
(-2.5726367e-06 -0.0018272447 1.5202731e-06)
(-8.0607988e-07 0.00017205505 -1.7360893e-06)
(-7.7183353e-07 0.00018034137 -1.746824e-06)
(-2.2520122e-07 0.00017294179 -1.7390666e-06)
(1.5062564e-07 0.00017975626 -1.7462038e-06)
(-4.5860943e-07 0.00017668361 -1.7429069e-06)
(4.5857156e-07 0.00017668361 -1.742907e-06)
(-1.5064195e-07 0.00017975627 -1.7462035e-06)
(2.2520262e-07 0.0001729418 -1.7390665e-06)
(7.7184685e-07 0.00018034137 -1.7468244e-06)
(8.0608495e-07 0.00017205505 -1.7360893e-06)
(3.2452157e-06 -0.0021535236 1.9696675e-06)
(-3.0020899e-07 -0.0021631175 1.9838523e-06)
(-3.5669048e-07 -0.0021570168 1.9753747e-06)
(1.0141447e-06 -0.002162549 1.9831678e-06)
(-1.1887406e-06 -0.0021599221 1.9795576e-06)
(1.1887042e-06 -0.0021599221 1.9795576e-06)
(-1.0141606e-06 -0.002162549 1.9831677e-06)
(3.5669147e-07 -0.0021570168 1.9753745e-06)
(3.0022315e-07 -0.0021631175 1.9838528e-06)
(-3.2452113e-06 -0.0021535236 1.9696677e-06)
(-1.3700574e-06 0.00053558407 -2.2214211e-06)
(-8.0637225e-07 0.00054631977 -2.2345464e-06)
(-1.9896508e-07 0.00053708934 -2.2254399e-06)
(1.3192978e-08 0.00054551492 -2.2337946e-06)
(-3.3579565e-07 0.00054169195 -2.2299227e-06)
(3.3575787e-07 0.00054169195 -2.2299229e-06)
(-1.3209122e-08 0.00054551492 -2.2337946e-06)
(1.9896662e-07 0.00053708934 -2.2254399e-06)
(8.0638519e-07 0.00054631978 -2.2345466e-06)
(1.3700627e-06 0.00053558407 -2.2214214e-06)
(4.07641e-06 -0.0025566296 2.4904684e-06)
(-1.5180138e-07 -0.0025687105 2.507384e-06)
(-3.9327914e-07 -0.0025608433 2.4975654e-06)
(1.2244632e-06 -0.0025679652 2.5065697e-06)
(-1.3639207e-06 -0.0025645954 2.5023858e-06)
(1.3638847e-06 -0.0025645954 2.5023859e-06)
(-1.2244791e-06 -0.0025679652 2.5065698e-06)
(3.9328051e-07 -0.0025608433 2.497565e-06)
(1.5181557e-07 -0.0025687104 2.5073843e-06)
(-4.0764059e-06 -0.0025566296 2.4904683e-06)
(-2.0937125e-06 0.00098011029 -2.7780729e-06)
(-8.6751992e-07 0.00099369921 -2.7937891e-06)
(-1.6313419e-07 0.00098238041 -2.7833478e-06)
(-1.7105762e-07 0.00099262458 -2.7929042e-06)
(-1.720526e-07 0.0009879514 -2.7884608e-06)
(1.7201517e-07 0.0009879514 -2.7884605e-06)
(1.7104165e-07 0.00099262459 -2.7929045e-06)
(1.631355e-07 0.00098238041 -2.7833484e-06)
(8.6753275e-07 0.00099369922 -2.7937891e-06)
(2.0937179e-06 0.0009801103 -2.7780732e-06)
(5.0923794e-06 -0.0030448423 3.0822542e-06)
(2.8057127e-08 -0.0030598025 3.1021089e-06)
(-4.4392334e-07 -0.0030499204 3.0909803e-06)
(1.4902664e-06 -0.0030588358 3.1011673e-06)
(-1.5873234e-06 -0.0030546257 3.0964192e-06)
(1.5872877e-06 -0.0030546257 3.0964194e-06)
(-1.4902824e-06 -0.0030588358 3.1011674e-06)
(4.4392484e-07 -0.0030499203 3.0909804e-06)
(-2.8042861e-08 -0.0030598024 3.1021094e-06)
(-5.0923754e-06 -0.0030448423 3.0822541e-06)
(-3.0031315e-06 0.0015137419 -3.4052145e-06)
(-9.6147904e-07 0.0015306112 -3.4237185e-06)
(-1.1476426e-07 0.0015169429 -3.4119841e-06)
(-4.1129029e-07 0.0015292092 -3.4227054e-06)
(4.0804859e-08 0.0015235872 -3.4177031e-06)
(-4.0842143e-08 0.0015235872 -3.417703e-06)
(4.1127418e-07 0.0015292092 -3.4227059e-06)
(1.1476587e-07 0.0015169429 -3.4119844e-06)
(9.6149162e-07 0.0015306112 -3.4237186e-06)
(3.003137e-06 0.0015137419 -3.4052151e-06)
(6.3221838e-06 -0.0036261023 3.743853e-06)
(2.4661475e-07 -0.0036443561 3.7668548e-06)
(-5.1245838e-07 -0.003632208 3.7544738e-06)
(1.8213056e-06 -0.0036431167 3.7657962e-06)
(-1.867752e-06 -0.0036379702 3.7605018e-06)
(1.8677171e-06 -0.0036379702 3.7605018e-06)
(-1.8213214e-06 -0.0036431167 3.7657959e-06)
(5.1245992e-07 -0.003632208 3.7544729e-06)
(-2.466003e-07 -0.0036443561 3.7668547e-06)
(-6.3221802e-06 -0.0036261023 3.743853e-06)
(-4.1273174e-06 0.0021442541 -4.1013921e-06)
(-1.0954612e-06 0.0021648562 -4.1228838e-06)
(-5.0259115e-08 0.0021485736 -4.109918e-06)
(-7.1746623e-07 0.0021630604 -4.1217527e-06)
(3.117295e-07 0.0021563928 -4.1162113e-06)
(-3.1176686e-07 0.0021563929 -4.1162113e-06)
(7.1745034e-07 0.0021630604 -4.1217525e-06)
(5.0260232e-08 0.0021485736 -4.1099177e-06)
(1.0954745e-06 0.0021648562 -4.1228835e-06)
(4.127323e-06 0.0021442541 -4.1013919e-06)
(7.7981834e-06 -0.0043080269 4.4735724e-06)
(5.1227942e-07 -0.004330013 4.4999331e-06)
(-6.0352772e-07 -0.004315345 4.4863797e-06)
(2.2281429e-06 -0.0043284413 4.4987752e-06)
(-2.2147962e-06 -0.0043222644 4.4929618e-06)
(2.2147621e-06 -0.0043222644 4.4929617e-06)
(-2.2281588e-06 -0.0043284413 4.498775e-06)
(6.0352914e-07 -0.004315345 4.4863792e-06)
(-5.1226432e-07 -0.004330013 4.499933e-06)
(-7.79818e-06 -0.0043080269 4.4735722e-06)
(-5.4985684e-06 0.002879111 -4.8647163e-06)
(-1.2778055e-06 0.0029039255 -4.8894032e-06)
(3.4755854e-08 0.0028847599 -4.8752844e-06)
(-1.1003658e-06 0.0029016599 -4.88817e-06)
(6.5046706e-07 0.0028938525 -4.8821169e-06)
(-6.5050396e-07 0.0028938525 -4.8821169e-06)
(1.1003503e-06 0.0029016599 -4.8881702e-06)
(-3.4754917e-08 0.0028847599 -4.8752847e-06)
(1.2778176e-06 0.0029039255 -4.8894026e-06)
(5.498575e-06 0.002879111 -4.8647158e-06)
(9.5564412e-06 -0.0050979357 5.2693523e-06)
(8.3476858e-07 -0.0051241198 5.2992916e-06)
(-7.2272808e-07 -0.0051066736 5.2846671e-06)
(2.7221697e-06 -0.0051221471 5.2980638e-06)
(-2.6388384e-06 -0.0051148473 5.2917592e-06)
(2.6388046e-06 -0.0051148474 5.2917591e-06)
(-2.7221855e-06 -0.0051221471 5.298064e-06)
(7.2272939e-07 -0.0051066736 5.2846671e-06)
(-8.3475298e-07 -0.0051241198 5.2992915e-06)
(-9.5564379e-06 -0.0050979357 5.2693522e-06)
(-7.1528734e-06 0.0037254922 -5.6929765e-06)
(-1.5181045e-06 0.0037550304 -5.7210772e-06)
(1.4558087e-07 0.0037327065 -5.7059019e-06)
(-1.5716131e-06 0.003752208 -5.7197675e-06)
(1.067587e-06 0.0037431666 -5.7132326e-06)
(-1.067624e-06 0.0037431666 -5.7132326e-06)
(1.5715986e-06 0.003752208 -5.7197676e-06)
(-1.4558029e-07 0.0037327065 -5.705902e-06)
(1.5181169e-06 0.0037550304 -5.7210767e-06)
(7.1528792e-06 0.0037254922 -5.6929762e-06)
(1.1637189e-05 -0.006002878 6.128839e-06)
(1.2252451e-06 -0.0060337567 6.1626033e-06)
(-8.7676401e-07 -0.0060132679 6.147001e-06)
(3.3156065e-06 -0.0060313031 6.1613327e-06)
(-3.1511935e-06 -0.0060227903 6.1545673e-06)
(3.1511606e-06 -0.0060227903 6.1545671e-06)
(-3.3156223e-06 -0.0060313031 6.161333e-06)
(8.7676551e-07 -0.0060132679 6.1470012e-06)
(-1.2252297e-06 -0.0060337567 6.1626029e-06)
(-1.1637186e-05 -0.006002878 6.1288384e-06)
(-9.1303384e-06 0.004690321 -6.5836872e-06)
(-1.8273568e-06 0.0047251316 -6.6154313e-06)
(2.8863205e-07 0.0046993627 -6.5993156e-06)
(-2.1437155e-06 0.0047216505 -6.614081e-06)
(1.5745152e-06 0.0047112832 -6.6071004e-06)
(-1.574552e-06 0.0047112832 -6.6071003e-06)
(2.1437015e-06 0.0047216505 -6.614081e-06)
(-2.8863144e-07 0.0046993627 -6.5993157e-06)
(1.8273691e-06 0.0047251316 -6.6154306e-06)
(9.1303443e-06 0.004690321 -6.5836869e-06)
(1.4085377e-05 -0.007029661 7.0494148e-06)
(1.6964478e-06 -0.0070657663 7.0872587e-06)
(-1.0737701e-06 -0.0070419623 7.0708043e-06)
(4.0216409e-06 -0.007062739 7.0859903e-06)
(-3.7640582e-06 -0.0070529245 7.0788002e-06)
(3.7640261e-06 -0.0070529245 7.0787999e-06)
(-4.021657e-06 -0.007062739 7.0859905e-06)
(1.0737717e-06 -0.0070419623 7.0708045e-06)
(-1.6964322e-06 -0.0070657663 7.0872586e-06)
(-1.4085374e-05 -0.007029661 7.0494147e-06)
(-1.1475668e-05 0.0057802918 -7.5341104e-06)
(-2.2181513e-06 0.0058209642 -7.5697442e-06)
(4.716534e-07 0.0057914533 -7.552821e-06)
(-2.8300909e-06 0.0058167069 -7.5684008e-06)
(2.1835711e-06 0.0058049236 -7.561013e-06)
(-2.1836077e-06 0.0058049236 -7.5610127e-06)
(2.8300773e-06 0.0058167069 -7.5684007e-06)
(-4.7165239e-07 0.0057914533 -7.5528207e-06)
(2.218164e-06 0.0058209642 -7.5697436e-06)
(1.1475673e-05 0.0057802918 -7.5341103e-06)
(1.6951179e-05 -0.0081848758 8.0282287e-06)
(2.2629896e-06 -0.0082267803 8.0704239e-06)
(-1.323492e-06 -0.0081993778 8.0532634e-06)
(4.8543835e-06 -0.0082230714 8.069217e-06)
(-4.4905605e-06 -0.0082118684 8.0616418e-06)
(4.4905293e-06 -0.0082118684 8.0616416e-06)
(-4.8543999e-06 -0.0082230714 8.0692172e-06)
(1.3234936e-06 -0.0081993778 8.053263e-06)
(-2.2629755e-06 -0.0082267803 8.0704234e-06)
(-1.6951176e-05 -0.0081848758 8.0282285e-06)
(-1.423875e-05 0.007001895 -8.5412988e-06)
(-2.7048828e-06 0.0070490664 -8.5810891e-06)
(7.0398057e-07 0.0070155024 -8.5635069e-06)
(-3.6451085e-06 0.0070438973 -8.5798125e-06)
(2.9080133e-06 0.0070306093 -8.572058e-06)
(-2.9080494e-06 0.0070306093 -8.5720576e-06)
(3.6450957e-06 0.0070438973 -8.5798124e-06)
(-7.0397987e-07 0.0070155024 -8.5635067e-06)
(2.7048946e-06 0.0070490664 -8.5810885e-06)
(1.4238756e-05 0.007001895 -8.5412984e-06)
(2.0290695e-05 -0.009474923 9.0622441e-06)
(2.9416234e-06 -0.0095232469 9.1090844e-06)
(-1.6376054e-06 -0.009491948 9.0913834e-06)
(5.828914e-06 -0.0095187303 9.1080146e-06)
(-5.3448072e-06 -0.0095060532 9.1000954e-06)
(5.3447771e-06 -0.0095060532 9.1000955e-06)
(-5.8289314e-06 -0.0095187303 9.1080146e-06)
(1.6376072e-06 -0.009491948 9.0913826e-06)
(-2.9416094e-06 -0.0095232469 9.1090843e-06)
(-2.0290691e-05 -0.0094749229 9.0622439e-06)
(-1.7475351e-05 0.0083614428 -9.60214e-06)
(-3.3040168e-06 0.0084158053 -9.6463771e-06)
(9.9685969e-07 0.0083778591 -9.6282993e-06)
(-4.6041313e-06 0.0084095671 -9.6452413e-06)
(3.762092e-06 0.0083946872 -9.6371632e-06)
(-3.7621273e-06 0.0083946872 -9.6371626e-06)
(4.6041191e-06 0.0084095671 -9.6452421e-06)
(-9.9685835e-07 0.0083778591 -9.6283001e-06)
(3.3040284e-06 0.0084158053 -9.6463768e-06)
(1.7475358e-05 0.0083614427 -9.60214e-06)
(2.4166755e-05 -0.010906035 1.0148258e-05)
(3.7515634e-06 -0.010961454 1.0200063e-05)
(-2.0300969e-06 -0.010925943 1.0182005e-05)
(6.9613309e-06 -0.010955983 1.0199224e-05)
(-6.3419377e-06 -0.010941747 1.0191005e-05)
(6.3419082e-06 -0.010941747 1.0191005e-05)
(-6.9613486e-06 -0.010955983 1.0199225e-05)
(2.0300985e-06 -0.010925943 1.0182005e-05)
(-3.7515482e-06 -0.010961454 1.0200063e-05)
(-2.4166753e-05 -0.010906035 1.0148258e-05)
(-2.1247907e-05 0.0098650903 -1.0713322e-05)
(-4.0344058e-06 0.0099274002 -1.0762322e-05)
(1.3638267e-06 0.0098847205 -1.0743934e-05)
(-5.7235598e-06 0.0099199104 -1.0761422e-05)
(4.761105e-06 0.0099033522 -1.0753062e-05)
(-4.76114e-06 0.0099033522 -1.0753061e-05)
(5.7235494e-06 0.0099199104 -1.0761423e-05)
(-1.3638257e-06 0.0098847205 -1.0743934e-05)
(4.0344178e-06 0.0099274002 -1.0762322e-05)
(2.1247913e-05 0.0098650903 -1.0713323e-05)
(2.8649837e-05 -0.012484301 1.1282806e-05)
(4.714882e-06 -0.012547555 1.1339923e-05)
(-2.5177167e-06 -0.012507491 1.1321715e-05)
(8.2687985e-06 -0.012540956 1.133943e-05)
(-7.4981734e-06 -0.012525076 1.1330953e-05)
(7.4981448e-06 -0.012525076 1.1330953e-05)
(-8.2688167e-06 -0.012540956 1.1339431e-05)
(2.5177178e-06 -0.012507491 1.1321714e-05)
(-4.714867e-06 -0.012547555 1.1339923e-05)
(-2.8649836e-05 -0.012484301 1.1282806e-05)
(-2.5626411e-05 0.011518859 -1.1871192e-05)
(-4.9176825e-06 0.011589946 -1.19253e-05)
(1.8211705e-06 0.011542154 -1.1906804e-05)
(-7.0208857e-06 0.011580993 -1.192475e-05)
(5.9214664e-06 0.011562671 -1.191615e-05)
(-5.9215006e-06 0.011562671 -1.191615e-05)
(7.0208766e-06 0.011580993 -1.1924751e-05)
(-1.8211693e-06 0.011542154 -1.1906804e-05)
(4.9176942e-06 0.011589946 -1.19253e-05)
(2.5626418e-05 0.011518858 -1.1871193e-05)
(3.3819131e-05 -0.014215685 1.246201e-05)
(5.8569949e-06 -0.014287588 1.2524815e-05)
(-3.1205306e-06 -0.014242605 1.2506687e-05)
(9.7696057e-06 -0.01427966 1.2524812e-05)
(-8.8308806e-06 -0.014262052 1.251612e-05)
(8.8308529e-06 -0.014262052 1.251612e-05)
(-9.7696247e-06 -0.01427966 1.2524812e-05)
(3.1205316e-06 -0.014242605 1.2506687e-05)
(-5.8569803e-06 -0.014287588 1.2524815e-05)
(-3.381913e-05 -0.014215685 1.246201e-05)
(-3.0689521e-05 0.013328655 -1.3071643e-05)
(-5.9787355e-06 0.013409438 -1.3131233e-05)
(2.3884821e-06 0.013356121 -1.3112857e-05)
(-8.5147409e-06 0.013398773 -1.3131174e-05)
(7.2607792e-06 0.013378602 -1.3122377e-05)
(-7.2608126e-06 0.013378602 -1.3122376e-05)
(8.5147337e-06 0.013398773 -1.3131175e-05)
(-2.3884806e-06 0.013356121 -1.3112856e-05)
(5.9787469e-06 0.013409438 -1.3131233e-05)
(3.0689528e-05 0.013328655 -1.3071643e-05)
(3.9763888e-05 -0.016106047 1.3681516e-05)
(7.2072559e-06 -0.016187503 1.3750421e-05)
(-3.8625854e-06 -0.016137197 1.373263e-05)
(1.1483221e-05 -0.016178008 1.375108e-05)
(-1.0358626e-05 -0.016158587 1.3742215e-05)
(1.03586e-05 -0.016158587 1.3742214e-05)
(-1.1483241e-05 -0.016178008 1.375108e-05)
(3.8625861e-06 -0.016137197 1.373263e-05)
(-7.2072412e-06 -0.016187503 1.3750422e-05)
(-3.9763887e-05 -0.016106047 1.3681516e-05)
(-3.6525932e-05 0.015300293 -1.4310077e-05)
(-7.2462997e-06 0.01539179 -1.4375557e-05)
(3.0893239e-06 0.015332493 -1.4357552e-05)
(-1.0224957e-05 0.015379124 -1.4376162e-05)
(8.7979155e-06 0.015357018 -1.4367206e-05)
(-8.797948e-06 0.015357018 -1.4367205e-05)
(1.0224953e-05 0.015379124 -1.4376162e-05)
(-3.0893223e-06 0.015332493 -1.4357553e-05)
(7.2463107e-06 0.015391789 -1.4375558e-05)
(3.6525938e-05 0.015300293 -1.4310078e-05)
(4.6585069e-05 -0.018161168 1.4936477e-05)
(8.7996911e-06 -0.01825318 1.5011926e-05)
(-4.772713e-06 -0.018197106 1.499476e-05)