/*--------------------------------*- C++ -*----------------------------------*\
  =========                 |
  \\      /  F ield         | OpenFOAM: The Open Source CFD Toolbox
   \\    /   O peration     | Website:  https://openfoam.org
    \\  /    A nd           | Version:  8
     \\/     M anipulation  |
\*---------------------------------------------------------------------------*/
FoamFile
{
    version     2.0;
    format      ascii;
    class       volScalarField;
    location    "1";
    object      N;
}
// * * * * * * * * * * * * * * * * * * * * * * * * * * * * * * * * * * * * * //

dimensions      [0 -3 0 0 0 0 0];

internalField   nonuniform List<scalar> 
200
(
32782767
0.10263817
0.10124706
0.10051218
0.10018385
0.10005806
0.10001624
0.10000404
0.10000089
0.10000016
0.10000001
0.099999979
0.099999974
0.099999973
0.099999973
0.099999973
0.099999973
0.099999973
0.099999973
0.099999973
0.099999973
0.099999973
0.099999973
0.099999973
0.099999973
0.099999973
0.099999973
0.099999973
0.099999973
0.099999973
0.099999973
0.099999973
0.099999973
0.099999973
0.099999973
0.099999973
0.099999973
0.099999973
0.099999973
0.099999973
0.099999973
0.099999973
0.099999973
0.099999973
0.099999973
0.099999973
0.099999973
0.099999973
0.099999973
0.099999973
0.099999973
0.099999973
0.099999973
0.099999973
0.099999973
0.099999973
0.099999973
0.099999973
0.099999973
0.099999973
0.099999973
0.099999973
0.099999973
0.099999973
0.099999973
0.099999973
0.099999973
0.099999973
0.099999973
0.099999973
0.099999973
0.099999973
0.099999973
0.099999973
0.099999972
0.099999972
0.099999972
0.099999972
0.099999972
0.099999972
0.099999972
0.099999972
0.099999972
0.099999972
0.099999972
0.099999972
0.099999972
0.099999972
0.099999972
0.099999972
0.099999972
0.099999972
0.099999972
0.099999972
0.099999972
0.099999972
0.099999972
0.099999972
0.099999972
0.099999972
0.099999972
0.099999973
0.099999973
0.099999973
0.099999973
0.099999973
0.099999973
0.099999973
0.099999973
0.099999973
0.099999973
0.099999973
0.099999973
0.099999973
0.099999973
0.099999973
0.099999973
0.099999973
0.099999973
0.099999973
0.099999973
0.099999973
0.099999973
0.099999973
0.099999973
0.099999973
0.099999973
0.099999973
0.099999973
0.099999973
0.099999974
0.099999973
0.099999974
0.099999973
0.099999974
0.099999973
0.099999975
0.099999972
0.099999975
0.099999972
0.099999976
0.099999971
0.099999977
0.09999997
0.099999978
0.099999969
0.099999979
0.099999968
0.099999981
0.099999966
0.099999983
0.099999964
0.099999986
0.099999961
0.099999989
0.099999957
0.099999993
0.099999953
0.099999998
0.099999948
0.1
0.099999943
0.10000001
0.099999937
0.10000002
0.099999929
0.10000002
0.099999921
0.10000003
0.099999912
0.10000004
0.099999901
0.10000006
0.099999889
0.10000007
0.099999875
0.10000008
0.099999859
0.1000001
0.099999841
0.10000012
0.099999819
0.10000015
0.099999795
0.10000017
0.099999767
0.1000002
0.099999735
0.10000024
0.099999698
0.10000028
0.099999656
0.10000033
0.099999603
0.10000037
0.099999564
0.10000044
0.099999489
0.10000049
0.099999387
)
;

boundaryField
{
    left
    {
        type            zeroGradient;
    }
    right
    {
        type            zeroGradient;
    }
    walls
    {
        type            zeroGradient;
    }
    centreline
    {
        type            zeroGradient;
    }
    frontAndBack
    {
        type            zeroGradient;
    }
}


// ************************************************************************* //
