/*--------------------------------*- C++ -*----------------------------------*\
  =========                 |
  \\      /  F ield         | OpenFOAM: The Open Source CFD Toolbox
   \\    /   O peration     | Website:  https://openfoam.org
    \\  /    A nd           | Version:  8
     \\/     M anipulation  |
\*---------------------------------------------------------------------------*/
FoamFile
{
    version     2.0;
    format      ascii;
    class       volScalarField;
    location    "1";
    object      p;
}
// * * * * * * * * * * * * * * * * * * * * * * * * * * * * * * * * * * * * * //

dimensions      [1 -1 -2 0 0 0 0];

internalField   nonuniform List<scalar> 
200
(
4246.9987
4246.9987
4246.9987
4246.9987
4246.9987
4246.9987
4246.9987
4246.9987
4246.9987
4246.9987
4246.9987
4246.9987
4246.9987
4246.9987
4246.9987
4246.9987
4246.9987
4246.9987
4246.9987
4246.9987
4246.9987
4246.9987
4246.9987
4246.9987
4246.9987
4246.9987
4246.9987
4246.9987
4246.9987
4246.9987
4246.9987
4246.9987
4246.9987
4246.9987
4246.9987
4246.9987
4246.9987
4246.9987
4246.9987
4246.9987
4246.9987
4246.9987
4246.9987
4246.9987
4246.9987
4246.9987
4246.9987
4246.9987
4246.9987
4246.9987
4246.9987
4246.9987
4246.9987
4246.9987
4246.9987
4246.9987
4246.9987
4246.9987
4246.9987
4246.9987
4246.9987
4246.9987
4246.9987
4246.9987
4246.9987
4246.9987
4246.9987
4246.9987
4246.9987
4246.9987
4246.9987
4246.9987
4246.9987
4246.9987
4246.9987
4246.9987
4246.9987
4246.9987
4246.9987
4246.9987
4246.9987
4246.9987
4246.9987
4246.9987
4246.9987
4246.9987
4246.9987
4246.9987
4246.9987
4246.9987
4246.9987
4246.9987
4246.9987
4246.9987
4246.9987
4246.9987
4246.9987
4246.9987
4246.9987
4246.9987
4246.9987
4246.9987
4246.9987
4246.9987
4246.9987
4246.9987
4246.9987
4246.9987
4246.9987
4246.9987
4246.9987
4246.9987
4246.9987
4246.9987
4246.9987
4246.9987
4246.9987
4246.9987
4246.9987
4246.9987
4246.9987
4246.9987
4246.9987
4246.9987
4246.9987
4246.9987
4246.9987
4246.9987
4246.9987
4246.9987
4246.9987
4246.9987
4246.9988
4246.9987
4246.9988
4246.9987
4246.9988
4246.9987
4246.9988
4246.9987
4246.9988
4246.9986
4246.9989
4246.9986
4246.9989
4246.9985
4246.999
4246.9985
4246.9991
4246.9984
4246.9992
4246.9982
4246.9994
4246.9981
4246.9995
4246.9979
4246.9997
4246.9977
4247
4246.9975
4247.0002
4246.9972
4247.0005
4246.9969
4247.0009
4246.9965
4247.0013
4246.9961
4247.0017
4246.9957
4247.0022
4246.9951
4247.0028
4246.9945
4247.0035
4246.9938
4247.0043
4246.993
4247.0052
4246.9921
4247.0062
4246.991
4247.0074
4246.9898
4247.0087
4246.9883
4247.0103
4246.9867
4247.0121
4246.9848
4247.0141
4246.9826
4247.0163
4246.9803
4247.0193
4246.9771
4247.0218
4246.9746
4247.0253
4246.9709
)
;

boundaryField
{
    left
    {
        type            zeroGradient;
    }
    right
    {
        type            zeroGradient;
    }
    walls
    {
        type            zeroGradient;
    }
    centreline
    {
        type            fixedValue;
        value           uniform 4247;
    }
    frontAndBack
    {
        type            zeroGradient;
    }
}


// ************************************************************************* //
