/*--------------------------------*- C++ -*----------------------------------*\
  =========                 |
  \\      /  F ield         | OpenFOAM: The Open Source CFD Toolbox
   \\    /   O peration     | Website:  https://openfoam.org
    \\  /    A nd           | Version:  8
     \\/     M anipulation  |
\*---------------------------------------------------------------------------*/
FoamFile
{
    version     2.0;
    format      ascii;
    class       surfaceScalarField;
    location    "1";
    object      phi;
}
// * * * * * * * * * * * * * * * * * * * * * * * * * * * * * * * * * * * * * //

dimensions      [1 0 -1 0 0 0 0];

internalField   nonuniform List<scalar> 
199
(
-4.4446354e-05
-0.00010142602
-0.0001489173
-0.00017859599
-0.00019345294
-0.00019964759
-0.00020187807
-0.00020261516
-0.00020287527
-0.00020300378
-0.0002031006
-0.00020319076
-0.00020327968
-0.00020336839
-0.00020345708
-0.00020354589
-0.00020363495
-0.00020372445
-0.00020381456
-0.00020390541
-0.00020399712
-0.00020408973
-0.00020418322
-0.00020427755
-0.00020437265
-0.00020446842
-0.00020456477
-0.00020466164
-0.00020475899
-0.00020485681
-0.00020495512
-0.00020505396
-0.0002051534
-0.00020525349
-0.00020535427
-0.0002054558
-0.00020555809
-0.00020566115
-0.00020576496
-0.0002058695
-0.00020597474
-0.00020608066
-0.00020618724
-0.00020629445
-0.00020640229
-0.00020651075
-0.00020661982
-0.00020672952
-0.00020683983
-0.00020695075
-0.00020706226
-0.00020717436
-0.00020728702
-0.00020740024
-0.00020751401
-0.00020762832
-0.00020774316
-0.00020785855
-0.00020797449
-0.00020809098
-0.00020820804
-0.00020832567
-0.00020844388
-0.00020856268
-0.00020868206
-0.00020880204
-0.00020892261
-0.00020904378
-0.00020916556
-0.00020928795
-0.00020941096
-0.00020953459
-0.00020965886
-0.00020978379
-0.00020990939
-0.00021003567
-0.00021016266
-0.00021029037
-0.00021041884
-0.00021054809
-0.00021067814
-0.00021080902
-0.00021094074
-0.00021107333
-0.0002112068
-0.00021134116
-0.00021147643
-0.00021161261
-0.00021174968
-0.00021188766
-0.00021202652
-0.00021216625
-0.00021230684
-0.00021244826
-0.0002125905
-0.00021273352
-0.0002128773
-0.0002130218
-0.00021316701
-0.00021331287
-0.00021345935
-0.00021360641
-0.00021375401
-0.0002139021
-0.00021405064
-0.00021419957
-0.00021434884
-0.0002144984
-0.00021464821
-0.00021479822
-0.00021494839
-0.00021509868
-0.00021524905
-0.00021539948
-0.00021554994
-0.00021570043
-0.00021585093
-0.00021600144
-0.00021615197
-0.00021630252
-0.00021645309
-0.00021660373
-0.00021675442
-0.00021690522
-0.00021705611
-0.00021720716
-0.00021735835
-0.00021750975
-0.00021766133
-0.00021781319
-0.00021796524
-0.00021811764
-0.00021827025
-0.00021842327
-0.00021857646
-0.00021873014
-0.00021888393
-0.00021903827
-0.00021919261
-0.00021934756
-0.00021950233
-0.0002196578
-0.00021981277
-0.0002199686
-0.00022012345
-0.00022027944
-0.00022043372
-0.00022058964
-0.00022074277
-0.00022089841
-0.0002210497
-0.00022120484
-0.00022135352
-0.00022150798
-0.00022165324
-0.00022180688
-0.00022194792
-0.00022210061
-0.0002222367
-0.00022238829
-0.00022251887
-0.00022266917
-0.00022279391
-0.00022294259
-0.00022306149
-0.000223208
-0.0002233215
-0.00022346495
-0.00022357403
-0.00022371309
-0.00022381933
-0.00022395208
-0.00022405773
-0.00022418157
-0.00022428958
-0.00022440117
-0.00022451516
-0.00022461043
-0.00022473452
-0.00022480886
-0.00022494746
-0.00022499594
-0.00022515334
-0.00022517118
-0.0002253511
-0.00022533418
-0.00022553916
-0.00022548414
-0.0002257101
-0.0002256501
-0.00022626542
-0.00022510659
-0.00021468229
-0.00022645308
-0.00024801288
-0.00022626229
-0.00020925647
-0.00022551779
-0.00023401465
)
;

boundaryField
{
    left
    {
        type            calculated;
        value           uniform 0;
    }
    right
    {
        type            calculated;
        value           uniform 0;
    }
    walls
    {
        type            calculated;
        value           uniform 0;
    }
    centreline
    {
        type            calculated;
        value           uniform -0.00022699293;
    }
    frontAndBack
    {
        type            calculated;
        value           uniform 0;
    }
}


// ************************************************************************* //
