/*--------------------------------*- C++ -*----------------------------------*\
  =========                 |
  \\      /  F ield         | OpenFOAM: The Open Source CFD Toolbox
   \\    /   O peration     | Website:  https://openfoam.org
    \\  /    A nd           | Version:  8
     \\/     M anipulation  |
\*---------------------------------------------------------------------------*/
FoamFile
{
    version     2.0;
    format      ascii;
    class       volVectorField;
    location    "1";
    object      U;
}
// * * * * * * * * * * * * * * * * * * * * * * * * * * * * * * * * * * * * * //

dimensions      [0 1 -1 0 0 0 0];

internalField   nonuniform List<vector> 
200
(
(0 -9.6229499e-05 0)
(0 -0.000542243 0)
(0 -0.0010583962 0)
(0 -0.0013657567 0)
(0 -0.0015579659 0)
(0 -0.0016256423 0)
(0 -0.0016595592 0)
(0 -0.0016654023 0)
(0 -0.0016705896 0)
(0 -0.0016705332 0)
(0 -0.0016722094 0)
(0 -0.0016724371 0)
(0 -0.0016734985 0)
(0 -0.0016740207 0)
(0 -0.0016748817 0)
(0 -0.0016755281 0)
(0 -0.0016763133 0)
(0 -0.001677014 0)
(0 -0.0016777754 0)
(0 -0.0016785064 0)
(0 -0.0016792675 0)
(0 -0.0016800207 0)
(0 -0.0016807912 0)
(0 -0.0016815622 0)
(0 -0.0016823439 0)
(0 -0.0016831286 0)
(0 -0.0016839202 0)
(0 -0.0016847151 0)
(0 -0.0016855148 0)
(0 -0.0016863178 0)
(0 -0.0016871252 0)
(0 -0.0016879366 0)
(0 -0.0016887529 0)
(0 -0.0016895742 0)
(0 -0.0016904013 0)
(0 -0.0016912342 0)
(0 -0.0016920735 0)
(0 -0.001692919 0)
(0 -0.0016937708 0)
(0 -0.0016946286 0)
(0 -0.0016954924 0)
(0 -0.0016963618 0)
(0 -0.0016972366 0)
(0 -0.0016981168 0)
(0 -0.0016990021 0)
(0 -0.0016998926 0)
(0 -0.0017007882 0)
(0 -0.0017016889 0)
(0 -0.0017025947 0)
(0 -0.0017035055 0)
(0 -0.0017044213 0)
(0 -0.0017053419 0)
(0 -0.0017062672 0)
(0 -0.0017071972 0)
(0 -0.0017081316 0)
(0 -0.0017090706 0)
(0 -0.001710014 0)
(0 -0.0017109618 0)
(0 -0.0017119142 0)
(0 -0.0017128711 0)
(0 -0.0017138326 0)
(0 -0.0017147988 0)
(0 -0.0017157697 0)
(0 -0.0017167455 0)
(0 -0.001717726 0)
(0 -0.0017187115 0)
(0 -0.0017197018 0)
(0 -0.001720697 0)
(0 -0.0017216971 0)
(0 -0.0017227023 0)
(0 -0.0017237125 0)
(0 -0.0017247279 0)
(0 -0.0017257483 0)
(0 -0.0017267743 0)
(0 -0.0017278054 0)
(0 -0.0017288424 0)
(0 -0.0017298848 0)
(0 -0.0017309336 0)
(0 -0.0017319877 0)
(0 -0.0017330494 0)
(0 -0.0017341158 0)
(0 -0.0017351913 0)
(0 -0.0017362705 0)
(0 -0.0017373612 0)
(0 -0.0017384531 0)
(0 -0.0017395605 0)
(0 -0.0017406642 0)
(0 -0.0017417904 0)
(0 -0.0017429038 0)
(0 -0.0017440518 0)
(0 -0.0017451709 0)
(0 -0.0017463456 0)
(0 -0.0017474631 0)
(0 -0.0017486729 0)
(0 -0.0017497765 0)
(0 -0.001751036 0)
(0 -0.0017521051 0)
(0 -0.0017534389 0)
(0 -0.0017544397 0)
(0 -0.0017558891 0)
(0 -0.0017567658 0)
(0 -0.0017583997 0)
(0 -0.0017590614 0)
(0 -0.0017609928 0)
(0 -0.0017612924 0)
(0 -0.0017637047 0)
(0 -0.001763406 0)
(0 -0.0017665942 0)
(0 -0.0017653215 0)
(0 -0.0017697545 0)
(0 -0.0017669155 0)
(0 -0.0017733321 0)
(0 -0.0017680001 0)
(0 -0.0017775531 0)
(0 -0.0017682912 0)
(0 -0.0017827627 0)
(0 -0.0017673619 0)
(0 -0.0017894806 0)
(0 -0.0017645762 0)
(0 -0.0017984799 0)
(0 -0.0017589961 0)
(0 -0.0018108951 0)
(0 -0.0017492569 0)
(0 -0.0018283652 0)
(0 -0.0017334046 0)
(0 -0.0018532134 0)
(0 -0.0017086988 0)
(0 -0.0018886597 0)
(0 -0.0016713888 0)
(0 -0.0019390489 0)
(0 -0.0016164876 0)
(0 -0.0020100666 0)
(0 -0.0015375739 0)
(0 -0.0021089098 0)
(0 -0.0014266563 0)
(0 -0.0022443794 0)
(0 -0.0012741301 0)
(0 -0.0024268696 0)
(0 -0.001068845 0)
(0 -0.0026682378 0)
(0 -0.000798297 0)
(0 -0.0029815524 0)
(0 -0.00044893752 0)
(0 -0.0033807323 0)
(0 -6.5734068e-06 0)
(0 -0.0038801206 0)
(0 0.00054319684 0)
(0 -0.0044940546 0)
(0 0.001214574 0)
(0 -0.0052364917 0)
(0 0.0020212301 0)
(0 -0.0061207358 0)
(0 0.0029760913 0)
(0 -0.0071592796 0)
(0 0.0040912377 0)
(0 -0.0083637597 0)
(0 0.0053779084 0)
(0 -0.0097450109 0)
(0 0.0068465982 0)
(0 -0.0113132 0)
(0 0.0085072244 0)
(0 -0.013078026 0)
(0 0.010369352 0)
(0 -0.015048966 0)
(0 0.012442466 0)
(0 -0.017235572 0)
(0 0.014736276 0)
(0 -0.019647784 0)
(0 0.017261045 0)
(0 -0.022296273 0)
(0 0.020027937 0)
(0 -0.025192778 0)
(0 0.023049348 0)
(0 -0.028350432 0)
(0 0.026339217 0)
(0 -0.03178405 0)
(0 0.029913282 0)
(0 -0.035510337 0)
(0 0.033789246 0)
(0 -0.03954801 0)
(0 0.037986832 0)
(0 -0.043917779 0)
(0 0.042527708 0)
(0 -0.048642196 0)
(0 0.047435247 0)
(0 -0.053745353 0)
(0 0.052734174 0)
(0 -0.059252455 0)
(0 0.058450074 0)
(0 -0.065189349 0)
(0 0.064608987 0)
(0 -0.071580429 0)
(0 0.071234699 0)
(0 -0.078440197 0)
(0 0.07834099 0)
(0 -0.085785286 0)
(0 0.08594281 0)
(0 -0.093718809 0)
(0 0.094143136 0)
(0 -0.10219273 0)
)
;

boundaryField
{
    left
    {
        type            noSlip;
    }
    right
    {
        type            noSlip;
    }
    walls
    {
        type            noSlip;
    }
    centreline
    {
        type            noSlip;
    }
    frontAndBack
    {
        type            noSlip;
    }
}


// ************************************************************************* //
