/*--------------------------------*- C++ -*----------------------------------*\
  =========                 |
  \\      /  F ield         | OpenFOAM: The Open Source CFD Toolbox
   \\    /   O peration     | Website:  https://openfoam.org
    \\  /    A nd           | Version:  8
     \\/     M anipulation  |
\*---------------------------------------------------------------------------*/
FoamFile
{
    version     2.0;
    format      ascii;
    class       volScalarField;
    location    "1";
    object      N;
}
// * * * * * * * * * * * * * * * * * * * * * * * * * * * * * * * * * * * * * //

dimensions      [0 -3 0 0 0 0 0];

internalField   nonuniform List<scalar> 
800
(
1916847.1
1916625.7
1916737.4
1916727.9
1916735.1
1916733.1
1916734.3
1916733.8
1916734.1
1916734.1
1916734.1
1916734
1916733.8
1916734.3
1916733.1
1916735
1916727.9
1916737.4
1916625.7
1916847.1
655.26295
629.62086
642.79016
641.21315
642.00155
641.6537
641.93196
641.92647
642.02115
641.94974
641.95194
642.02735
641.93419
641.94199
641.66646
642.01728
641.23228
642.81122
629.63991
655.28183
0.603992
0.58299943
0.59400247
0.59230584
0.59316662
0.59281027
0.59308916
0.59308948
0.59318793
0.59312576
0.59312823
0.5931948
0.59309767
0.59309933
0.59282391
0.59318436
0.59232769
0.59402628
0.58302005
0.60401173
0.10038962
0.1003715
0.1003811
0.10037937
0.10038028
0.10037991
0.10038019
0.10038018
0.10038029
0.10038024
0.10038024
0.1003803
0.10038019
0.1003802
0.10037992
0.1003803
0.10037939
0.10038112
0.10037152
0.10038964
0.1000149
0.1000149
0.1000149
0.1000149
0.1000149
0.1000149
0.10001491
0.10001491
0.1000149
0.1000149
0.1000149
0.1000149
0.10001491
0.10001491
0.1000149
0.1000149
0.1000149
0.1000149
0.1000149
0.1000149
0.099922457
0.099922459
0.099922462
0.099922455
0.099922459
0.099922456
0.09992246
0.099922462
0.099922464
0.099922464
0.099922464
0.099922464
0.099922462
0.09992246
0.099922456
0.099922459
0.099922455
0.099922462
0.099922459
0.099922456
0.10006252
0.10006253
0.10006253
0.10006253
0.10006253
0.10006253
0.10006253
0.10006253
0.10006254
0.10006254
0.10006254
0.10006254
0.10006253
0.10006253
0.10006253
0.10006253
0.10006253
0.10006253
0.10006253
0.10006252
0.099882724
0.099882721
0.099882725
0.099882731
0.099882729
0.099882731
0.099882731
0.099882733
0.099882735
0.099882737
0.099882737
0.099882735
0.099882733
0.099882731
0.099882731
0.099882729
0.09988273
0.099882725
0.099882721
0.099882723
0.10014761
0.10014762
0.10014762
0.10014762
0.10014762
0.10014762
0.10014761
0.10014761
0.10014761
0.10014761
0.10014761
0.10014761
0.10014761
0.10014761
0.10014762
0.10014762
0.10014762
0.10014762
0.10014762
0.10014761
0.09975735
0.099757359
0.099757361
0.099757358
0.099757361
0.099757359
0.099757361
0.099757357
0.099757358
0.099757356
0.099757356
0.099757358
0.099757357
0.099757361
0.099757359
0.099757361
0.099757358
0.099757361
0.099757359
0.09975735
1916146.4
1915922.8
1916035.7
1916026.1
1916033.3
1916031.3
1916032.6
1916032.1
1916032.3
1916032.3
1916032.3
1916032.3
1916032.1
1916032.6
1916031.3
1916033.3
1916026.1
1916035.7
1915922.8
1916146.4
568.98195
544.64007
557.08678
555.59047
556.33232
556.00255
556.26719
556.26314
556.35291
556.28427
556.28649
556.35885
556.27054
556.27684
556.01469
556.34738
555.60858
557.10722
544.65786
569.0005
0.53809037
0.51866547
0.52879587
0.52723753
0.52802206
0.52769527
0.52795208
0.52795513
0.52804592
0.52798802
0.52799046
0.52805245
0.52796288
0.52796174
0.52770802
0.52803867
0.52725772
0.52881843
0.51868436
0.53810937
0.10033565
0.10031894
0.10032775
0.10032617
0.100327
0.10032666
0.10032691
0.10032691
0.10032701
0.10032696
0.10032696
0.10032702
0.10032692
0.10032692
0.10032667
0.10032701
0.10032619
0.10032777
0.10031896
0.10033567
0.10001488
0.10001489
0.10001488
0.10001489
0.10001488
0.10001489
0.10001489
0.10001489
0.10001489
0.10001489
0.10001489
0.10001489
0.10001489
0.10001489
0.10001489
0.10001488
0.10001489
0.10001488
0.10001489
0.10001488
0.099922478
0.099922481
0.099922484
0.099922477
0.099922481
0.099922478
0.099922481
0.099922484
0.099922485
0.099922486
0.099922486
0.099922485
0.099922484
0.099922481
0.099922478
0.09992248
0.099922476
0.099922484
0.09992248
0.099922477
0.10006254
0.10006254
0.10006254
0.10006254
0.10006254
0.10006255
0.10006255
0.10006255
0.10006255
0.10006255
0.10006255
0.10006255
0.10006255
0.10006255
0.10006254
0.10006254
0.10006254
0.10006254
0.10006254
0.10006253
0.099882746
0.099882747
0.099882748
0.099882753
0.099882752
0.099882754
0.099882755
0.099882757
0.099882759
0.099882761
0.099882761
0.099882759
0.099882757
0.099882755
0.099882754
0.099882751
0.099882753
0.099882748
0.099882747
0.099882745
0.10014764
0.10014765
0.10014765
0.10014764
0.10014764
0.10014764
0.10014764
0.10014764
0.10014764
0.10014764
0.10014764
0.10014764
0.10014764
0.10014764
0.10014764
0.10014764
0.10014765
0.10014765
0.10014765
0.10014764
0.099757397
0.099757406
0.099757408
0.099757405
0.099757409
0.099757406
0.099757408
0.099757404
0.099757405
0.099757403
0.099757403
0.099757405
0.099757404
0.099757408
0.099757406
0.099757409
0.099757405
0.099757408
0.099757406
0.099757397
1916146.4
1915922.8
1916035.7
1916026.1
1916033.3
1916031.3
1916032.6
1916032.1
1916032.3
1916032.3
1916032.3
1916032.3
1916032.1
1916032.6
1916031.3
1916033.3
1916026.1
1916035.7
1915922.8
1916146.4
568.98194
544.64008
557.08685
555.59044
556.33231
556.00238
556.26719
556.26287
556.35293
556.28429
556.28645
556.35887
556.27054
556.27697
556.01471
556.3474
555.6086
557.10698
544.65771
569.00043
0.53809034
0.51866547
0.52879588
0.52723746
0.528022
0.5276951
0.52795205
0.5279549
0.52804593
0.52798805
0.52799043
0.52805246
0.52796289
0.52796186
0.52770805
0.5280387
0.52725772
0.52881819
0.51868418
0.53810924
0.10033565
0.10031894
0.10032775
0.10032617
0.100327
0.10032666
0.10032691
0.10032691
0.10032701
0.10032696
0.10032696
0.10032702
0.10032692
0.10032692
0.10032667
0.10032701
0.10032619
0.10032777
0.10031896
0.10033567
0.10001488
0.10001489
0.10001488
0.10001489
0.10001488
0.10001489
0.10001489
0.10001489
0.10001489
0.10001489
0.10001489
0.10001489
0.10001489
0.10001489
0.10001489
0.10001488
0.10001489
0.10001488
0.10001489
0.10001488
0.099922478
0.099922481
0.099922484
0.099922477
0.099922481
0.099922478
0.099922481
0.099922484
0.099922485
0.099922486
0.099922486
0.099922485
0.099922484
0.099922481
0.099922478
0.09992248
0.099922476
0.099922484
0.09992248
0.099922477
0.10006254
0.10006254
0.10006254
0.10006254
0.10006254
0.10006255
0.10006255
0.10006255
0.10006255
0.10006255
0.10006255
0.10006255
0.10006255
0.10006255
0.10006254
0.10006254
0.10006254
0.10006254
0.10006254
0.10006253
0.099882746
0.099882747
0.099882748
0.099882753
0.099882752
0.099882754
0.099882755
0.099882757
0.099882759
0.099882761
0.099882761
0.099882759
0.099882757
0.099882755
0.099882754
0.099882751
0.099882753
0.099882748
0.099882747
0.099882745
0.10014764
0.10014765
0.10014765
0.10014764
0.10014764
0.10014764
0.10014764
0.10014764
0.10014764
0.10014764
0.10014764
0.10014764
0.10014764
0.10014764
0.10014764
0.10014764
0.10014765
0.10014765
0.10014765
0.10014764
0.099757397
0.099757406
0.099757408
0.099757405
0.099757409
0.099757406
0.099757408
0.099757404
0.099757405
0.099757403
0.099757403
0.099757405
0.099757404
0.099757408
0.099757406
0.099757409
0.099757405
0.099757408
0.099757406
0.099757397
1916847.1
1916625.7
1916737.4
1916727.9
1916735.1
1916733.1
1916734.3
1916733.8
1916734.1
1916734.1
1916734.1
1916734
1916733.8
1916734.3
1916733.1
1916735
1916727.9
1916737.4
1916625.7
1916847.1
655.26289
629.62082
642.79001
641.21303
642.00146
641.65362
641.932
641.92643
642.02136
641.94971
641.95212
642.02728
641.93441
641.94186
641.66662
642.01731
641.23229
642.81105
629.6396
655.28177
0.60399193
0.58299939
0.59400225
0.59230562
0.59316643
0.59281008
0.59308908
0.59308939
0.59318807
0.59312571
0.59312834
0.59319471
0.59309783
0.59309924
0.59282408
0.5931844
0.59232767
0.59402605
0.58301965
0.60401154
0.10038962
0.1003715
0.1003811
0.10037937
0.10038028
0.10037991
0.10038019
0.10038018
0.10038029
0.10038024
0.10038024
0.1003803
0.10038019
0.1003802
0.10037992
0.1003803
0.10037939
0.10038112
0.10037152
0.10038964
0.1000149
0.1000149
0.1000149
0.1000149
0.1000149
0.1000149
0.10001491
0.10001491
0.1000149
0.1000149
0.1000149
0.1000149
0.10001491
0.10001491
0.1000149
0.1000149
0.1000149
0.1000149
0.1000149
0.1000149
0.099922457
0.099922459
0.099922462
0.099922455
0.099922459
0.099922456
0.09992246
0.099922462
0.099922464
0.099922464
0.099922464
0.099922464
0.099922462
0.09992246
0.099922456
0.099922459
0.099922455
0.099922462
0.099922459
0.099922456
0.10006252
0.10006253
0.10006253
0.10006253
0.10006253
0.10006253
0.10006253
0.10006253
0.10006254
0.10006254
0.10006254
0.10006254
0.10006253
0.10006253
0.10006253
0.10006253
0.10006253
0.10006253
0.10006253
0.10006252
0.099882724
0.099882721
0.099882725
0.099882731
0.099882729
0.099882731
0.099882731
0.099882733
0.099882735
0.099882737
0.099882737
0.099882735
0.099882733
0.099882731
0.099882731
0.099882728
0.09988273
0.099882725
0.099882721
0.099882723
0.10014761
0.10014762
0.10014762
0.10014762
0.10014762
0.10014762
0.10014761
0.10014761
0.10014761
0.10014761
0.10014761
0.10014761
0.10014761
0.10014761
0.10014762
0.10014762
0.10014762
0.10014762
0.10014762
0.10014761
0.09975735
0.099757359
0.099757361
0.099757358
0.099757361
0.099757359
0.099757361
0.099757357
0.099757358
0.099757356
0.099757356
0.099757358
0.099757357
0.099757361
0.099757359
0.099757361
0.099757358
0.099757361
0.099757359
0.09975735
)
;

boundaryField
{
    left
    {
        type            zeroGradient;
    }
    right
    {
        type            zeroGradient;
    }
    walls
    {
        type            zeroGradient;
    }
    centreline
    {
        type            zeroGradient;
    }
    frontAndBack
    {
        type            zeroGradient;
    }
}


// ************************************************************************* //
