/*--------------------------------*- C++ -*----------------------------------*\
  =========                 |
  \\      /  F ield         | OpenFOAM: The Open Source CFD Toolbox
   \\    /   O peration     | Website:  https://openfoam.org
    \\  /    A nd           | Version:  8
     \\/     M anipulation  |
\*---------------------------------------------------------------------------*/
FoamFile
{
    version     2.0;
    format      ascii;
    class       surfaceScalarField;
    location    "1";
    object      phi;
}
// * * * * * * * * * * * * * * * * * * * * * * * * * * * * * * * * * * * * * //

dimensions      [1 0 -1 0 0 0 0];

internalField   nonuniform List<scalar> 
2080
(
-7.0209015e-05
0.0033129057
-0.00024574629
-3.8112787e-06
0.0031748555
-0.0002458734
-4.5291784e-06
0.003244693
-0.00024582743
-1.3977067e-07
0.0032386777
-0.00024584602
8.6547632e-08
0.0032414152
-0.00024583394
1.0961505e-06
0.0032385195
-0.00024583689
5.2276859e-07
0.0032390117
-0.0002458345
4.6847922e-07
0.0032386465
-0.00024583812
1.7434103e-07
0.0032393258
-0.00024583794
-1.7451297e-08
0.0032393349
-0.00024584035
-2.0412553e-07
0.0032393478
-0.00024583948
-5.0149691e-07
0.0032393679
-0.00024583865
-5.5545054e-07
0.0032387072
-0.00024583738
-1.1275151e-06
0.0032390987
-0.00024583479
-1.2063408e-07
0.0032386203
-0.00024583676
1.0898711e-07
0.003241531
-0.00024583422
4.5069689e-06
0.0032387905
-0.00024584649
3.7841181e-06
0.0032448362
-0.0002458276
7.0205398e-05
0.0031749819
-0.00024587406
0.0033130356
-0.0002457469
2.7344269e-05
0.02002852
0.00014560102
-8.9173133e-07
0.019948019
0.00014554386
-4.5400069e-06
0.019992775
0.00014559188
-4.6487216e-08
0.019979216
0.00014557694
-9.2727827e-08
0.019985274
0.00014559649
1.1968784e-06
0.019979786
0.00014559829
8.1198547e-07
0.019980683
0.00014560521
7.3160726e-07
0.019979982
0.00014560283
3.5427858e-07
0.019981062
0.00014560285
-1.9883376e-08
0.019981135
0.00014560006
-3.8929454e-07
0.019981158
0.00014560055
-7.679507e-07
0.019981133
0.0001456024
-8.4861343e-07
0.019980084
0.00014560302
-1.2320651e-06
0.019980826
0.00014560494
6.2694187e-08
0.019979949
0.00014559774
8.6388289e-09
0.019985466
0.00014559562
4.5087999e-06
0.019979389
0.00014557568
8.5389608e-07
0.019993015
0.00014559123
-2.7353274e-05
0.019948231
0.00014554325
0.020028722
0.00014559964
2.7054856e-06
0.036678009
6.1813717e-05
-4.942542e-06
0.036625332
6.1940316e-05
-5.515328e-06
0.036655434
6.1877239e-05
-1.9485167e-06
0.036640938
6.185865e-05
-1.1121337e-06
0.036649052
6.1864043e-05
3.3596917e-07
0.03664115
6.1853236e-05
3.4868991e-07
0.036642354
6.1847451e-05
5.3567231e-07
0.036640913
6.1846719e-05
1.9878433e-07
0.036642646
6.1845415e-05
-5.751758e-10
0.036642814
6.1844681e-05
-1.9943328e-07
0.036642839
6.1847048e-05
-5.3980077e-07
0.036642729
6.1841377e-05
-3.5596799e-07
0.036641027
6.1847986e-05
-3.4575161e-07
0.03664252
6.1846007e-05
1.0972507e-06
0.036641335
6.1853235e-05
1.9335272e-06
0.036649272
6.186447e-05
5.5061477e-06
0.036641129
6.1860301e-05
4.9252101e-06
0.036655713
6.1880833e-05
-2.7157874e-06
0.036625597
6.1943032e-05
0.036678226
6.1818931e-05
1.8021818e-05
0.03237921
5.7414052e-06
1.0641798e-06
0.032344874
5.7817084e-06
8.4806134e-07
0.032363575
5.8401093e-06
-1.2297911e-06
0.032352967
5.769109e-06
-6.5066153e-07
0.03235956
5.8310042e-06
6.820583e-07
0.03235402
5.8288104e-06
1.8721216e-06
0.032355295
5.8472801e-06
1.9361211e-06
0.03235375
5.8553312e-06
1.3108753e-06
0.032354592
5.8533343e-06
-1.2778115e-08
0.032354436
5.8554374e-06
-1.3338082e-06
0.032354448
5.8532365e-06
-1.9614653e-06
0.032354638
5.8542954e-06
-1.9013861e-06
0.032353812
5.8515361e-06
-7.137494e-07
0.032355374
5.8492404e-06
5.9958797e-07
0.032354097
5.8275813e-06
1.1639263e-06
0.032359658
5.8311455e-06
-8.9660799e-07
0.032353041
5.7697217e-06
-1.1185412e-06
0.032363702
5.8427017e-06
-1.8067765e-05
0.032345043
5.7908484e-06
0.032379288
5.7448165e-06
-4.1321468e-06
0.028370091
-1.1261095e-05
-6.2983065e-06
0.028331278
-1.0930508e-05
-8.8229752e-06
0.028349268
-1.1197904e-05
-5.6464186e-06
0.028335544
-1.1180527e-05
-5.9909423e-06
0.028347081
-1.1209557e-05
-2.5103409e-06
0.028341636
-1.1174919e-05
-1.036079e-06
0.028344984
-1.1166977e-05
5.5405124e-07
0.028340979
-1.1109819e-05
3.8105511e-07
0.028341071
-1.1116361e-05
3.4341164e-08
0.028339695
-1.1096037e-05
-3.0884603e-07
0.028339699
-1.1092841e-05
-4.8874408e-07
0.028341116
-1.1133416e-05
1.0924035e-06
0.028341031
-1.1117688e-05
2.55455e-06
0.028345024
-1.1168381e-05
6.0260531e-06
0.028341681
-1.1184938e-05
5.678479e-06
0.028347134
-1.1207538e-05
8.8700663e-06
0.028335597
-1.1178005e-05
6.3225936e-06
0.028349338
-1.1186295e-05
4.1043459e-06
0.0283315
-1.0950718e-05
0.028370175
-1.1247188e-05
3.7130293e-06
0.00029436582
1.3262613e-05
1.9528887e-06
0.00026922131
1.4579933e-05
8.6305465e-06
0.00027766622
1.3137729e-05
2.5959183e-07
0.00027123247
1.3231026e-05
1.924194e-06
0.00027426661
1.3168746e-05
9.1770522e-07
0.00027500799
1.3345771e-05
3.1267482e-06
0.0002736374
1.3505648e-05
2.4233009e-06
0.0002723702
1.3764467e-05
1.9053334e-06
0.00027037303
1.3870464e-05
-2.3511435e-08
0.000269665
1.3982572e-05
-1.9552419e-06
0.00026968256
1.3960248e-05
-2.4756707e-06
0.0002704007
1.3896267e-05
-3.2186421e-06
0.00027246319
1.3750651e-05
-1.021809e-06
0.00027371208
1.3492789e-05
-2.0969761e-06
0.00027512053
1.3353601e-05
-3.4948889e-07
0.0002744234
1.3173333e-05
-8.6725317e-06
0.00027153138
1.324758e-05
-2.0378971e-06
0.00027790331
1.3105149e-05
-3.9546949e-06
0.00026975949
1.4561232e-05
0.00029478289
1.3277324e-05
-1.2604264e-05
-0.052389174
-2.4927828e-05
-7.0864408e-06
-0.052439642
-2.538711e-05
-1.1469427e-05
-0.052418776
-2.5319388e-05
-7.6990578e-06
-0.052433054
-2.5065797e-05
-7.9406053e-06
-0.052424463
-2.5280699e-05
-7.0632983e-06
-0.052428908
-2.538337e-05
-7.3836145e-06
-0.052426354
-2.5465165e-05
-4.8617793e-06
-0.052428416
-2.5575582e-05
-2.7976496e-06
-0.052428016
-2.5544463e-05
8.3066352e-08
-0.052428645
-2.5552453e-05
2.9733881e-06
-0.052428633
-2.5574122e-05
5.0506645e-06
-0.052428094
-2.5488089e-05
7.5526699e-06
-0.052428407
-2.556419e-05
7.2598214e-06
-0.052426418
-2.5460553e-05
8.1625024e-06
-0.05242897
-2.5354619e-05
7.9368584e-06
-0.05242449
-2.5289395e-05
1.1646476e-05
-0.052432961
-2.5100749e-05
7.2571788e-06
-0.052418735
-2.5393905e-05
1.2762795e-05
-0.052439476
-2.5432337e-05
-0.052389046
-2.503424e-05
3.5838252e-07
-0.059249105
-2.3349868e-05
-9.5434467e-06
-0.059263274
-2.077396e-05
8.6173394e-06
-0.059278994
-2.6533689e-05
3.9251277e-07
-0.059261297
-2.5287667e-05
6.9550298e-06
-0.059268219
-2.6817817e-05
1.1832246e-06
-0.059260631
-2.6616991e-05
3.5365498e-06
-0.059263488
-2.6185346e-05
1.0189225e-06
-0.05925927
-2.5541181e-05
1.363958e-06
-0.059261285
-2.514645e-05
3.516427e-09
-0.059260096
-2.4805828e-05
-1.3712452e-06
-0.059260121
-2.4804632e-05
-1.0876626e-06
-0.059261358
-2.5230178e-05
-3.6912241e-06
-0.059259347
-2.5609328e-05
-1.3750321e-06
-0.05926363
-2.6214723e-05
-7.063428e-06
-0.059260665
-2.6671466e-05
-4.531196e-07
-0.059268341
-2.6836842e-05
-8.379709e-06
-0.059261388
-2.537616e-05
9.9657695e-06
-0.059279133
-2.6599209e-05
-7.7560067e-07
-0.059263727
-2.1829862e-05
-0.059249346
-2.3636444e-05
-2.1285336e-05
-0.0080652725
-6.6979423e-05
-6.1224249e-06
-0.008129426
-6.8219298e-05
-1.7775846e-05
-0.0081209649
-6.5170681e-05
-7.516663e-06
-0.0081271471
-6.4538626e-05
-1.5726258e-05
-0.0081177448
-6.3702784e-05
-8.6300083e-06
-0.0081237669
-6.380716e-05
-1.1916545e-05
-0.0081165926
-6.4230182e-05
-6.3741674e-06
-0.0081198945
-6.4961759e-05
-4.685057e-06
-0.0081163611
-6.5418865e-05
1.5505595e-08
-0.0081174
-6.5838366e-05
4.7176939e-06
-0.0081174322
-6.5775729e-05
6.4437437e-06
-0.008116302
-6.5449488e-05
1.2142036e-05
-0.0081198937
-6.4890108e-05
8.9172147e-06
-0.008116584
-6.4196737e-05
1.5999092e-05
-0.0081237164
-6.3789947e-05
7.678396e-06
-0.0081177221
-6.3698234e-05
1.7662996e-05
-0.0081271552
-6.4493949e-05
5.9120658e-06
-0.0081209804
-6.4950504e-05
2.1723043e-05
-0.0081294575
-6.7348972e-05
-0.0080653031
-6.664481e-05
5.154457e-05
0.00013557415
3.8797259e-05
0.00013617541
3.485932e-05
0.00013579717
2.3812471e-05
0.0001358256
2.28859e-05
0.00013590906
1.3661252e-05
0.0001359534
1.0506954e-05
0.00013600717
3.3015232e-06
0.00013602716
1.8370594e-06
0.00013605701
-5.1377758e-08
0.00013607344
-1.9484823e-06
0.00013605097
-3.4079055e-06
0.00013609986
-1.0614761e-05
0.00013603295
-1.3776363e-05
0.00013600622
-2.3036601e-05
0.0001359745
-2.3997927e-05
0.00013590953
-3.501944e-05
0.00013583869
-3.8976493e-05
0.00013576214
-5.1685273e-05
0.00013626441
0.00013558193
-7.0302497e-05
0.0028189268
-1.3432347e-09
-3.8114181e-06
0.0026802795
-1.2208604e-09
-4.5248061e-06
0.0027503546
-1.2530858e-09
-1.3953818e-07
0.0027443231
-1.5902528e-09
8.6638177e-08
0.0027470705
-1.4836731e-09
1.0957387e-06
0.0027441697
-2.0987609e-09
5.2200925e-07
0.0027446645
-1.157585e-09
4.6770711e-07
0.0027442983
-2.5073072e-09
1.7386847e-07
0.0027449767
-3.8432569e-10
-1.7409919e-08
0.0027449841
-1.2247453e-09
-2.0378217e-07
0.0027449974
-1.2187807e-10
-5.0081804e-07
0.0027450174
-7.9807158e-10
-5.5478237e-07
0.0027443575
1.648147e-10
-1.1270573e-06
0.0027447503
-9.2671192e-10
-1.2066739e-07
0.0027442694
-5.8113417e-10
1.0888046e-07
0.0027471861
-1.4581237e-09
4.5027454e-06
0.0027444358
-1.5921343e-09
3.7842186e-06
0.0027504998
-2.8730592e-09
7.0298712e-05
0.0026804077
-3.8607232e-09
0.0028190585
-2.868694e-09
2.7356505e-05
0.019859913
-1.2720235e-09
-8.9214457e-07
0.019779251
-1.0892528e-09
-4.5411359e-06
0.019824056
-1.4992551e-09
-4.1807537e-08
0.019810481
-1.6237479e-09
-9.1483154e-08
0.019816553
-1.7110629e-09
1.1980307e-06
0.019811062
-2.053167e-09
8.1121493e-07
0.01981196
-1.4836877e-09
7.3052718e-07
0.019811261
-2.2195929e-09
3.5349747e-07
0.019812337
-7.6634485e-10
-1.9861677e-08
0.019812409
-1.150825e-09
-3.8862895e-07
0.019812432
-3.3928445e-10
-7.670032e-07
0.019812405
-8.5438888e-10
-8.4787398e-07
0.019811359
-2.240317e-10
-1.2332792e-06
0.0198121
-1.0178276e-09
6.1441137e-08
0.019811222
-7.4966453e-10
6.0190716e-09
0.019816745
-1.5963684e-09
4.5101417e-06
0.019810655
-2.1120973e-09
8.5433519e-07
0.0198243
-2.8617059e-09
-2.7365888e-05
0.019779468
-4.7832078e-09
0.01986012
-3.5600667e-09
2.7279492e-06
0.036633887
-7.2927103e-10
-4.95551e-06
0.036580903
-5.5500153e-10
-5.5237183e-06
0.036611038
4.9959178e-10
-1.9523846e-06
0.036596494
-6.1053179e-10
-1.114628e-06
0.03660465
-7.8278652e-11
3.3197098e-07
0.036596753
-2.7749497e-09
3.4750824e-07
0.036597968
1.1578054e-09
5.336297e-07
0.03659655
-5.6652353e-09
1.9813247e-07
0.036598275
3.3534185e-09
-8.0898813e-10
0.036598448
-1.0140349e-09
-1.9966983e-07
0.036598474
2.7014037e-09
-5.3833606e-07
0.036598351
-3.6577722e-10
-3.5460478e-07
0.036596653
3.9698909e-09
-3.4112622e-07
0.036598128
-1.6136377e-10
1.1006722e-06
0.036596929
1.7350395e-09
1.9387238e-06
0.036604869
-1.1911743e-09
5.5159022e-06
0.036596686
-1.4959475e-09
4.9381819e-06
0.03661133
-6.2302895e-09
-2.7382994e-06
0.036581169
-5.4641838e-09
0.036634115
-2.770618e-09
1.805576e-05
0.032340941
7.904757e-10
1.0743759e-06
0.032306628
1.3148634e-10
8.5289214e-07
0.032325196
-1.1029675e-09
-1.223271e-06
0.032314588
4.3925227e-10
-6.4231813e-07
0.032321186
-1.6598382e-09
6.8442413e-07
0.032315671
-1.3841554e-11
1.876101e-06
0.032316963
-1.3791785e-09
1.9335173e-06
0.032315462
1.86326e-09
1.3112722e-06
0.032316298
-1.1547415e-09
-1.2983302e-08
0.032316159
1.2930775e-09
-1.333974e-06
0.032316168
-1.5273542e-11
-1.9589363e-06
0.032316338
6.884342e-10
-1.9047365e-06
0.032315508
-1.0223189e-09
-7.1635057e-07
0.032317039
9.8899544e-10
5.912375e-07
0.032315738
-5.391441e-10
1.1580418e-06
0.032321285
-7.0642074e-10
-8.9928202e-07
0.032314665
-6.0407548e-09
-1.1276718e-06
0.032325335
-1.3462341e-09
-1.8101362e-05
0.032306793
-4.9287189e-09
0.032341029
-8.6861149e-09
-4.0735557e-06
0.028317422
8.5447986e-10
-6.3302963e-06
0.028278721
2.2575921e-10
-8.8437065e-06
0.028296376
6.7533444e-09
-5.6514583e-06
0.028282692
2.9985433e-10
-5.9803784e-06
0.028294203
-2.097708e-11
-2.4983583e-06
0.028288809
-1.0365796e-08
-1.0206208e-06
0.028292167
4.0564839e-09
5.572463e-07
0.028288282
-2.6537279e-08
3.8168854e-07
0.028288309
1.4153471e-08
3.2781993e-08
0.028286975
-2.1315991e-09
-3.1706223e-07
0.028286973
1.2991796e-08
-4.9639886e-07
0.028288325
3.0917174e-09
1.0789034e-06
0.028288251
2.1175616e-08
2.5467284e-06
0.028292207
5.3586155e-09
6.0205484e-06
0.028288807
7.8838609e-09
5.6914887e-06
0.028294254
-5.9738339e-10
8.894336e-06
0.028282745
-2.5493589e-10
6.3499568e-06
0.028296519
-2.2765124e-08
4.0472534e-06
0.028278911
-7.3019673e-09
0.02831752
1.4517029e-09
3.9469572e-06
0.00025219985
-6.6143515e-09
1.8197509e-06
0.00022726927
-2.2097149e-08
8.5375243e-06
0.00023532271
-1.8820428e-08
2.6783096e-07
0.00022893323
3.2048543e-09
1.9967209e-06
0.00023187418
-8.0572444e-10
9.8714965e-07
0.00023257926
2.6846898e-08
3.2189953e-06
0.00023126474
-9.4626681e-09
2.4847734e-06
0.00022998083
5.946948e-08
1.9499209e-06
0.00022807892
-4.0509618e-08
-2.238117e-08
0.00022739571
-6.2701468e-09
-1.9875451e-06
0.00022740479
-5.1501779e-08
-2.5308941e-06
0.00022813532
-2.8595926e-08
-3.3139695e-06
0.00023012869
-7.2176981e-08
-1.0950316e-06
0.00023135059
-2.7456744e-08
-2.1718268e-06
0.00023272795
-3.1458243e-08
-3.9353507e-07
0.00023202962
-5.0773976e-09
-8.5908933e-06
0.00022922335
-1.5731664e-08
-1.8999272e-06
0.00023547853
5.7318062e-08
-4.154633e-06
0.00022771316
1.0016543e-07
0.00025256484
1.0097798e-08
-1.2826133e-05
-0.052464895
-1.6550543e-08
-7.0769715e-06
-0.052514667
-1.2869516e-08
-1.1519979e-05
-0.052494258
-3.1820172e-08
-7.750624e-06
-0.052508405
-5.2130061e-09
-8.0029849e-06
-0.052499979
-3.7599976e-09
-7.0757039e-06
-0.052504496
4.0720651e-08
-7.410115e-06
-0.052501879
-1.6165708e-08
-4.8249032e-06
-0.052504102
9.3326552e-08
-2.7871399e-06
-0.052503447
-5.6197527e-08
8.7436651e-08
-0.052504063
-6.0398552e-09
2.984684e-06
-0.052504067
-6.310192e-08
5.0258616e-06
-0.052503411
-3.3397648e-08
7.5732586e-06
-0.052503841
-9.4789914e-08
7.2617051e-06
-0.052501913
-4.1197758e-08
8.2067478e-06
-0.052504404
-4.3877577e-08
7.9530994e-06
-0.052500003
3.7589792e-09
1.1663481e-05
-0.052508321
1.53917e-08
7.2505358e-06
-0.052494503
9.4571135e-08
1.2970442e-05
-0.052514596
5.6659446e-08
-0.052464866
3.5004496e-08
3.2456224e-07
-0.059420429
-2.6874777e-08
-1.0035652e-05
-0.059433669
-4.2205158e-08
7.7945545e-06
-0.059449795
2.5161506e-08
1.5368973e-07
-0.059432032
-1.7703809e-08
6.9793015e-06
-0.059438895
1.3484662e-09
1.5294716e-06
-0.05943124
-4.1247192e-08
3.8452044e-06
-0.059434184
6.102639e-09
1.335482e-06
-0.059429862
-1.1440601e-07
1.4971562e-06
-0.059431983
3.071354e-08
-6.2084439e-09
-0.059430731
-2.5445119e-08
-1.5422652e-06
-0.059430765
2.5549716e-08
-1.419239e-06
-0.059432031
2.833589e-09
-3.9903881e-06
-0.059429903
6.4400471e-08
-1.7004715e-06
-0.05943431
5.0362244e-09
-7.0748655e-06
-0.059431253
6.4273457e-09
-2.2362678e-07
-0.059439015
1.0160116e-09
-7.66441e-06
-0.059432117
7.6900353e-08
1.0274779e-05
-0.059449946
-5.5423297e-08
-7.0577463e-07
-0.059434134
1.853582e-07
-0.059420622
1.5453404e-07
-2.0931246e-05
-0.0083350596
4.9989861e-08
-5.7607505e-06
-0.0083993265
6.8458742e-08
-1.7096365e-05
-0.0083908908
4.970206e-08
-7.1534705e-06
-0.0083971704
1.0417987e-08
-1.578623e-05
-0.0083877018
5.7541833e-09
-8.9307688e-06
-0.0083936857
-4.6009381e-08
-1.2217253e-05
-0.0083865964
2.7446662e-08
-6.7142135e-06
-0.0083896886
-7.9832026e-08
-4.8417697e-06
-0.0083863892
9.164248e-08
1.6793396e-08
-0.0083873635
3.3354236e-08
4.8666843e-06
-0.0083873963
1.2182831e-07
6.7733099e-06
-0.0083863958
6.9722586e-08
1.2446533e-05
-0.0083898577
1.4480305e-07
9.2176676e-06
-0.0083865952
7.2769347e-08
1.6060406e-05
-0.008393737
8.8076928e-08
7.3829177e-06
-0.0083876819
7.6470603e-10
1.7129325e-05
-0.0083971842
-4.1189224e-08
5.6426854e-06
-0.0083907216
-1.7913242e-07
2.128849e-05
-0.0083994091
-2.9300244e-07
-0.0083350372
-1.9113965e-07
5.1493787e-05
-2.4697643e-09
3.8790535e-05
-1.1341193e-08
3.4902477e-05
-2.1344368e-08
2.3837078e-05
2.9156482e-09
2.2914131e-05
-1.6126679e-09
1.3664603e-05
3.1882447e-08
1.0510117e-05
-1.0678542e-08
3.3101748e-06
7.8124333e-08
1.8466004e-06
-3.9176378e-08
-4.8494051e-08
1.1418287e-08
-1.9404604e-06
-4.2406802e-08
-3.4071244e-06
-1.1051003e-08
-1.0623441e-05
-6.4175744e-08
-1.3786762e-05
-1.8932642e-08
-2.3073786e-05
-2.4107552e-08
-2.4038081e-05
-7.2763895e-10
-3.5065933e-05
-1.8728738e-08
-3.8954195e-05
5.4578056e-08
-5.1625352e-05
4.483005e-08
-1.5797135e-08
-7.0302416e-05
0.0028189271
0.00024574442
-3.8114129e-06
0.0026802799
0.00024587164
-4.5249247e-06
0.0027503558
0.00024582513
-1.3972919e-07
0.0027443235
0.00024584398
8.6502825e-08
0.002747071
0.00024583192
1.0956771e-06
0.0027441689
0.00024583503
5.2190691e-07
0.002744665
0.00024583329
4.679832e-07
0.0027442964
0.00024583621
1.7405889e-07
0.002744977
0.00024583816
-1.729266e-08
0.0027449842
0.00024583887
-2.0370457e-07
0.0027449972
0.00024584022
-5.0071193e-07
0.0027450175
0.00024583749
-5.547774e-07
0.0027443575
0.00024583835
-1.1271829e-06
0.0027447514
0.00024583272
-1.2084126e-07
0.0027442695
0.00024583638
1.0864973e-07
0.0027471864
0.00024583227
4.5024063e-06
0.0027444359
0.00024584437
3.784067e-06
0.0027504984
0.00024582456
7.0298857e-05
0.0026804073
0.00024586885
0.0028190585
0.00024574344
2.7356542e-05
0.019859913
-0.00014560282
-8.9217121e-07
0.019779252
-0.00014554551
-4.541234e-06
0.019824058
-0.00014559437
-4.2053194e-08
0.019810482
-0.00014557919
-9.1548485e-08
0.019816554
-0.00014559889
1.1979938e-06
0.019811061
-0.00014560069
8.1116005e-07
0.01981196
-0.00014560715
7.3074837e-07
0.019811258
-0.00014560502
3.5368481e-07
0.019812338
-0.00014560361
-1.9797997e-08
0.01981241
-0.00014560172
-3.8860303e-07
0.019812432
-0.00014560064
-7.6694428e-07
0.019812405
-0.00014560364
-8.4785554e-07
0.019811359
-0.00014560303
-1.2333766e-06
0.019812102
-0.0001456069
6.1316456e-08
0.019811222
-0.00014559863
5.800775e-09
0.019816745
-0.00014559788
4.5098165e-06
0.019810656
-0.00014557873
8.541198e-07
0.019824298
-0.0001455947
-2.7365833e-05
0.019779468
-0.00014554988
0.01986012
-0.0001456045
2.7283179e-06
0.036633888
-6.1814961e-05
-4.9552193e-06
0.036580904
-6.1941627e-05
-5.5241929e-06
0.036611044
-6.1879336e-05
-1.9532336e-06
0.036596495
-6.185918e-05
-1.1153009e-06
0.036604652
-6.1864081e-05
3.3135353e-07
0.036596747
-6.1852918e-05
3.4695782e-07
0.036597968
-6.1844444e-05
5.3478829e-07
0.036596536
-6.1847437e-05
1.9896262e-07
0.036598275
-6.1837969e-05
-8.0325053e-10
0.036598448
-6.184552e-05
-1.9938879e-07
0.036598471
-6.1839773e-05
-5.3775957e-07
0.036598351
-6.1842272e-05
-3.542681e-07
0.036596652
-6.1839659e-05
-3.4171964e-07
0.036598134
-6.1849871e-05
1.1001081e-06
0.036596929
-6.1849124e-05
1.9379056e-06
0.036604869
-6.1866073e-05
5.514666e-06
0.036596686
-6.1862319e-05
4.9384302e-06
0.03661132
-6.1885186e-05
-2.7377715e-06
0.036581169
-6.1949901e-05
0.036634115
-6.1821216e-05
1.8055454e-05
0.03234094
-5.7399018e-06
1.0743129e-06
0.032306628
-5.7815342e-06
8.5305515e-07
0.0323252
-5.8409003e-06
-1.223016e-06
0.032314589
-5.7692294e-06
-6.4202575e-07
0.032321186
-5.8326896e-06
6.8477191e-07
0.032315668
-5.8308419e-06
1.8763969e-06
0.032316963
-5.8495012e-06
1.9333542e-06
0.032315452
-5.8549059e-06
1.3111673e-06
0.032316298
-5.8559973e-06
-1.3210755e-08
0.032316159
-5.8545455e-06
-1.3342141e-06
0.032316165
-5.854858e-06
-1.9591851e-06
0.032316337
-5.8526737e-06
-1.9046616e-06
0.032315506
-5.8541987e-06
-7.1638482e-07
0.032317043
-5.8470297e-06
5.9090789e-07
0.032315737
-5.8290739e-06
1.1576287e-06
0.032321285
-5.8322266e-06
-8.9915334e-07
0.032314665
-5.7779548e-06
-1.1279964e-06
0.032325328
-5.845344e-06
-1.8102493e-05
0.032306797
-5.7976911e-06
0.032341031
-5.7571053e-06
-4.0707456e-06
0.028317419
1.1261576e-05
-6.3284766e-06
0.028278725
1.0928347e-05
-8.8464815e-06
0.028296401
1.1194043e-05
-5.6564802e-06
0.028282695
1.118085e-05
-5.9837381e-06
0.028294202
1.1209663e-05
-2.5019252e-06
0.028288786
1.1177602e-05
-1.0238693e-06
0.028292165
1.1176869e-05
5.6394465e-07
0.028288219
1.1106017e-05
3.8777702e-07
0.028288304
1.1145543e-05
3.24906e-08
0.02828698
1.1093186e-05
-3.1550779e-07
0.028286959
1.1124066e-05
-4.9278726e-07
0.028288324
1.1136765e-05
1.0810684e-06
0.028288247
1.1157376e-05
2.5435523e-06
0.028292234
1.1159019e-05
6.0179703e-06
0.028288802
1.1201747e-05
5.6873863e-06
0.028294255
1.1206897e-05
8.8885518e-06
0.028282751
1.1177193e-05
6.3527365e-06
0.028296475
1.1176256e-05
4.051901e-06
0.028278906
1.0942945e-05
0.028317523
1.1255493e-05
3.9401199e-06
0.00025219637
-1.3271161e-05
1.8183308e-06
0.00022726123
-1.4606257e-05
8.5454273e-06
0.00023529416
-1.3131602e-05
2.7548558e-07
0.00022893218
-1.3229362e-05
2.0050064e-06
0.00023187402
-1.3168204e-05
9.9428389e-07
0.00023261516
-1.3351693e-05
3.2262532e-06
0.00023126707
-1.3528829e-05
2.4693542e-06
0.00023005514
-1.3763299e-05
1.9366369e-06
0.00022808169
-1.3951069e-05
-2.4442857e-08
0.00022739363
-1.3993783e-05
-1.9913192e-06
0.00022741245
-1.4065857e-05
-2.5383565e-06
0.00022812785
-1.3932681e-05
-3.3165825e-06
0.00023012395
-1.3876383e-05
-1.0876742e-06
0.00023131492
-1.3490095e-05
-2.1656661e-06
0.00023272803
-1.3412313e-05
-3.9720983e-07
0.00023203025
-1.3180462e-05
-8.571123e-06
0.00022922533
-1.3267765e-05
-1.8985314e-06
0.0002355341
-1.3077648e-05
-4.170094e-06
0.00022773792
-1.4424013e-05
0.00025258127
-1.327395e-05
-1.283265e-05
-0.052464898
2.4908478e-05
-7.0817482e-06
-0.052514691
2.5381234e-05
-1.1509714e-05
-0.052494364
2.5328203e-05
-7.7328755e-06
-0.052508408
2.5055883e-05
-7.9906168e-06
-0.052499978
2.5276281e-05
-7.0655024e-06
-0.05250437
2.536813e-05
-7.3984207e-06
-0.05250187
2.5420848e-05
-4.8485327e-06
-0.052503824
2.557435e-05
-2.806304e-06
-0.05250343
2.5421769e-05
8.5135592e-08
-0.052504073
2.5540052e-05
2.9785667e-06
-0.052504025
2.5428821e-05
5.0149635e-06
-0.052503428
2.5446911e-05
7.5675504e-06
-0.052503845
2.5387774e-05
7.2748736e-06
-0.052502041
2.5471943e-05
8.2190739e-06
-0.052504393
2.52692e-05
7.9701507e-06
-0.052500004
2.5293124e-05
1.1685849e-05
-0.05250833
2.5121754e-05
7.2435456e-06
-0.052494304
2.5442857e-05
1.2961086e-05
-0.052514533
2.5494673e-05
-0.052464836
2.5054769e-05
3.3463537e-07
-0.059420427
2.3309267e-05
-1.0029081e-05
-0.059433667
2.0698805e-05
7.7865101e-06
-0.059449813
2.6512395e-05
1.2373818e-07
-0.059432029
2.5268997e-05
6.9672283e-06
-0.059438896
2.6815498e-05
1.5151024e-06
-0.059431213
2.6634815e-05
3.8294153e-06
-0.059434181
2.6214543e-05
1.3585355e-06
-0.05942981
2.5522641e-05
1.5149834e-06
-0.059431975
2.5240124e-05
-5.4438236e-09
-0.059430726
2.4772576e-05
-1.5361299e-06
-0.05943075
2.4906464e-05
-1.405681e-06
-0.059432033
2.5233137e-05
-3.9854822e-06
-0.059429897
2.5751929e-05
-1.7111259e-06
-0.059434329
2.6153447e-05
-7.076092e-06
-0.059431246
2.6707289e-05
-2.3107598e-07
-0.059439015
2.6841805e-05
-7.6744699e-06
-0.059432124
2.5480635e-05
1.0287684e-05
-0.059449919
2.6611073e-05
-6.7903667e-07
-0.059434145
2.2125214e-05
-0.059420631
2.3885697e-05
-2.0926265e-05
-0.0083350602
6.7047824e-05
-5.7593227e-06
-0.008399309
6.8310038e-05
-1.7111382e-05
-0.0083908274
6.5191958e-05
-7.1760704e-06
-0.008397167
6.4560593e-05
-1.5800077e-05
-0.008387704
6.3708355e-05
-8.940546e-06
-0.0083937565
6.3813471e-05
-1.2225321e-05
-0.0083866018
6.4285273e-05
-6.6892974e-06
-0.0083898568
6.4978493e-05
-4.8170238e-06
-0.0083863971
6.558897e-05
2.0707506e-08
-0.0083873528
6.5890625e-05
4.8743271e-06
-0.0083874168
6.6004535e-05
6.7829904e-06
-0.0083863875
6.553997e-05
1.2453692e-05
-0.0083898507
6.5138993e-05
9.2025087e-06
-0.0083865172
6.4235969e-05
1.6040291e-05
-0.0083937415
6.3942122e-05
7.3490797e-06
-0.0083876801
6.3699238e-05
1.7088215e-05
-0.0083971747
6.4429174e-05
5.6351312e-06
-0.008390845
6.4775227e-05
2.1287976e-05
-0.008399455
6.6935426e-05
-0.0083350515
6.6391242e-05
5.1486313e-05
-0.00013557592
3.8787261e-05
-0.00013618442
3.4910534e-05
-0.00013578795
2.385014e-05
-0.00013582374
2.2923269e-05
-0.00013591035
1.3673783e-05
-0.000135961
1.0519585e-05
-0.00013603477
3.2950266e-06
-0.00013601862
1.830646e-06
-0.00013614293
-4.9463496e-08
-0.00013606039
-1.9456938e-06
-0.00013615402
-3.4152985e-06
-0.00013611393
-1.0628474e-05
-0.00013615804
-1.3778561e-05
-0.00013598278
-2.3068347e-05
-0.00013602749
-2.4029312e-05
-0.00013591213
-3.5049206e-05
-0.00013586281
-3.8957466e-05
-0.00013575018
-5.1640894e-05
-0.00013620613
-0.00013562312
-7.0209005e-05
0.0033129059
-3.8113717e-06
0.0031748557
-4.5291601e-06
0.0032446933
-1.3973882e-07
0.0032386785
8.6640357e-08
0.0032414161
1.0962706e-06
0.0032385206
5.2287336e-07
0.0032390135
4.6876868e-07
0.0032386473
1.7443276e-07
0.0032393283
-1.716978e-08
0.0032393352
-2.0409408e-07
0.0032393496
-5.0149802e-07
0.0032393676
-5.5577802e-07
0.0032387091
-1.1275859e-06
0.003239098
-1.2086039e-07
0.0032386216
1.0863739e-07
0.0032415313
4.5065505e-06
0.0032387905
3.7836324e-06
0.0032448361
7.0205744e-05
0.0031749812
0.0033130362
2.7344195e-05
0.02002852
-8.9190279e-07
0.019948019
-4.5400641e-06
0.019992776
-4.6507616e-08
0.019979217
-9.2703159e-08
0.019985276
1.197009e-06
0.019979788
8.121181e-07
0.019980686
7.3183783e-07
0.019979984
3.5440968e-07
0.019981066
-1.9668236e-08
0.019981136
-3.892587e-07
0.01998116
-7.6800558e-07
0.019981132
-8.4883658e-07
0.019980086
-1.2321448e-06
0.019980824
6.2463543e-08
0.019979951
8.2264647e-09
0.019985467
4.5082746e-06
0.019979389
8.5323978e-07
0.019993015
-2.7353272e-05
0.019948231
0.020028724
2.7053667e-06
0.036678009
-4.9425002e-06
0.036625332
-5.5150179e-06
0.036655434
-1.9482347e-06
0.03664094
-1.1116854e-06
0.036649055
3.3624027e-07
0.036641154
3.4902817e-07
0.03664236
5.3634863e-07
0.036640915
1.9874984e-07
0.036642656
-5.7298686e-10
0.036642814
-1.9935038e-07
0.036642846
-5.3995729e-07
0.036642727
-3.568253e-07
0.036641036
-3.4604891e-07
0.036642515
1.0966962e-06
0.03664134
1.9324387e-06
0.036649273
5.5050723e-06
0.036641129
4.925026e-06
0.036655712
-2.7151218e-06
0.036625598
0.036678232
1.8021096e-05
0.032379209
1.0639573e-06
0.032344871
8.4777094e-07
0.032363575
-1.2302631e-06
0.032352968
-6.5096882e-07
0.032359561
6.8228438e-07
0.032354022
1.8724685e-06
0.032355298
1.9360775e-06
0.032353751
1.3112393e-06
0.032354597
-1.2686863e-08
0.032354434
-1.3336767e-06
0.032354449
-1.9616702e-06
0.032354635
-1.9008691e-06
0.032353815
-7.1411204e-07
0.032355369
5.9839929e-07
0.032354098
1.162528e-06
0.032359658
-8.9689984e-07
0.032353041
-1.1192572e-06
0.032363702
-1.8070771e-05
0.032345054
0.032379296
-4.1333609e-06
0.028370092
-6.2984978e-06
0.028331275
-8.8222031e-06
0.028349263
-5.6454989e-06
0.028335544
-5.9893082e-06
0.028347081
-2.5098633e-06
0.028341642
-1.0341926e-06
0.028344992
5.5666774e-07
0.028340979
3.8153464e-07
0.0283411
3.5461946e-08
0.028339689
-3.0669466e-07
0.028339728
-4.8959141e-07
0.02834112
1.0877364e-06
0.028341072
2.5525632e-06
0.028345009
6.0248965e-06
0.028341696
5.6752243e-06
0.028347137
8.867528e-06
0.028335602
6.3242904e-06
0.02834933
4.1088262e-06
0.028331498
0.028370196
3.7114836e-06
0.00029435759
1.9578603e-06
0.00026921518
8.6327515e-06
0.00027766985
2.5927882e-07
0.00027122901
1.9198517e-06
0.00027426584
9.1566875e-07
0.00027500395
3.1212908e-06
0.00027362262
2.4135805e-06
0.00027237321
1.901924e-06
0.0002703276
-3.0578242e-08
0.00026966542
-1.9595103e-06
0.00026962903
-2.4743401e-06
0.00027038822
-3.2040888e-06
0.00027239648
-1.0156533e-06
0.0002737204
-2.0932852e-06
0.00027508842
-3.3237084e-07
0.0002744247
-8.6501969e-06
0.00027154076
-2.0220129e-06
0.00027792405
-3.9795344e-06
0.00026980312
0.00029479407
-1.2597735e-05
-0.052389191
-7.0844109e-06
-0.052439649
-1.1470744e-05
-0.052418757
-7.7001731e-06
-0.052433059
-7.9445956e-06
-0.052424463
-7.0669814e-06
-0.052428926
-7.3891536e-06
-0.0524264
-4.8758833e-06
-0.052428406
-2.7988178e-06
-0.052428169
7.3346932e-08
-0.052428631
2.9687655e-06
-0.052428809
5.0506189e-06
-0.05242813
7.5720118e-06
-0.052428634
7.2681738e-06
-0.052426372
8.1768472e-06
-0.052429069
7.9558458e-06
-0.052424492
1.165924e-05
-0.052432957
7.2558103e-06
-0.05241868
1.2760332e-05
-0.05243938
-0.052389068
3.5818733e-07
-0.059249098
-9.5397802e-06
-0.059263257
8.6262566e-06
-0.059278987
4.0239001e-07
-0.059261294
6.9622394e-06
-0.059268219
1.1822347e-06
-0.059260635
3.5354152e-06
-0.059263497
1.0307216e-06
-0.059259262
1.3579392e-06
-0.059261308
1.2139019e-08
-0.059260085
-1.3661428e-06
-0.059260145
-1.0834944e-06
-0.059261354
-3.7224028e-06
-0.05925938
-1.3780454e-06
-0.059263611
-7.0499672e-06
-0.059260678
-4.3760555e-07
-0.05926834
-8.3573662e-06
-0.059261405
9.9953374e-06
-0.059279137
-7.3444836e-07
-0.059263788
-0.059249392
-2.1294922e-05
-0.0080652626
-6.1323892e-06
-0.0081294127
-1.7784104e-05
-0.0081209763
-7.5235301e-06
-0.0081271457
-1.5722172e-05
-0.0081177464
-8.6217437e-06
-0.0081237562
-1.1900105e-05
-0.0081165688
-6.3581184e-06
-0.0081198982
-4.6704286e-06
-0.0081162699
2.5860818e-08
-0.0081174057
4.7265724e-06
-0.0081173257
6.4361313e-06
-0.0081162734
1.2128004e-05
-0.0081197541
8.9010461e-06
-0.0081166075
1.5968685e-05
-0.0081236602
7.6181219e-06
-0.0081177165
1.7608498e-05
-0.0081271534
5.8762215e-06
-0.0081210117
2.1705547e-05
-0.0081295557
-0.0080652861
5.154351e-05
3.8800902e-05
3.4859196e-05
2.3810368e-05
2.2881655e-05
1.3660264e-05
1.050191e-05
3.2949349e-06
1.8351095e-06
-5.7641872e-08
-1.9546418e-06
-3.4068352e-06
-1.0600016e-05
-1.3771292e-05
-2.30356e-05
-2.3992901e-05
-3.5008392e-05
-3.896852e-05
-5.1710406e-05
)
;

boundaryField
{
    left
    {
        type            calculated;
        value           uniform 0;
    }
    right
    {
        type            calculated;
        value           uniform 0;
    }
    walls
    {
        type            calculated;
        value           uniform 0;
    }
    centreline
    {
        type            calculated;
        value           nonuniform List<scalar> 
80
(
-0.014877906
-0.014878126
-0.014878126
-0.014877906
-0.014878126
-0.014878355
-0.014878355
-0.014878125
-0.014877954
-0.01487817
-0.01487817
-0.014877954
-0.014878178