/*--------------------------------*- C++ -*----------------------------------*\
  =========                 |
  \\      /  F ield         | OpenFOAM: The Open Source CFD Toolbox
   \\    /   O peration     | Website:  https://openfoam.org
    \\  /    A nd           | Version:  8
     \\/     M anipulation  |
\*---------------------------------------------------------------------------*/
FoamFile
{
    version     2.0;
    format      ascii;
    class       volVectorField;
    location    "1";
    object      U;
}
// * * * * * * * * * * * * * * * * * * * * * * * * * * * * * * * * * * * * * //

dimensions      [0 1 -1 0 0 0 0];

internalField   nonuniform List<vector> 
800
(
(-0.00082588771 4.214961 -0.0016703806)
(2.1060068e-05 4.2155031 -0.0016711394)
(-6.2559402e-05 4.2156863 -0.0016710245)
(1.2047481e-05 4.2156943 -0.0016710615)
(-1.3497207e-05 4.2156902 -0.0016710362)
(1.431761e-05 4.2156983 -0.0016710435)
(-2.659081e-06 4.2156908 -0.0016710379)
(8.8293605e-06 4.2156997 -0.001671045)
(-3.9451078e-06 4.2156958 -0.0016710454)
(6.3350014e-06 4.2156997 -0.0016710513)
(-6.5321669e-06 4.2156997 -0.0016710492)
(3.7765565e-06 4.2156958 -0.0016710477)
(-9.0278014e-06 4.2156997 -0.0016710456)
(2.4821289e-06 4.2156907 -0.0016710399)
(-1.4480033e-05 4.2156983 -0.0016710447)
(1.331449e-05 4.2156901 -0.0016710367)
(-1.2185798e-05 4.2156943 -0.0016710629)
(6.2386901e-05 4.2156862 -0.0016710225)
(-2.1162855e-05 4.2155029 -0.0016711402)
(0.00082590495 4.2149609 -0.001670381)
(0.00021405302 -4.9030758 0.0003924974)
(5.9552312e-05 -4.9045017 0.00039250571)
(-6.6485985e-05 -4.9043137 0.00039254547)
(1.7002981e-05 -4.9043593 0.00039254316)
(-1.7015217e-05 -4.9043378 0.00039256937)
(1.5536692e-05 -4.9043643 0.00039257592)
(-3.4212247e-06 -4.9043524 0.000392585)
(1.1752404e-05 -4.904365 0.00039257943)
(-4.6573276e-06 -4.9043565 0.00039257621)
(8.6913524e-06 -4.904361 0.00039256977)
(-8.8946541e-06 -4.9043609 0.00039257094)
(4.4901804e-06 -4.9043562 0.00039257507)
(-1.1954557e-05 -4.9043647 0.00039257818)
(3.2434051e-06 -4.9043519 0.00039258375)
(-1.5707074e-05 -4.9043637 0.00039257385)
(1.6802572e-05 -4.9043371 0.00039256757)
(-1.7150871e-05 -4.9043585 0.00039254036)
(6.6278815e-05 -4.9043128 0.00039254586)
(-5.968852e-05 -4.9045007 0.0003925055)
(-0.00021401232 -4.9030749 0.00039249489)
(4.0564739e-05 5.8711358 0.00011833723)
(-1.2945209e-05 5.872275 0.00011849315)
(-3.6231046e-05 5.8723462 0.00011841626)
(-6.8761184e-06 5.8723152 0.00011836217)
(-1.3027273e-05 5.872327 0.00011838645)
(4.8346651e-06 5.8723231 0.0001183661)
(-2.5486459e-06 5.8723145 0.0001183517)
(5.9820812e-06 5.8723248 0.00011835482)
(-1.7664924e-06 5.8723219 0.00011834317)
(3.6979187e-06 5.8723275 0.00011833972)
(-3.7025514e-06 5.8723276 0.0001183453)
(1.764643e-06 5.872322 0.00011833413)
(-6.015402e-06 5.8723251 0.0001183478)
(2.5151029e-06 5.8723149 0.00011834498)
(-4.8774998e-06 5.8723235 0.00011836063)
(1.2936242e-05 5.8723275 0.00011838756)
(6.8445978e-06 5.8723154 0.00011836449)
(3.6163325e-05 5.8723468 0.00011843374)
(1.2858309e-05 5.8722753 0.00011850257)
(-4.0567997e-05 5.871136 0.00011834932)
(0.00010568934 -6.6820732 2.2277351e-05)
(1.8032221e-05 -6.6836986 2.2347371e-05)
(-5.9808367e-06 -6.6836113 2.2512108e-05)
(9.207837e-06 -6.6836612 2.2368196e-05)
(-1.5577932e-05 -6.6836268 2.2495161e-05)
(9.4942154e-06 -6.6836668 2.2477854e-05)
(-3.5725117e-06 -6.6836491 2.2508717e-05)
(1.7620247e-05 -6.6836689 2.2507029e-05)
(-3.7446452e-06 -6.6836558 2.2502686e-05)
(1.3461466e-05 -6.6836613 2.2500948e-05)
(-1.3561308e-05 -6.6836612 2.2496811e-05)
(3.6733639e-06 -6.6836556 2.2506103e-05)
(-1.7736817e-05 -6.6836685 2.2503257e-05)
(3.456741e-06 -6.6836486 2.251391e-05)
(-9.6189112e-06 -6.6836662 2.2477734e-05)
(1.5268155e-05 -6.6836261 2.249449e-05)
(-9.3094099e-06 -6.6836605 2.237244e-05)
(5.7909448e-06 -6.6836104 2.2515144e-05)
(-1.835233e-05 -6.6836975 2.2372123e-05)
(-0.00010565666 -6.6820723 2.2286435e-05)
(-4.5041645e-06 8.0473566 -3.0420454e-05)
(-1.565241e-05 8.0490317 -2.9918073e-05)
(-3.2524058e-05 8.0490503 -3.0312168e-05)
(-1.8951683e-05 8.0490427 -3.0296934e-05)
(-2.1923243e-05 8.0490436 -3.0317826e-05)
(-1.2947117e-05 8.0490548 -3.0248447e-05)
(-4.7723433e-06 8.0490419 -3.0250425e-05)
(-1.0655453e-06 8.0490544 -3.0122691e-05)
(4.03551e-06 8.0490444 -3.0178896e-05)
(-1.8565122e-06 8.0490494 -3.0148954e-05)
(2.0824121e-06 8.0490494 -3.0140492e-05)
(-3.8237975e-06 8.0490444 -3.0210635e-05)
(1.2445472e-06 8.0490544 -3.0181817e-05)
(4.9405659e-06 8.0490419 -3.0271297e-05)
(1.3078665e-05 8.0490547 -3.0285178e-05)
(2.2007004e-05 8.0490435 -3.031505e-05)
(1.9083293e-05 8.0490423 -3.0291362e-05)
(3.2697985e-05 8.0490501 -3.0244659e-05)
(1.562905e-05 8.0490316 -2.993383e-05)
(4.3771583e-06 8.0473561 -3.0388913e-05)
(3.8684279e-05 -9.2837029 2.9775042e-05)
(-2.0180874e-05 -9.2858606 3.1483654e-05)
(3.4102815e-05 -9.2857865 2.9953823e-05)
(7.0452112e-06 -9.2858523 2.9925425e-05)
(-4.2793638e-06 -9.285792 2.9976604e-05)
(1.2177688e-05 -9.285835 3.013923e-05)
(-5.55075e-06 -9.2858019 3.0377672e-05)
(2.3368531e-05 -9.2858364 3.0598568e-05)
(-1.0483794e-05 -9.2858239 3.0790466e-05)
(2.1141726e-05 -9.2858364 3.0914204e-05)
(-2.1283786e-05 -9.2858364 3.087961e-05)
(1.0374093e-05 -9.2858237 3.0842423e-05)
(-2.3559824e-05 -9.2858362 3.0671773e-05)
(5.2124248e-06 -9.2858016 3.0401034e-05)
(-1.2458335e-05 -9.2858345 3.0193315e-05)
(3.6801811e-06 -9.2857915 2.9981131e-05)
(-7.2084569e-06 -9.2858515 2.9969207e-05)
(-3.4049124e-05 -9.285786 2.9829964e-05)
(1.9466274e-05 -9.2858595 3.1489546e-05)
(-3.901699e-05 -9.2837018 2.9811783e-05)
(-5.0443838e-05 10.870123 -3.9453213e-05)
(-7.971052e-06 10.872494 -3.9613189e-05)
(-2.863318e-05 10.872456 -3.99272e-05)
(-2.2047609e-05 10.872497 -3.975215e-05)
(-1.6137115e-05 10.872443 -4.0010486e-05)
(-2.209855e-05 10.872499 -4.0109971e-05)
(-1.1037477e-05 10.872452 -4.0105861e-05)
(-2.5230395e-05 10.872484 -4.021199e-05)
(3.4239001e-06 10.872457 -4.0061921e-05)
(-1.6499759e-05 10.872468 -4.0014121e-05)
(1.688994e-05 10.872468 -4.004591e-05)
(-2.9660739e-06 10.872457 -3.9983305e-05)
(2.5648642e-05 10.872484 -4.0093585e-05)
(1.1453256e-05 10.872452 -4.0059897e-05)
(2.2566102e-05 10.872499 -4.0025695e-05)
(1.6771135e-05 10.872444 -4.0021146e-05)
(2.2481419e-05 10.872498 -3.9785888e-05)
(2.9036094e-05 10.872456 -4.0136267e-05)
(8.4939533e-06 10.872496 -3.9761824e-05)
(5.0452355e-05 10.870124 -3.9604005e-05)
(7.4176781e-05 -13.081911 -1.7359238e-05)
(-7.4316852e-05 -13.084997 -1.3081869e-05)
(3.8255914e-05 -13.084817 -2.0577376e-05)
(4.4140679e-07 -13.084957 -1.942336e-05)
(-6.3991173e-09 -13.08484 -2.0828143e-05)
(3.0545154e-05 -13.084933 -2.0406938e-05)
(-2.6392649e-05 -13.084861 -1.9829665e-05)
(4.1114093e-05 -13.084911 -1.8804302e-05)
(-3.6556493e-05 -13.084877 -1.8431289e-05)
(4.253629e-05 -13.084893 -1.7982801e-05)
(-4.2518945e-05 -13.084893 -1.7974027e-05)
(3.6498561e-05 -13.084878 -1.8537244e-05)
(-4.1324627e-05 -13.084911 -1.897633e-05)
(2.5953267e-05 -13.084861 -1.9905934e-05)
(-3.0849444e-05 -13.084933 -2.0503988e-05)
(-3.8846457e-08 -13.08484 -2.0837053e-05)
(-6.3430765e-07 -13.084957 -1.949686e-05)
(-3.6714626e-05 -13.084817 -2.0550843e-05)
(7.4321999e-05 -13.084998 -1.4258889e-05)
(-7.5654348e-05 -13.081911 -1.7614978e-05)
(-9.923055e-05 15.045772 -6.8052342e-05)
(2.8236482e-05 15.049309 -7.0169691e-05)
(-5.0773483e-05 15.049027 -6.6995255e-05)
(-1.3176795e-05 15.04927 -6.6168899e-05)
(-1.2910724e-05 15.049102 -6.5646887e-05)
(-4.0292636e-05 15.049245 -6.5860021e-05)
(8.4921152e-06 15.049148 -6.6349823e-05)
(-4.8392545e-05 15.049225 -6.7069772e-05)
(2.521848e-05 15.049177 -6.7530321e-05)
(-4.1090739e-05 15.049201 -6.7944271e-05)
(4.1149609e-05 15.0492 -6.7889149e-05)
(-2.5176259e-05 15.049177 -6.7570543e-05)
(4.8597792e-05 15.049225 -6.7096631e-05)
(-7.8996844e-06 15.049148 -6.6364339e-05)
(4.0659372e-05 15.049246 -6.589444e-05)
(1.3490133e-05 15.049102 -6.5650866e-05)
(1.3453121e-05 15.049271 -6.6173744e-05)
(4.9708217e-05 15.049027 -6.6732758e-05)
(-2.7705534e-05 15.049309 -6.9347848e-05)
(0.0001002528 15.045772 -6.7807027e-05)
(-3.0537966e-05 -17.659304 -0.00098332564)
(0.00017961582 -17.663747 -0.00098342094)
(-5.6576467e-05 -17.663375 -0.00098347581)
(0.00015458 -17.663689 -0.00098349298)
(-7.6918726e-05 -17.663445 -0.00098340784)
(0.00014013256 -17.663643 -0.00098343424)
(-9.4729471e-05 -17.663492 -0.00098338425)
(0.00012254331 -17.663599 -0.00098346402)
(-0.00011071691 -17.663525 -0.0009833929)
(0.00011511611 -17.663558 -0.00098340334)
(-0.00011525483 -17.663558 -0.00098342019)
(0.00011053655 -17.663525 -0.00098335702)
(-0.00012269685 -17.663599 -0.00098340492)
(9.4560736e-05 -17.663492 -0.00098336149)
(-0.00014030798 -17.663643 -0.0009833949)
(7.6628007e-05 -17.663446 -0.00098340879)
(-0.00015482744 -17.663689 -0.0009834805)
(5.6338359e-05 -17.663375 -0.0009835519)
(-0.00017998615 -17.663747 -0.00098335414)
(3.0592924e-05 -17.659304 -0.0009833266)
(-0.00082708178 4.2171177 0.00027084826)
(2.1062268e-05 4.2176588 0.0002706477)
(-6.2514723e-05 4.2178427 0.00027086394)
(1.2048904e-05 4.2178508 0.00027082135)
(-1.3499835e-05 4.2178466 0.00027084986)
(1.4321545e-05 4.2178548 0.00027084219)
(-2.6676905e-06 4.2178472 0.00027084873)
(8.8304401e-06 4.2178562 0.00027083942)
(-3.9545428e-06 4.2178522 0.00027084278)
(6.3385822e-06 4.2178561 0.00027083751)
(-6.53587e-06 4.2178561 0.00027083996)
(3.7846259e-06 4.2178522 0.00027084139)
(-9.0287223e-06 4.2178562 0.00027084496)
(2.4904572e-06 4.2178472 0.00027084933)
(-1.4483224e-05 4.2178547 0.0002708447)
(1.3317034e-05 4.2178466 0.0002708492)
(-1.2185938e-05 4.2178507 0.00027082023)
(6.2342531e-05 4.2178427 0.00027086006)
(-2.1166282e-05 4.2176586 0.00027064211)
(0.00082709919 4.2171176 0.00027084425)
(0.00021427373 -4.9084215 0.00037278815)
(5.954626e-05 -4.9098496 0.00037268835)
(-6.6480938e-05 -4.9096612 0.00037276405)
(1.7023562e-05 -4.9097069 0.00037275748)
(-1.7011882e-05 -4.9096854 0.00037278603)
(1.5549981e-05 -4.9097119 0.00037279027)
(-3.4280233e-06 -4.9097 0.00037280153)
(1.1753315e-05 -4.9097126 0.00037279268)
(-4.6691018e-06 -4.909704 0.00037279323)
(8.6947202e-06 -4.9097086 0.00037278682)
(-8.8980191e-06 -4.9097085 0.00037278824)
(4.5007522e-06 -4.9097038 0.00037279258)
(-1.1955534e-05 -4.9097122 0.00037279574)
(3.2497946e-06 -4.9096995 0.00037280223)
(-1.5720643e-05 -4.9097112 0.00037279068)
(1.679887e-05 -4.9096847 0.00037278435)
(-1.7170355e-05 -4.9097061 0.00037275419)
(6.6275055e-05 -4.9096603 0.00037276044)
(-5.9683922e-05 -4.9098487 0.00037268246)
(-0.00021423419 -4.9084206 0.0003727821)
(4.0695798e-05 5.8762475 0.00013373986)
(-1.2916973e-05 5.8773877 0.00013389031)
(-3.6321738e-05 5.8774591 0.0001338172)
(-6.8893865e-06 5.8774279 0.00013375586)
(-1.303813e-05 5.8774399 0.00013378136)
(4.818655e-06 5.8774359 0.00013374949)
(-2.5615144e-06 5.8774274 0.00013374566)
(5.9800991e-06 5.8774377 0.000133729)
(-1.7786704e-06 5.8774347 0.00013373732)
(3.7022631e-06 5.8774404 0.00013373231)
(-3.7085922e-06 5.8774404 0.000133737)
(1.7705718e-06 5.8774349 0.00013372917)
(-6.012241e-06 5.8774379 0.00013374242)
(2.5287752e-06 5.8774277 0.00013374662)
(-4.8575483e-06 5.8774363 0.00013375456)
(1.2951019e-05 5.8774403 0.0001337808)
(6.866069e-06 5.8774281 0.00013375782)
(3.6257579e-05 5.8774597 0.00013381277)
(1.2827383e-05 5.8773881 0.0001338915)
(-4.0697721e-05 5.8762478 0.00013374603)
(0.00010577197 -6.6882563 4.4022333e-06)
(1.8140197e-05 -6.6898844 4.4524398e-06)
(-5.9638899e-06 -6.6897971 4.6153957e-06)
(9.2048847e-06 -6.689847 4.4758681e-06)
(-1.5528099e-05 -6.6898126 4.5990115e-06)
(9.5080355e-06 -6.6898525 4.5885652e-06)
(-3.56537e-06 -6.6898348 4.6148514e-06)
(1.7624915e-05 -6.6898545 4.6208454e-06)
(-3.7559617e-06 -6.6898414 4.6106227e-06)
(1.3466727e-05 -6.6898469 4.6104083e-06)
(-1.3566979e-05 -6.6898468 4.6064466e-06)
(3.6848441e-06 -6.6898412 4.6120741e-06)
(-1.774063e-05 -6.6898542 4.6114181e-06)
(3.4514117e-06 -6.6898344 4.6190555e-06)
(-9.6356805e-06 -6.689852 4.5852141e-06)
(1.522047e-05 -6.6898119 4.6005002e-06)
(-9.3046219e-06 -6.6898463 4.4727292e-06)
(5.7842312e-06 -6.6897962 4.6229714e-06)
(-1.8457292e-05 -6.6898833 4.4717975e-06)
(-0.00010574712 -6.6882554 4.404122e-06)
(-4.2453895e-06 8.0543037 -1.2134018e-05)
(-1.5604314e-05 8.0559821 -1.1624211e-05)
(-3.2729338e-05 8.0559996 -1.1994771e-05)
(-1.8957858e-05 8.0559921 -1.2007691e-05)
(-2.1909663e-05 8.055993 -1.2030343e-05)
(-1.2916159e-05 8.0560043 -1.1997703e-05)
(-4.7147743e-06 8.0559915 -1.196605e-05)
(-1.0314325e-06 8.0560042 -1.1915924e-05)
(4.0203548e-06 8.0559942 -1.1892714e-05)
(-1.8373712e-06 8.0559993 -1.1861907e-05)
(2.0516837e-06 8.0559993 -1.1861082e-05)
(-3.8423623e-06 8.0559942 -1.1919413e-05)
(1.215884e-06 8.0560042 -1.18889e-05)
(4.8942455e-06 8.0559915 -1.1948974e-05)
(1.3059568e-05 8.0560041 -1.1998357e-05)
(2.2014615e-05 8.0559928 -1.2027696e-05)
(1.9121877e-05 8.0559917 -1.2002154e-05)
(3.2892626e-05 8.0559995 -1.2014879e-05)
(1.556296e-05 8.055982 -1.1658291e-05)
(4.1420345e-06 8.0543032 -1.2111171e-05)
(3.9572397e-05 -9.2920662 1.2104667e-05)
(-2.0108775e-05 -9.2942272 1.3780164e-05)
(3.3344977e-05 -9.2941535 1.221647e-05)
(7.0596313e-06 -9.2942191 1.2255013e-05)
(-4.1697739e-06 -9.2941588 1.2292791e-05)
(1.2389098e-05 -9.2942017 1.2542308e-05)
(-5.3280553e-06 -9.2941687 1.2703976e-05)
(2.3588831e-05 -9.2942029 1.3079962e-05)
(-1.0337833e-05 -9.2941907 1.3114247e-05)
(2.1200136e-05 -9.2942032 1.3233982e-05)
(-2.1333582e-05 -9.2942031 1.3208692e-05)
(1.0282026e-05 -9.2941907 1.3137721e-05)
(-2.3794495e-05 -9.294203 1.2974133e-05)
(4.9801073e-06 -9.2941685 1.2645576e-05)
(-1.2679182e-05 -9.2942014 1.2511017e-05)
(3.5653688e-06 -9.2941584 1.2300646e-05)
(-7.2871072e-06 -9.2942183 1.2274577e-05)
(-3.3310283e-05 -9.2941525 1.2267646e-05)
(1.9474443e-05 -9.2942262 1.389512e-05)
(-3.9889679e-05 -9.2920651 1.2172668e-05)
(-5.0551834e-05 10.879628 -2.1833261e-05)
(-8.2072288e-06 10.882004 -2.1986146e-05)
(-2.8718111e-05 10.881964 -2.2356748e-05)
(-2.209789e-05 10.882005 -2.2104486e-05)
(-1.6324728e-05 10.881951 -2.2368457e-05)
(-2.2155869e-05 10.882006 -2.2361066e-05)
(-1.1090175e-05 10.881959 -2.2454255e-05)
(-2.5217454e-05 10.881991 -2.2364226e-05)
(3.5267097e-06 10.881965 -2.2414814e-05)
(-1.6498676e-05 10.881976 -2.2370459e-05)
(1.6912302e-05 10.881976 -2.2389187e-05)
(-2.9935904e-06 10.881966 -2.236642e-05)
(2.5619334e-05 10.881992 -2.2471214e-05)
(1.1488919e-05 10.881959 -2.2511068e-05)
(2.2595197e-05 10.882007 -2.2385337e-05)
(1.689977e-05 10.881951 -2.2370118e-05)
(2.2432532e-05 10.882006 -2.2130367e-05)
(2.9063572e-05 10.881963 -2.2336038e-05)
(8.7592527e-06 10.882005 -2.2054128e-05)
(5.0559266e-05 10.879629 -2.1920416e-05)
(7.6404651e-05 -13.093459 -3.5466097e-05)
(-7.5961265e-05 -13.096545 -3.1217577e-05)
(3.5113875e-05 -13.096366 -3.8635819e-05)
(3.2987986e-07 -13.096506 -3.7561724e-05)
(-4.9936532e-07 -13.096389 -3.8946716e-05)
(3.1070589e-05 -13.096482 -3.862383e-05)
(-2.5607627e-05 -13.09641 -3.7964464e-05)
(4.1842626e-05 -13.09646 -3.7121946e-05)
(-3.6170086e-05 -13.096426 -3.6578256e-05)
(4.2793055e-05 -13.096442 -3.6123371e-05)
(-4.2824344e-05 -13.096442 -3.6141242e-05)
(3.6021557e-05 -13.096426 -3.6654345e-05)
(-4.20383e-05 -13.09646 -3.7110912e-05)
(2.5205693e-05 -13.09641 -3.7958474e-05)
(-3.1341286e-05 -13.096482 -3.8649602e-05)
(4.6585079e-07 -13.09639 -3.8961797e-05)
(-5.051055e-07 -13.096507 -3.7574753e-05)
(-3.4124386e-05 -13.096368 -3.8789165e-05)
(7.5825289e-05 -13.096546 -3.2293087e-05)
(-7.7421549e-05 -13.09346 -3.5651683e-05)
(-0.00010036548 15.058467 -3.9313585e-05)
(2.8798312e-05 15.062009 -4.1368769e-05)
(-4.8808061e-05 15.061727 -3.8169836e-05)
(-1.2512303e-05 15.061969 -3.7411835e-05)
(-1.2765738e-05 15.061802 -3.688829e-05)
(-4.066315e-05 15.061945 -3.7189417e-05)
(7.8927818e-06 15.061847 -3.7598134e-05)
(-4.9004078e-05 15.061925 -3.8466991e-05)
(2.4795754e-05 15.061876 -3.8765783e-05)
(-4.1289692e-05 15.0619 -3.9176425e-05)
(4.1356087e-05 15.0619 -3.9121385e-05)
(-2.4794468e-05 15.061876 -3.8775461e-05)
(4.9222249e-05 15.061924 -3.8305222e-05)
(-7.3040381e-06 15.061847 -3.7515954e-05)
(4.1035193e-05 15.061945 -3.7117037e-05)
(1.3360024e-05 15.061802 -3.6897685e-05)
(1.2921909e-05 15.06197 -3.7437938e-05)
(4.8156218e-05 15.061727 -3.814363e-05)
(-2.8275921e-05 15.062008 -4.0762335e-05)
(0.00010109945 15.058467 -3.9220455e-05)
(-3.1262981e-05 -17.675444 0.0011789093)
(0.00017993006 -17.679893 0.001179587)
(-5.6671686e-05 -17.679522 0.0011794754)
(0.00015470948 -17.679836 0.0011795207)
(-7.6949247e-05 -17.679593 0.0011795831)
(0.00014022844 -17.67979 0.001179622)
(-9.480683e-05 -17.679639 0.0011796153)
(0.0001226149 -17.679746 0.0011796428)
(-0.00011075246 -17.679671 0.0011796078)
(0.0001151726 -17.679705 0.0011796052)
(-0.00011530184 -17.679705 0.0011795909)
(0.00011061001 -17.679671 0.0011796356)
(-0.00012277503 -17.679746 0.0011795931)
(9.462815e-05 -17.679639 0.0011795917)
(-0.00014041575 -17.67979 0.0011796138)
(7.6645051e-05 -17.679593 0.0011795844)
(-0.00015499452 -17.679836 0.0011795208)
(5.6460714e-05 -17.679522 0.0011795036)
(-0.00018026284 -17.679893 0.0011796857)
(3.1284066e-05 -17.675445 0.0011789165)
(-0.00082708165 4.2171177 -0.00027085583)
(2.1062909e-05 4.2176588 -0.00027065462)
(-6.2515288e-05 4.2178427 -0.00027087112)
(1.2048124e-05 4.2178508 -0.00027083017)
(-1.3501163e-05 4.2178466 -0.00027085803)
(1.4321467e-05 4.2178548 -0.00027085349)
(-2.6685968e-06 4.2178472 -0.00027085505)
(8.8306897e-06 4.2178562 -0.00027085294)
(-3.9520362e-06 4.2178522 -0.00027084485)
(6.3385651e-06 4.2178561 -0.00027084442)
(-6.5351922e-06 4.2178561 -0.00027084076)
(3.7850382e-06 4.2178522 -0.00027084615)
(-9.0281402e-06 4.2178562 -0.00027084414)
(2.4901335e-06 4.2178472 -0.00027085504)
(-1.4484522e-05 4.2178547 -0.00027084811)
(1.3316636e-05 4.2178466 -0.00027085732)
(-1.2188041e-05 4.2178507 -0.00027082886)
(6.2340546e-05 4.2178427 -0.00027087551)
(-2.1165764e-05 4.2176586 -0.000270663)
(0.00082709969 4.2171176 -0.00027085952)
(0.00021427396 -4.9084215 -0.00037279469)
(5.9546479e-05 -4.9098496 -0.00037269396)
(-6.648144e-05 -4.9096612 -0.0003727718)
(1.7023033e-05 -4.9097069 -0.00037276572)
(-1.7012701e-05 -4.9096854 -0.00037279469)
(1.5550013e-05 -4.9097119 -0.00037280053)
(-3.4287123e-06 -4.9097 -0.00037280904)
(1.1753633e-05 -4.9097126 -0.0003728039)
(-4.6672402e-06 -4.909704 -0.00037279711)
(8.6948987e-06 -4.9097086 -0.00037279282)
(-8.8978183e-06 -4.9097085 -0.00037279013)
(4.5009134e-06 -4.9097038 -0.00037279715)
(-1.1955122e-05 -4.9097122 -0.000372797)
(3.2495726e-06 -4.9096995 -0.00037280773)
(-1.5721592e-05 -4.9097112 -0.00037279466)
(1.6798202e-05 -4.9096847 -0.00037279247)
(-1.7171881e-05 -4.9097061 -0.00037276469)
(6.6272961e-05 -4.9096603 -0.00037277464)
(-5.9683912e-05 -4.9098487 -0.00037270637)
(-0.00021423334 -4.9084206 -0.00037279956)
(4.0696155e-05 5.8762475 -0.00013374305)
(-1.2913694e-05 5.8773877 -0.00013389278)
(-3.6322583e-05 5.8774591 -0.00013381535)
(-6.8924007e-06 5.8774279 -0.00013375853)
(-1.3043102e-05 5.8774399 -0.00013378162)
(4.8182275e-06 5.8774359 -0.0001337608)
(-2.5661356e-06 5.8774274 -0.0001337403)
(5.9801588e-06 5.8774377 -0.0001337522)
(-1.7694931e-06 5.8774347 -0.00013372212)
(3.7010363e-06 5.8774404 -0.00013373646)
(-3.7073608e-06 5.8774404 -0.00013372459)
(1.7720496e-06 5.8774349 -0.00013373075)
(-6.0089097e-06 5.8774379 -0.00013372458)
(2.528443e-06 5.8774277 -0.00013374756)
(-4.861798e-06 5.8774363 -0.00013374665)
(1.295054e-05 5.8774403 -0.00013378592)
(6.8589662e-06 5.8774281 -0.00013376406)
(3.6254487e-05 5.8774597 -0.0001338388)
(1.2832093e-05 5.8773881 -0.0001339151)
(-4.0696927e-05 5.8762478 -0.0001337577)
(0.00010577209 -6.6882563 -4.3991988e-06)
(1.813861e-05 -6.6898844 -4.4516547e-06)
(-5.9631675e-06 -6.6897971 -4.6200554e-06)
(9.2052155e-06 -6.689847 -4.4744339e-06)
(-1.5526761e-05 -6.6898125 -4.6051023e-06)
(9.5091483e-06 -6.6898526 -4.5885363e-06)
(-3.5638272e-06 -6.6898348 -4.6197812e-06)
(1.7625859e-05 -6.6898546 -4.6128694e-06)
(-3.7581173e-06 -6.6898414 -4.614474e-06)
(1.34676e-05 -6.6898469 -4.6053288e-06)
(-1.356874e-05 -6.6898468 -4.606234e-06)
(3.6840865e-06 -6.6898412 -4.6089828e-06)
(-1.7741086e-05 -6.6898542 -4.6147974e-06)
(3.4510792e-06 -6.6898343 -4.6156081e-06)
(-9.635216e-06 -6.689852 -4.5870044e-06)
(1.5217055e-05 -6.6898119 -4.6030483e-06)
(-9.3037562e-06 -6.6898463 -4.4950573e-06)
(5.7845027e-06 -6.6897962 -4.6273682e-06)
(-1.8461571e-05 -6.6898834 -4.4918451e-06)
(-0.00010574815 -6.6882554 -4.4365577e-06)
(-4.2432723e-06 8.0543037 1.2136296e-05)
(-1.5589973e-05 8.0559821 1.1625496e-05)
(-3.2731386e-05 8.0559996 1.2017427e-05)
(-1.8972886e-05 8.0559921 1.2009101e-05)
(-2.192882e-05 8.055993 1.2030189e-05)
(-1.2917725e-05 8.0560043 1.1964951e-05)
(-4.7367523e-06 8.0559915 1.1979347e-05)
(-1.0305098e-06 8.0560042 1.1829425e-05)
(4.0605129e-06 8.0559942 1.1940175e-05)
(-1.8407528e-06 8.0559993 1.1856102e-05)
(2.053765e-06 8.0559993 1.1905258e-05)
(-3.8356285e-06 8.0559942 1.1929171e-05)
(1.2314154e-06 8.0560042 1.1960362e-05)
(4.8911849e-06 8.0559915 1.1967397e-05)
(1.3042099e-05 8.0560041 1.202539e-05)
(2.201571e-05 8.0559928 1.2025999e-05)
(1.9093151e-05 8.0559917 1.2001377e-05)
(3.2885524e-05 8.0559995 1.1940209e-05)
(1.5588093e-05 8.055982 1.1631619e-05)
(4.1447317e-06 8.0543032 1.211601e-05)
(3.9563547e-05 -9.2920662 -1.2121971e-05)
(-2.0135041e-05 -9.2942272 -1.3839403e-05)
(3.3361334e-05 -9.2941533 -1.226708e-05)
(7.0865619e-06 -9.2942191 -1.2244382e-05)
(-4.1331513e-06 -9.2941588 -1.2296033e-05)
(1.2394159e-05 -9.2942018 -1.2468715e-05)
(-5.2889829e-06 -9.2941687 -1.2730825e-05)
(2.3587507e-05 -9.2942032 -1.2917251e-05)
(-1.0418663e-05 -9.2941907 -1.3224243e-05)
(2.1202787e-05 -9.2942032 -1.3250284e-05)
(-2.1345822e-05 -9.2942032 -1.3347917e-05)
(1.0268668e-05 -9.2941907 -1.3214303e-05)
(-2.3819797e-05 -9.294203 -1.3169464e-05)
(4.987866e-06 -9.2941683 -1.2718399e-05)
(-1.2641695e-05 -9.2942015 -1.2596283e-05)
(3.5593328e-06 -9.2941584 -1.2313249e-05)
(-7.2281622e-06 -9.2942183 -1.2320429e-05)
(-3.3260007e-05 -9.2941528 -1.2112884e-05)
(1.9428821e-05 -9.2942262 -1.3626153e-05)
(-3.9919717e-05 -9.2920651 -1.2147985e-05)
(-5.0554966e-05 10.879628 2.1795362e-05)
(-8.2383884e-06 10.882004 2.1956753e-05)
(-2.8707686e-05 10.881963 2.2286474e-05)
(-2.2062186e-05 10.882005 2.2092922e-05)
(-1.6274015e-05 10.881951 2.235924e-05)
(-2.2151069e-05 10.882007 2.2450731e-05)
(-1.1040698e-05 10.881959 2.241181e-05)
(-2.5219676e-05 10.881992 2.2572589e-05)
(3.4246021e-06 10.881965 2.2275982e-05)
(-1.6493882e-05 10.881976 2.235394e-05)
(1.6898927e-05 10.881976 2.2233304e-05)
(-3.0107447e-06 10.881966 2.2287561e-05)
(2.5585309e-05 10.881992 2.2243381e-05)
(1.1497865e-05 10.881959 2.2420328e-05)
(2.2646278e-05 10.882007 2.2280111e-05)
(1.6907268e-05 10.881951 2.2378483e-05)
(2.2507234e-05 10.882006 2.2164885e-05)
(2.9089556e-05 10.881964 2.2552681e-05)
(8.7073289e-06 10.882006 2.2191809e-05)
(5.0553904e-05 10.879629 2.1999623e-05)
(7.6403953e-05 -13.093459 3.5412433e-05)
(-7.5922678e-05 -13.096545 3.1123197e-05)
(3.5112889e-05 -13.096367 3.8681171e-05)
(2.996303e-07 -13.096506 3.7527864e-05)
(-5.385628e-07 -13.096389 3.8949771e-05)
(3.1062403e-05 -13.096482 3.8546862e-05)
(-2.5658008e-05 -13.09641 3.798072e-05)
(4.183654e-05 -13.09646 3.6903476e-05)
(-3.6081537e-05 -13.096426 3.6647247e-05)
(4.278294e-05 -13.096442 3.6069528e-05)
(-4.2812619e-05 -13.096442 3.619666e-05)
(3.6037894e-05 -13.096427 3.6659422e-05)
(-4.2006022e-05 -13.09646 3.7242753e-05)
(2.5200177e-05 -13.096411 3.7965695e-05)
(-3.1377315e-05 -13.096482 3.8662862e-05)
(4.9963818e-07 -13.09639 3.8963646e-05)
(-5.6172925e-07 -13.096507 3.7724606e-05)
(-3.4102869e-05 -13.096367 3.8684997e-05)
(7.5911711e-05 -13.096546 3.2703379e-05)
(-7.743657e-05 -13.093459 3.596743e-05)
(-0.00010035733 15.058467 3.9398955e-05)
(2.8818859e-05 15.062009 4.1491902e-05)
(-4.8830369e-05 15.061727 3.8257407e-05)
(-1.2545205e-05 15.061969 3.7429663e-05)
(-1.2808786e-05 15.061802 3.6897446e-05)
(-4.0666549e-05 15.061945 3.7109738e-05)
(7.8591672e-06 15.061847 3.7643443e-05)
(-4.8997788e-05 15.061924 3.8328616e-05)
(2.4878563e-05 15.061876 3.8922994e-05)
(-4.1288284e-05 15.0619 3.923531e-05)
(4.1369912e-05 15.0619 3.9332253e-05)
(-2.4782919e-05 15.061876 3.8896525e-05)
(4.9249027e-05 15.061924 3.8557156e-05)
(-7.3113342e-06 15.061847 3.7644296e-05)
(4.0987537e-05 15.061945 3.7268869e-05)
(1.3339039e-05 15.061802 3.6900191e-05)
(1.2839372e-05 15.06197 3.7369207e-05)
(4.8081453e-05 15.061727 3.7831086e-05)
(-2.8254423e-05 15.062008 4.023804e-05)
(0.0001011229 15.058467 3.8891621e-05)
(-3.1266651e-05 -17.675444 -0.0011789129)
(0.00017991305 -17.679893 -0.001179603)
(-5.666558e-05 -17.679522 -0.0011795058)
(0.00015472689 -17.679836 -0.0011795166)
(-7.6925814e-05 -17.679593 -0.0011795856)
(0.000140231 -17.67979 -0.0011795768)
(-9.4779931e-05 -17.679639 -0.0011796319)
(0.00012261417 -17.679746 -0.0011795306)
(-0.00011080031 -17.679671 -0.0011796685)
(0.00011517655 -17.679705 -0.0011795881)
(-0.00011530855 -17.679705 -0.0011796562)
(0.00011060215 -17.679671 -0.0011796521)
(-0.0001227934 -17.679746 -0.0011796907)
(9.4631888e-05 -17.679639 -0.0011796183)
(-0.00014039408 -17.67979 -0.0011796508)
(7.6639245e-05 -17.679593 -0.0011795854)
(-0.00015496087 -17.679836 -0.0011795482)
(5.6476745e-05 -17.679522 -0.0011794248)
(-0.00018029391 -17.679893 -0.0011796218)
(3.1275844e-05 -17.675445 -0.0011789408)
(-0.0008258875 4.214961 0.0016703776)
(2.1059624e-05 4.2155031 0.0016711365)
(-6.2559791e-05 4.2156863 0.0016710193)
(1.2047768e-05 4.2156943 0.0016710589)
(-1.3497119e-05 4.2156902 0.0016710331)
(1.4318612e-05 4.2156983 0.0016710438)
(-2.6592875e-06 4.2156908 0.001671037)
(8.8312376e-06 4.2156997 0.0016710466)
(-3.9443104e-06 4.2156958 0.0016710477)
(6.3356543e-06 4.2156997 0.0016710495)
(-6.5317662e-06 4.2156997 0.0016710528)
(3.7769486e-06 4.2156958 0.0016710454)
(-9.0288593e-06 4.2156997 0.0016710492)
(2.4803329e-06 4.2156907 0.0016710343)
(-1.4479938e-05 4.2156983 0.0016710454)
(1.3312277e-05 4.2156901 0.0016710339)
(-1.2187354e-05 4.2156943 0.0016710599)
(6.2382761e-05 4.2156862 0.0016710207)
(-2.116329e-05 4.2155029 0.0016711329)
(0.00082590727 4.2149609 0.0016703774)
(0.00021405326 -4.9030758 -0.00039250025)
(5.9551489e-05 -4.9045017 -0.00039250852)
(-6.6486801e-05 -4.9043137 -0.00039255039)
(1.700306e-05 -4.9043593 -0.0003925466)
(-1.701541e-05 -4.9043378 -0.00039257307)
(1.5537239e-05 -4.9043643 -0.00039257812)
(-3.4210117e-06 -4.9043524 -0.00039258766)
(1.1753899e-05 -4.904365 -0.00039257983)
(-4.6565833e-06 -4.9043565 -0.00039257652)
(8.6921702e-06 -4.904361 -0.0003925724)
(-8.8941367e-06 -4.9043609 -0.00039256997)
(4.4903297e-06 -4.9043562 -0.00039257706)
(-1.1955434e-05 -4.9043646 -0.00039257724)
(3.2422718e-06 -4.9043519 -0.00039258831)
(-1.5707438e-05 -4.9043637 -0.00039257473)
(1.6799979e-05 -4.9043371 -0.00039257097)
(-1.7152389e-05 -4.9043585 -0.00039254508)
(6.6274207e-05 -4.9043128 -0.00039254925)
(-5.9690163e-05 -4.9045007 -0.00039251524)
(-0.00021400995 -4.9030749 -0.00039250159)
(4.0564743e-05 5.8711358 -0.00011833937)
(-1.2945966e-05 5.872275 -0.000118496)
(-3.6230306e-05 5.8723462 -0.00011842647)
(-6.874155e-06 5.8723152 -0.00011836186)
(-1.302662e-05 5.872327 -0.00011838669)
(4.8379053e-06 5.8723231 -0.00011835454)
(-2.5499741e-06 5.8723145 -0.0001183446)
(5.9869383e-06 5.8723248 -0.00011833668)
(-1.7661401e-06 5.8723219 -0.00011832648)
(3.6977557e-06 5.8723275 -0.00011833923)
(-3.7024965e-06 5.8723276 -0.00011832648)
(1.7658736e-06 5.872322 -0.00011833598)
(-6.0184098e-06 5.8723251 -0.00011832949)
(2.5104734e-06 5.8723149 -0.00011835951)
(-4.8753503e-06 5.8723235 -0.00011835091)
(1.2929643e-05 5.8723275 -0.0001183893)
(6.8412445e-06 5.8723154 -0.000118367)
(3.6157743e-05 5.8723468 -0.00011842797)
(1.2860774e-05 5.8722753 -0.00011851005)
(-4.0562829e-05 5.871136 -0.00011834805)
(0.00010568809 -6.6820732 -2.2274149e-05)
(1.8029966e-05 -6.6836986 -2.2346917e-05)
(-5.9812365e-06 -6.6836113 -2.2510235e-05)
(9.2067963e-06 -6.6836612 -2.2369992e-05)
(-1.5579975e-05 -6.6836268 -2.2496022e-05)
(9.4936817e-06 -6.6836668 -2.2486416e-05)
(-3.5700823e-06 -6.6836491 -2.2512876e-05)
(1.7619842e-05 -6.6836689 -2.2513818e-05)
(-3.7439356e-06 -6.6836557 -2.2509541e-05)
(1.3462625e-05 -6.6836613 -2.2502004e-05)
(-1.3560542e-05 -6.6836612 -2.2503089e-05)
(3.672323e-06 -6.6836556 -2.25021e-05)
(-1.7736182e-05 -6.6836685 -2.2510106e-05)
(3.4578662e-06 -6.6836487 -2.2507727e-05)
(-9.6223696e-06 -6.6836662 -2.248167e-05)
(1.52613e-05 -6.6836261 -2.249615e-05)
(-9.3112002e-06 -6.6836605 -2.2383258e-05)
(5.7918106e-06 -6.6836104 -2.2522121e-05)
(-1.8362069e-05 -6.6836975 -2.238175e-05)
(-0.00010566183 -6.6820723 -2.2304335e-05)
(-4.5067762e-06 8.0473566 3.0421e-05)
(-1.5656559e-05 8.0490317 2.9909166e-05)
(-3.2521954e-05 8.0490503 3.0275742e-05)
(-1.8948056e-05 8.0490427 3.0296318e-05)
(-2.1921165e-05 8.0490436 3.0318717e-05)
(-1.2938825e-05 8.0490548 3.0290305e-05)
(-4.7772408e-06 8.0490419 3.0271035e-05)
(-1.0493856e-06 8.0490544 3.0198703e-05)
(4.0356981e-06 8.0490444 3.0229986e-05)
(-1.8547732e-06 8.0490494 3.0145029e-05)
(2.0881139e-06 8.0490494 3.0201821e-05)
(-3.8168899e-06 8.0490444 3.021395e-05)
(1.2333481e-06 8.0490544 3.0243493e-05)
(4.9214108e-06 8.0490418 3.0221154e-05)
(1.3086075e-05 8.0490546 3.0314659e-05)
(2.1992003e-05 8.0490435 3.0314667e-05)
(1.9075531e-05 8.0490423 3.0288651e-05)
(3.2692142e-05 8.0490502 3.0286192e-05)
(1.5643673e-05 8.0490317 2.9933637e-05)
(4.3902146e-06 8.0473561 3.0409441e-05)
(3.8672164e-05 -9.2837029 -2.977935e-05)
(-2.0171258e-05 -9.2858606 -3.1494491e-05)
(3.4121382e-05 -9.2857866 -2.9886378e-05)
(7.0419708e-06 -9.2858523 -2.9931852e-05)
(-4.2845114e-06 -9.285792 -2.996947e-05)
(1.216083e-05 -9.285835 -3.0229177e-05)
(-5.5452717e-06 -9.2858018 -3.0414376e-05)
(2.3328298e-05 -9.2858364 -3.0755675e-05)
(-1.0492459e-05 -9.2858237 -3.0904989e-05)
(2.1124465e-05 -9.2858364 -3.0927035e-05)
(-2.1301677e-05 -9.2858362 -3.1033956e-05)
(1.03594e-05 -9.2858237 -3.0866564e-05)
(-2.3532645e-05 -9.2858359 -3.0828809e-05)