/*--------------------------------*- C++ -*----------------------------------*\
  =========                 |
  \\      /  F ield         | OpenFOAM: The Open Source CFD Toolbox
   \\    /   O peration     | Website:  https://openfoam.org
    \\  /    A nd           | Version:  8
     \\/     M anipulation  |
\*---------------------------------------------------------------------------*/
FoamFile
{
    version     2.0;
    format      ascii;
    class       volScalarField;
    location    "1";
    object      N;
}
// * * * * * * * * * * * * * * * * * * * * * * * * * * * * * * * * * * * * * //

dimensions      [0 -3 0 0 0 0 0];

internalField   nonuniform List<scalar> 
200
(
31754998
0.10301237
0.10144106
0.10059751
0.10021614
0.10006867
0.1000193
0.10000482
0.10000106
0.10000019
0.10000001
0.099999977
0.099999971
0.09999997
0.09999997
0.09999997
0.09999997
0.09999997
0.09999997
0.09999997
0.09999997
0.09999997
0.09999997
0.09999997
0.09999997
0.09999997
0.09999997
0.09999997
0.09999997
0.09999997
0.09999997
0.09999997
0.09999997
0.09999997
0.09999997
0.09999997
0.09999997
0.09999997
0.09999997
0.09999997
0.09999997
0.09999997
0.09999997
0.09999997
0.09999997
0.09999997
0.09999997
0.09999997
0.09999997
0.09999997
0.09999997
0.09999997
0.09999997
0.09999997
0.09999997
0.09999997
0.09999997
0.09999997
0.09999997
0.09999997
0.09999997
0.09999997
0.09999997
0.09999997
0.09999997
0.09999997
0.09999997
0.09999997
0.09999997
0.09999997
0.09999997
0.09999997
0.09999997
0.09999997
0.09999997
0.09999997
0.09999997
0.09999997
0.09999997
0.09999997
0.09999997
0.09999997
0.09999997
0.09999997
0.09999997
0.09999997
0.09999997
0.09999997
0.09999997
0.09999997
0.09999997
0.09999997
0.09999997
0.09999997
0.09999997
0.09999997
0.09999997
0.09999997
0.09999997
0.09999997
0.09999997
0.09999997
0.09999997
0.09999997
0.09999997
0.09999997
0.09999997
0.09999997
0.09999997
0.09999997
0.09999997
0.09999997
0.09999997
0.09999997
0.09999997
0.09999997
0.09999997
0.09999997
0.09999997
0.09999997
0.09999997
0.09999997
0.09999997
0.09999997
0.09999997
0.09999997
0.099999971
0.09999997
0.099999971
0.09999997
0.099999971
0.09999997
0.099999971
0.09999997
0.099999972
0.09999997
0.099999972
0.099999969
0.099999973
0.099999969
0.099999973
0.099999968
0.099999974
0.099999967
0.099999976
0.099999966
0.099999977
0.099999965
0.099999979
0.099999963
0.099999982
0.09999996
0.099999984
0.099999957
0.099999988
0.099999954
0.099999992
0.099999949
0.099999997
0.099999944
0.1
0.099999939
0.10000001
0.099999932
0.10000002
0.099999925
0.10000002
0.099999917
0.10000003
0.099999907
0.10000004
0.099999896
0.10000006
0.099999884
0.10000007
0.09999987
0.10000009
0.099999853
0.1000001
0.099999834
0.10000012
0.099999812
0.10000015
0.099999787
0.10000018
0.099999757
0.10000021
0.099999723
0.10000025
0.099999684
0.10000029
0.099999639
0.10000034
0.099999585
0.10000038
0.099999541
0.10000046
0.09999946
0.10000052
0.099999336
)
;

boundaryField
{
    left
    {
        type            zeroGradient;
    }
    right
    {
        type            zeroGradient;
    }
    walls
    {
        type            zeroGradient;
    }
    centreline
    {
        type            zeroGradient;
    }
    frontAndBack
    {
        type            zeroGradient;
    }
}


// ************************************************************************* //
