/*--------------------------------*- C++ -*----------------------------------*\
  =========                 |
  \\      /  F ield         | OpenFOAM: The Open Source CFD Toolbox
   \\    /   O peration     | Website:  https://openfoam.org
    \\  /    A nd           | Version:  8
     \\/     M anipulation  |
\*---------------------------------------------------------------------------*/
FoamFile
{
    version     2.0;
    format      ascii;
    class       volScalarField;
    location    "1";
    object      p;
}
// * * * * * * * * * * * * * * * * * * * * * * * * * * * * * * * * * * * * * //

dimensions      [1 -1 -2 0 0 0 0];

internalField   nonuniform List<scalar> 
200
(
4246.9986
4246.9986
4246.9986
4246.9986
4246.9986
4246.9986
4246.9986
4246.9986
4246.9986
4246.9986
4246.9986
4246.9986
4246.9986
4246.9986
4246.9986
4246.9986
4246.9986
4246.9986
4246.9986
4246.9986
4246.9986
4246.9986
4246.9986
4246.9986
4246.9986
4246.9986
4246.9986
4246.9986
4246.9986
4246.9986
4246.9986
4246.9986
4246.9986
4246.9986
4246.9986
4246.9986
4246.9986
4246.9986
4246.9986
4246.9986
4246.9986
4246.9986
4246.9986
4246.9986
4246.9986
4246.9986
4246.9986
4246.9986
4246.9986
4246.9986
4246.9986
4246.9986
4246.9986
4246.9986
4246.9986
4246.9986
4246.9986
4246.9986
4246.9986
4246.9986
4246.9986
4246.9986
4246.9986
4246.9986
4246.9986
4246.9986
4246.9986
4246.9986
4246.9986
4246.9986
4246.9986
4246.9986
4246.9986
4246.9986
4246.9986
4246.9986
4246.9986
4246.9986
4246.9986
4246.9986
4246.9986
4246.9986
4246.9986
4246.9986
4246.9986
4246.9986
4246.9986
4246.9986
4246.9986
4246.9986
4246.9986
4246.9986
4246.9986
4246.9986
4246.9986
4246.9986
4246.9986
4246.9986
4246.9986
4246.9986
4246.9986
4246.9986
4246.9986
4246.9986
4246.9986
4246.9986
4246.9986
4246.9986
4246.9986
4246.9986
4246.9986
4246.9986
4246.9986
4246.9986
4246.9986
4246.9986
4246.9986
4246.9986
4246.9986
4246.9986
4246.9986
4246.9986
4246.9986
4246.9986
4246.9986
4246.9986
4246.9986
4246.9986
4246.9986
4246.9986
4246.9986
4246.9986
4246.9986
4246.9986
4246.9986
4246.9986
4246.9987
4246.9985
4246.9987
4246.9985
4246.9987
4246.9985
4246.9988
4246.9984
4246.9988
4246.9984
4246.9989
4246.9983
4246.999
4246.9982
4246.9991
4246.9981
4246.9993
4246.9979
4246.9995
4246.9977
4246.9997
4246.9975
4246.9999
4246.9973
4247.0002
4246.997
4247.0005
4246.9967
4247.0009
4246.9963
4247.0013
4246.9959
4247.0018
4246.9954
4247.0023
4246.9948
4247.0029
4246.9942
4247.0036
4246.9935
4247.0044
4246.9926
4247.0053
4246.9917
4247.0064
4246.9905
4247.0076
4246.9892
4247.0091
4246.9877
4247.0107
4246.9859
4247.0127
4246.9839
4247.0149
4246.9815
4247.0174
4246.9789
4247.0206
4246.9755
4247.0233
4246.9726
4247.0273
4246.9686
)
;

boundaryField
{
    left
    {
        type            zeroGradient;
    }
    right
    {
        type            zeroGradient;
    }
    walls
    {
        type            zeroGradient;
    }
    centreline
    {
        type            fixedValue;
        value           uniform 4247;
    }
    frontAndBack
    {
        type            zeroGradient;
    }
}


// ************************************************************************* //
