/*--------------------------------*- C++ -*----------------------------------*\
  =========                 |
  \\      /  F ield         | OpenFOAM: The Open Source CFD Toolbox
   \\    /   O peration     | Website:  https://openfoam.org
    \\  /    A nd           | Version:  8
     \\/     M anipulation  |
\*---------------------------------------------------------------------------*/
FoamFile
{
    version     2.0;
    format      ascii;
    class       surfaceScalarField;
    location    "1";
    object      phi;
}
// * * * * * * * * * * * * * * * * * * * * * * * * * * * * * * * * * * * * * //

dimensions      [1 0 -1 0 0 0 0];

internalField   nonuniform List<scalar> 
199
(
-4.1262207e-05
-0.00010091198
-0.00015317024
-0.00018674051
-0.00020384747
-0.00021107069
-0.00021369661
-0.00021457124
-0.00021488188
-0.00021503602
-0.00021515279
-0.00021526255
-0.00021537219
-0.0002154831
-0.00021559544
-0.00021570908
-0.00021582378
-0.00021593929
-0.00021605536
-0.00021617182
-0.00021628856
-0.00021640554
-0.00021652282
-0.00021664048
-0.00021675868
-0.00021687755
-0.00021699723
-0.00021711782
-0.0002172394
-0.00021736197
-0.00021748552
-0.00021760999
-0.00021773529
-0.00021786136
-0.00021798812
-0.00021811551
-0.00021824352
-0.00021837214
-0.00021850141
-0.00021863139
-0.00021876213
-0.0002188937
-0.00021902616
-0.00021915956
-0.00021929393
-0.00021942926
-0.00021956557
-0.00021970283
-0.00021984103
-0.00021998015
-0.00022012016
-0.00022026108
-0.00022040288
-0.00022054559
-0.00022068922
-0.00022083377
-0.00022097927
-0.00022112572
-0.00022127313
-0.0002214215
-0.00022157083
-0.00022172111
-0.00022187235
-0.00022202455
-0.0002221777
-0.0002223318
-0.00022248687
-0.0002226429
-0.0002227999
-0.00022295787
-0.00022311681
-0.00022327673
-0.00022343763
-0.00022359951
-0.00022376239
-0.00022392626
-0.00022409115
-0.00022425706
-0.00022442402
-0.00022459203
-0.00022476111
-0.00022493126
-0.0002251025
-0.00022527483
-0.00022544825
-0.00022562274
-0.0002257983
-0.00022597492
-0.00022615257
-0.00022633124
-0.00022651089
-0.00022669151
-0.00022687305
-0.00022705547
-0.00022723873
-0.00022742279
-0.0002276076
-0.00022779309
-0.00022797921
-0.0002281659
-0.0002283531
-0.00022854074
-0.00022872878
-0.00022891714
-0.00022910576
-0.00022929461
-0.00022948361
-0.00022967274
-0.00022986195
-0.0002300512
-0.00023024047
-0.00023042974
-0.00023061898
-0.0002308082
-0.00023099739
-0.00023118655
-0.0002313757
-0.00023156486
-0.00023175405
-0.00023194332
-0.00023213269
-0.00023232223
-0.00023251197
-0.00023270197
-0.00023289226
-0.00023308293
-0.00023327397
-0.0002334655
-0.00023365744
-0.00023384995
-0.00023404289
-0.00023423646
-0.00023443039
-0.00023462498
-0.00023481983
-0.00023501531
-0.00023521086
-0.00023540701
-0.00023560294
-0.00023579944
-0.00023599533
-0.00023619177
-0.00023638708
-0.00023658304
-0.00023677715
-0.00023697221
-0.0002371644
-0.00023735819
-0.00023754771
-0.00023774
-0.0002379261
-0.00023811679
-0.00023829876
-0.00023848792
-0.00023866515
-0.00023885301
-0.00023902504
-0.00023921189
-0.00023937841
-0.00023956455
-0.00023972545
-0.00023991104
-0.00024006645
-0.00024025132
-0.00024040165
-0.00024058519
-0.00024073113
-0.00024091208
-0.00024105477
-0.00024123106
-0.00024137211
-0.00024154075
-0.00024168236
-0.00024183936
-0.00024198439
-0.00024212478
-0.00024227675
-0.00024239473
-0.00024255778
-0.00024264702
-0.00024282567
-0.00024287978
-0.00024307855
-0.00024309175
-0.00024331457
-0.0002432825
-0.00024353184
-0.00024345235
-0.00024372622
-0.00024361665
-0.000244081
-0.00024338793
-0.0002379843
-0.00024486991
-0.00026804192
-0.00024428808
-0.00022565796
-0.00024348687
-0.00025283134
)
;

boundaryField
{
    left
    {
        type            calculated;
        value           uniform 0;
    }
    right
    {
        type            calculated;
        value           uniform 0;
    }
    walls
    {
        type            calculated;
        value           uniform 0;
    }
    centreline
    {
        type            calculated;
        value           uniform -0.00024511072;
    }
    frontAndBack
    {
        type            calculated;
        value           uniform 0;
    }
}


// ************************************************************************* //
