/*--------------------------------*- C++ -*----------------------------------*\
  =========                 |
  \\      /  F ield         | OpenFOAM: The Open Source CFD Toolbox
   \\    /   O peration     | Website:  https://openfoam.org
    \\  /    A nd           | Version:  8
     \\/     M anipulation  |
\*---------------------------------------------------------------------------*/
FoamFile
{
    version     2.0;
    format      ascii;
    class       volVectorField;
    location    "1";
    object      U;
}
// * * * * * * * * * * * * * * * * * * * * * * * * * * * * * * * * * * * * * //

dimensions      [0 1 -1 0 0 0 0];

internalField   nonuniform List<vector> 
200
(
(0 -6.6380445e-05 0)
(0 -0.00050964013 0)
(0 -0.001071812 0)
(0 -0.0014160251 0)
(0 -0.0016377048 0)
(0 -0.0017163604 0)
(0 -0.0017563638 0)
(0 -0.0017632819 0)
(0 -0.0017694692 0)
(0 -0.0017694124 0)
(0 -0.0017714205 0)
(0 -0.0017717081 0)
(0 -0.0017729998 0)
(0 -0.0017736605 0)
(0 -0.0017747376 0)
(0 -0.0017755689 0)
(0 -0.0017765733 0)
(0 -0.0017774803 0)
(0 -0.0017784599 0)
(0 -0.0017793999 0)
(0 -0.0017803704 0)
(0 -0.0017813249 0)
(0 -0.0017822934 0)
(0 -0.0017832572 0)
(0 -0.00178423 0)
(0 -0.0017852046 0)
(0 -0.0017861877 0)
(0 -0.0017871766 0)
(0 -0.0017881743 0)
(0 -0.0017891796 0)
(0 -0.0017901933 0)
(0 -0.0017912145 0)
(0 -0.0017922431 0)
(0 -0.0017932779 0)
(0 -0.0017943188 0)
(0 -0.0017953649 0)
(0 -0.0017964162 0)
(0 -0.0017974724 0)
(0 -0.001798534 0)
(0 -0.0017996011 0)
(0 -0.0018006744 0)
(0 -0.0018017543 0)
(0 -0.0018028413 0)
(0 -0.0018039359 0)
(0 -0.0018050384 0)
(0 -0.0018061488 0)
(0 -0.0018072672 0)
(0 -0.0018083935 0)
(0 -0.0018095276 0)
(0 -0.0018106692 0)
(0 -0.0018118183 0)
(0 -0.0018129748 0)
(0 -0.0018141386 0)
(0 -0.0018153099 0)
(0 -0.0018164886 0)
(0 -0.0018176749 0)
(0 -0.001818869 0)
(0 -0.0018200708 0)
(0 -0.0018212805 0)
(0 -0.0018224981 0)
(0 -0.0018237236 0)
(0 -0.001824957 0)
(0 -0.0018261983 0)
(0 -0.0018274474 0)
(0 -0.0018287043 0)
(0 -0.0018299692 0)
(0 -0.0018312419 0)
(0 -0.0018325226 0)
(0 -0.0018338112 0)
(0 -0.0018351078 0)
(0 -0.0018364124 0)
(0 -0.0018377251 0)
(0 -0.0018390457 0)
(0 -0.0018403746 0)
(0 -0.0018417113 0)
(0 -0.0018430568 0)
(0 -0.0018444098 0)
(0 -0.0018457722 0)
(0 -0.0018471419 0)
(0 -0.001848522 0)
(0 -0.0018499084 0)
(0 -0.0018513071 0)
(0 -0.0018527101 0)
(0 -0.0018541283 0)
(0 -0.001855547 0)
(0 -0.001856986 0)
(0 -0.0018584186 0)
(0 -0.0018598805 0)
(0 -0.0018613236 0)
(0 -0.0018628118 0)
(0 -0.0018642593 0)
(0 -0.00186578 0)
(0 -0.001867222 0)
(0 -0.0018687859 0)
(0 -0.0018702058 0)
(0 -0.0018718314 0)
(0 -0.0018732019 0)
(0 -0.0018749208 0)
(0 -0.0018761976 0)
(0 -0.0018780626 0)
(0 -0.0018791735 0)
(0 -0.0018812725 0)
(0 -0.001882101 0)
(0 -0.0018845774 0)
(0 -0.0018849369 0)
(0 -0.0018880226 0)
(0 -0.0018876158 0)
(0 -0.0018916812 0)
(0 -0.0018900392 0)
(0 -0.0018956688 0)
(0 -0.0018920574 0)
(0 -0.0019001652 0)
(0 -0.001893444 0)
(0 -0.0019054451 0)
(0 -0.0018938588 0)
(0 -0.0019119237 0)
(0 -0.0018927939 0)
(0 -0.0019202202 0)
(0 -0.001889498 0)
(0 -0.0019312473 0)
(0 -0.0018828725 0)
(0 -0.0019463318 0)
(0 -0.0018713324 0)
(0 -0.0019673712 0)
(0 -0.001852631 0)
(0 -0.0019970268 0)
(0 -0.0018236497 0)
(0 -0.002038945 0)
(0 -0.0017801689 0)
(0 -0.0020979869 0)
(0 -0.0017166432 0)
(0 -0.0021804384 0)
(0 -0.0016260126 0)
(0 -0.002294168 0)
(0 -0.0014995801 0)
(0 -0.0024487065 0)
(0 -0.001326981 0)
(0 -0.0026552236 0)
(0 -0.0010962633 0)
(0 -0.0029263848 0)
(0 -0.00079409736 0)
(0 -0.0032760763 0)
(0 -0.00040611397 0)
(0 -0.003719011 0)
(0 8.2657463e-05 0)
(0 -0.0042702633 0)
(0 0.00068731151 0)
(0 -0.0049448005 0)
(0 0.0014226238 0)
(0 -0.0057570828 0)
(0 0.0023027023 0)
(0 -0.0067207777 0)
(0 0.0033407651 0)
(0 -0.0078486044 0)
(0 0.0045490487 0)
(0 -0.0091523034 0)
(0 0.0059388327 0)
(0 -0.010642714 0)
(0 0.0075205651 0)
(0 -0.012329941 0)
(0 0.0093040672 0)
(0 -0.014223594 0)
(0 0.011298806 0)
(0 -0.016333083 0)
(0 0.013514222 0)
(0 -0.018667976 0)
(0 0.015960105 0)
(0 -0.02123839 0)
(0 0.018647009 0)
(0 -0.024055412 0)
(0 0.021586682 0)
(0 -0.02713154 0)
(0 0.024792503 0)
(0 -0.030481105 0)
(0 0.028279885 0)
(0 -0.034120639 0)
(0 0.032066601 0)
(0 -0.03806916 0)
(0 0.036173 0)
(0 -0.042348305 0)
(0 0.040622056 0)
(0 -0.046982297 0)
(0 0.04543923 0)
(0 -0.051997696 0)
(0 0.050652117 0)
(0 -0.05742295 0)
(0 0.056289895 0)
(0 -0.063287762 0)
(0 0.062382619 0)
(0 -0.069622331 0)
(0 0.068960461 0)
(0 -0.076455708 0)
(0 0.076051647 0)
(0 -0.083816759 0)
(0 0.083684586 0)
(0 -0.091696037 0)
(0 0.091847297 0)
(0 -0.10022631 0)
(0 0.10067185 0)
(0 -0.10935403 0)
)
;

boundaryField
{
    left
    {
        type            noSlip;
    }
    right
    {
        type            noSlip;
    }
    walls
    {
        type            noSlip;
    }
    centreline
    {
        type            noSlip;
    }
    frontAndBack
    {
        type            noSlip;
    }
}


// ************************************************************************* //
