/*--------------------------------*- C++ -*----------------------------------*\
  =========                 |
  \\      /  F ield         | OpenFOAM: The Open Source CFD Toolbox
   \\    /   O peration     | Website:  https://openfoam.org
    \\  /    A nd           | Version:  8
     \\/     M anipulation  |
\*---------------------------------------------------------------------------*/
FoamFile
{
    version     2.0;
    format      ascii;
    class       volScalarField;
    location    "0.5";
    object      N;
}
// * * * * * * * * * * * * * * * * * * * * * * * * * * * * * * * * * * * * * //

dimensions      [0 -3 0 0 0 0 0];

internalField   nonuniform List<scalar> 
200
(
17607898
0.1014603
0.10044488
0.10011007
0.10002254
0.10000376
0.10000036
0.099999836
0.099999764
0.099999756
0.099999755
0.099999755
0.099999755
0.099999755
0.099999755
0.099999755
0.099999755
0.099999755
0.099999755
0.099999755
0.099999755
0.099999755
0.099999755
0.099999755
0.099999755
0.099999755
0.099999755
0.099999756
0.099999756
0.099999756
0.099999756
0.099999756
0.099999756
0.099999756
0.099999756
0.099999756
0.099999756
0.099999756
0.099999757
0.099999757
0.099999757
0.099999757
0.099999757
0.099999757
0.099999757
0.099999758
0.099999758
0.099999758
0.099999758
0.099999758
0.099999758
0.099999759
0.099999759
0.099999759
0.099999759
0.099999759
0.09999976
0.09999976
0.09999976
0.09999976
0.099999761
0.099999761
0.099999761
0.099999761
0.099999762
0.099999762
0.099999762
0.099999763
0.099999763
0.099999763
0.099999764
0.099999764
0.099999764
0.099999765
0.099999765
0.099999765
0.099999766
0.099999766
0.099999767
0.099999767
0.099999767
0.099999768
0.099999768
0.099999769
0.099999769
0.09999977
0.09999977
0.099999771
0.099999771
0.099999772
0.099999772
0.099999773
0.099999773
0.099999774
0.099999775
0.099999775
0.099999776
0.099999776
0.099999777
0.099999778
0.099999778
0.099999779
0.09999978
0.09999978
0.099999781
0.099999782
0.099999783
0.099999783
0.099999784
0.099999785
0.099999786
0.099999786
0.099999787
0.099999788
0.099999789
0.09999979
0.099999791
0.099999792
0.099999793
0.099999794
0.099999795
0.099999796
0.099999797
0.099999798
0.099999799
0.0999998
0.099999801
0.099999802
0.099999804
0.099999805
0.099999806
0.099999807
0.099999809
0.099999809
0.099999812
0.099999811
0.099999815
0.099999813
0.099999818
0.099999815
0.099999822
0.099999817
0.099999826
0.099999818
0.099999831
0.099999819
0.099999837
0.09999982
0.099999844
0.099999819
0.099999852
0.099999818
0.099999861
0.099999817
0.099999871
0.099999814
0.099999883
0.09999981
0.099999895
0.099999806
0.099999908
0.099999801
0.099999922
0.099999795
0.099999937
0.099999788
0.099999953
0.099999781
0.099999969
0.099999773
0.099999985
0.099999764
0.1
0.099999756
0.10000002
0.099999748
0.10000004
0.09999974
0.10000006
0.099999732
0.10000007
0.099999724
0.10000009
0.099999715
0.10000012
0.099999704
0.10000014
0.099999689
0.10000017
0.099999668
0.10000021
0.099999637
0.10000026
0.099999593
0.10000032
0.099999532
0.10000042
0.099999435
0.10000051
0.099999302
)
;

boundaryField
{
    left
    {
        type            zeroGradient;
    }
    right
    {
        type            zeroGradient;
    }
    walls
    {
        type            zeroGradient;
    }
    centreline
    {
        type            zeroGradient;
    }
    frontAndBack
    {
        type            zeroGradient;
    }
}


// ************************************************************************* //
