/*--------------------------------*- C++ -*----------------------------------*\
  =========                 |
  \\      /  F ield         | OpenFOAM: The Open Source CFD Toolbox
   \\    /   O peration     | Website:  https://openfoam.org
    \\  /    A nd           | Version:  8
     \\/     M anipulation  |
\*---------------------------------------------------------------------------*/
FoamFile
{
    version     2.0;
    format      ascii;
    class       volScalarField;
    location    "0.5";
    object      p;
}
// * * * * * * * * * * * * * * * * * * * * * * * * * * * * * * * * * * * * * //

dimensions      [1 -1 -2 0 0 0 0];

internalField   nonuniform List<scalar> 
200
(
4246.9882
4246.9882
4246.9882
4246.9882
4246.9882
4246.9882
4246.9882
4246.9882
4246.9882
4246.9882
4246.9882
4246.9882
4246.9882
4246.9882
4246.9882
4246.9882
4246.9882
4246.9882
4246.9882
4246.9882
4246.9882
4246.9883
4246.9883
4246.9883
4246.9883
4246.9883
4246.9883
4246.9883
4246.9883
4246.9883
4246.9883
4246.9883
4246.9883
4246.9883
4246.9883
4246.9883
4246.9883
4246.9883
4246.9883
4246.9883
4246.9883
4246.9883
4246.9883
4246.9883
4246.9884
4246.9884
4246.9884
4246.9884
4246.9884
4246.9884
4246.9884
4246.9884
4246.9884
4246.9884
4246.9884
4246.9885
4246.9885
4246.9885
4246.9885
4246.9885
4246.9885
4246.9885
4246.9885
4246.9886
4246.9886
4246.9886
4246.9886
4246.9886
4246.9886
4246.9886
4246.9887
4246.9887
4246.9887
4246.9887
4246.9887
4246.9887
4246.9888
4246.9888
4246.9888
4246.9888
4246.9888
4246.9889
4246.9889
4246.9889
4246.9889
4246.989
4246.989
4246.989
4246.989
4246.9891
4246.9891
4246.9891
4246.9891
4246.9892
4246.9892
4246.9892
4246.9892
4246.9893
4246.9893
4246.9893
4246.9894
4246.9894
4246.9894
4246.9895
4246.9895
4246.9895
4246.9896
4246.9896
4246.9896
4246.9897
4246.9897
4246.9898
4246.9898
4246.9898
4246.9899
4246.9899
4246.99
4246.99
4246.9901
4246.9901
4246.9902
4246.9902
4246.9903
4246.9903
4246.9904
4246.9904
4246.9905
4246.9905
4246.9906
4246.9906
4246.9907
4246.9907
4246.9908
4246.9908
4246.991
4246.9909
4246.9911
4246.991
4246.9913
4246.9911
4246.9915
4246.9912
4246.9917
4246.9913
4246.9919
4246.9913
4246.9922
4246.9914
4246.9925
4246.9913
4246.9929
4246.9913
4246.9934
4246.9912
4246.9939
4246.9911
4246.9944
4246.9909
4246.995
4246.9907
4246.9956
4246.9904
4246.9963
4246.9901
4246.997
4246.9898
4246.9978
4246.9894
4246.9986
4246.989
4246.9994
4246.9886
4247.0002
4246.9882
4247.001
4246.9878
4247.0019
4246.9874
4247.0028
4246.987
4247.0037
4246.9866
4247.0047
4246.9861
4247.0058
4246.9855
4247.007
4246.9847
4247.0085
4246.9836
4247.0104
4246.982
4247.0129
4246.9798
4247.0162
4246.9766
4247.0201
4246.9726
4247.0262
4246.9665
)
;

boundaryField
{
    left
    {
        type            zeroGradient;
    }
    right
    {
        type            zeroGradient;
    }
    walls
    {
        type            zeroGradient;
    }
    centreline
    {
        type            fixedValue;
        value           uniform 4247;
    }
    frontAndBack
    {
        type            zeroGradient;
    }
}


// ************************************************************************* //
