/*--------------------------------*- C++ -*----------------------------------*\
  =========                 |
  \\      /  F ield         | OpenFOAM: The Open Source CFD Toolbox
   \\    /   O peration     | Website:  https://openfoam.org
    \\  /    A nd           | Version:  8
     \\/     M anipulation  |
\*---------------------------------------------------------------------------*/
FoamFile
{
    version     2.0;
    format      ascii;
    class       surfaceScalarField;
    location    "0.5";
    object      phi;
}
// * * * * * * * * * * * * * * * * * * * * * * * * * * * * * * * * * * * * * //

dimensions      [1 0 -1 0 0 0 0];

internalField   nonuniform List<scalar> 
199
(
-0.00010057313
-0.00019591781
-0.00024573311
-0.00026374784
-0.0002686528
-0.00026965284
-0.00026974066
-0.00026965301
-0.0002695362
-0.00026941461
-0.00026929179
-0.00026916821
-0.00026904399
-0.00026891913
-0.00026879365
-0.00026866756
-0.00026854086
-0.00026841353
-0.0002682856
-0.00026815706
-0.00026802792
-0.00026789818
-0.00026776786
-0.00026763696
-0.0002675055
-0.0002673735
-0.00026724096
-0.00026710792
-0.0002669744
-0.00026684043
-0.00026670606
-0.0002665713
-0.00026643622
-0.00026630085
-0.00026616524
-0.00026602943
-0.00026589348
-0.00026575743
-0.00026562134
-0.00026548525
-0.00026534921
-0.00026521327
-0.00026507749
-0.0002649419
-0.00026480657
-0.00026467152
-0.00026453682
-0.00026440249
-0.00026426857
-0.00026413509
-0.00026400207
-0.00026386953
-0.00026373749
-0.00026360593
-0.00026347485
-0.00026334425
-0.0002632141
-0.00026308438
-0.00026295506
-0.00026282612
-0.00026269754
-0.00026256929
-0.00026244135
-0.0002623137
-0.00026218636
-0.00026205933
-0.00026193261
-0.00026180625
-0.00026168028
-0.00026155474
-0.0002614297
-0.00026130522
-0.00026118139
-0.00026105827
-0.00026093594
-0.0002608145
-0.00026069401
-0.00026057455
-0.00026045619
-0.00026033898
-0.00026022297
-0.00026010819
-0.00025999467
-0.00025988241
-0.00025977141
-0.00025966165
-0.0002595531
-0.00025944574
-0.00025933953
-0.00025923442
-0.00025913038
-0.00025902737
-0.00025892536
-0.00025882433
-0.00025872426
-0.00025862518
-0.00025852709
-0.00025843005
-0.00025833413
-0.00025823944
-0.00025814612
-0.00025805435
-0.00025796433
-0.00025787633
-0.00025779063
-0.00025770756
-0.00025762747
-0.00025755072
-0.00025747766
-0.00025740866
-0.00025734401
-0.00025728397
-0.00025722871
-0.00025717834
-0.00025713283
-0.00025709207
-0.00025705583
-0.00025702377
-0.00025699548
-0.00025697045
-0.00025694816
-0.00025692799
-0.00025690945
-0.00025689192
-0.00025687504
-0.00025685827
-0.00025684151
-0.00025682437
-0.00025680709
-0.00025678948
-0.00025677216
-0.00025675515
-0.00025673947
-0.0002567254
-0.00025671425
-0.00025670663
-0.00025670394
-0.00025670723
-0.00025671767
-0.00025673686
-0.00025676515
-0.00025680514
-0.00025685519
-0.00025692001
-0.00025699363
-0.00025708562
-0.00025718148
-0.00025730067
-0.00025741365
-0.00025755769
-0.00025767936
-0.00025784446
-0.00025796464
-0.00025814715
-0.000258256
-0.00025845404
-0.00025854343
-0.00025875713
-0.00025881998
-0.00025904944
-0.00025907722
-0.00025931898
-0.00025929945
-0.00025954454
-0.00025946321
-0.00025970091
-0.00025954776
-0.0002597755
-0.00025955334
-0.00025978668
-0.00025951364
-0.00025978635
-0.00025948816
-0.00025983781
-0.00025953472
-0.00025998193
-0.00025968038
-0.00026021594
-0.00025991069
-0.00026049713
-0.00026018113
-0.00026076455
-0.00026044186
-0.00026096716
-0.00026066452
-0.00026108483
-0.00026085515
-0.00026112473
-0.00026103987
-0.00026109748
-0.00026123844
-0.00026100012
-0.00026144548
-0.00026088246
-0.00026244796
-0.00025920028
-0.00023623143
-0.00025960914
-0.00027629578
)
;

boundaryField
{
    left
    {
        type            calculated;
        value           uniform 0;
    }
    right
    {
        type            calculated;
        value           uniform 0;
    }
    walls
    {
        type            calculated;
        value           uniform 0;
    }
    centreline
    {
        type            calculated;
        value           uniform -0.00026146322;
    }
    frontAndBack
    {
        type            calculated;
        value           uniform 0;
    }
}


// ************************************************************************* //
