/*--------------------------------*- C++ -*----------------------------------*\
  =========                 |
  \\      /  F ield         | OpenFOAM: The Open Source CFD Toolbox
   \\    /   O peration     | Website:  https://openfoam.org
    \\  /    A nd           | Version:  8
     \\/     M anipulation  |
\*---------------------------------------------------------------------------*/
FoamFile
{
    version     2.0;
    format      ascii;
    class       volVectorField;
    location    "0.5";
    object      U;
}
// * * * * * * * * * * * * * * * * * * * * * * * * * * * * * * * * * * * * * //

dimensions      [0 1 -1 0 0 0 0];

internalField   nonuniform List<vector> 
200
(
(0 -0.00029023809 0)
(0 -0.0012173089 0)
(0 -0.0019273214 0)
(0 -0.0021171923 0)
(0 -0.0022162977 0)
(0 -0.0022119971 0)
(0 -0.0022257222 0)
(0 -0.0022178947 0)
(0 -0.0022215101 0)
(0 -0.0022176741 0)
(0 -0.0022184462 0)
(0 -0.0022163112 0)
(0 -0.0022159975 0)
(0 -0.0022145239 0)
(0 -0.0022137775 0)
(0 -0.0022125601 0)
(0 -0.0022116351 0)
(0 -0.0022105146 0)
(0 -0.0022095113 0)
(0 -0.0022084243 0)
(0 -0.0022073832 0)
(0 -0.0022063043 0)
(0 -0.002205242 0)
(0 -0.0022041609 0)
(0 -0.0022030843 0)
(0 -0.0022019972 0)
(0 -0.0022009095 0)
(0 -0.0021998151 0)
(0 -0.0021987183 0)
(0 -0.0021976166 0)
(0 -0.0021965121 0)
(0 -0.0021954039 0)
(0 -0.0021942931 0)
(0 -0.0021931796 0)
(0 -0.002192064 0)
(0 -0.0021909466 0)
(0 -0.0021898278 0)
(0 -0.0021887079 0)
(0 -0.0021875875 0)
(0 -0.0021864668 0)
(0 -0.0021853463 0)
(0 -0.0021842264 0)
(0 -0.0021831076 0)
(0 -0.0021819902 0)
(0 -0.0021808746 0)
(0 -0.0021797612 0)
(0 -0.0021786504 0)
(0 -0.0021775425 0)
(0 -0.0021764379 0)
(0 -0.0021753367 0)
(0 -0.0021742393 0)
(0 -0.0021731458 0)
(0 -0.0021720564 0)
(0 -0.0021709709 0)
(0 -0.0021698895 0)
(0 -0.0021688121 0)
(0 -0.0021677385 0)
(0 -0.0021666686 0)
(0 -0.0021656022 0)
(0 -0.002164539 0)
(0 -0.0021634788 0)
(0 -0.0021624215 0)
(0 -0.0021613668 0)
(0 -0.0021603147 0)
(0 -0.002159265 0)
(0 -0.0021582178 0)
(0 -0.0021571732 0)
(0 -0.0021561313 0)
(0 -0.0021550924 0)
(0 -0.0021540569 0)
(0 -0.0021530252 0)
(0 -0.0021519978 0)
(0 -0.0021509753 0)
(0 -0.0021499584 0)
(0 -0.0021489476 0)
(0 -0.0021479437 0)
(0 -0.0021469473 0)
(0 -0.0021459591 0)
(0 -0.0021449797 0)
(0 -0.0021440095 0)
(0 -0.002143049 0)
(0 -0.0021420987 0)
(0 -0.0021411586 0)
(0 -0.0021402289 0)
(0 -0.0021393097 0)
(0 -0.0021384009 0)
(0 -0.0021375022 0)
(0 -0.0021366135 0)
(0 -0.0021357345 0)
(0 -0.0021348648 0)
(0 -0.0021340041 0)
(0 -0.0021331522 0)
(0 -0.0021323083 0)
(0 -0.0021314732 0)
(0 -0.0021306451 0)
(0 -0.0021298265 0)
(0 -0.0021290137 0)
(0 -0.0021282129 0)
(0 -0.0021274154 0)
(0 -0.0021266358 0)
(0 -0.0021258543 0)
(0 -0.0021251033 0)
(0 -0.002124338 0)
(0 -0.0021236292 0)
(0 -0.0021228771 0)
(0 -0.0021222349 0)
(0 -0.002121484 0)
(0 -0.0021209512 0)
(0 -0.0021201676 0)
(0 -0.0021198208 0)
(0 -0.0021189247 0)
(0 -0.0021189036 0)
(0 -0.0021177232 0)
(0 -0.0021182883 0)
(0 -0.0021164761 0)
(0 -0.0021181165 0)
(0 -0.0021149982 0)
(0 -0.0021186315 0)
(0 -0.0021129368 0)
(0 -0.0021202657 0)
(0 -0.0021096591 0)
(0 -0.0021237917 0)
(0 -0.0021040674 0)
(0 -0.0021305654 0)
(0 -0.0020943114 0)
(0 -0.002142894 0)
(0 -0.0020773642 0)
(0 -0.0021645432 0)
(0 -0.002048466 0)
(0 -0.0022013487 0)
(0 -0.0020005126 0)
(0 -0.002261803 0)
(0 -0.0019235563 0)
(0 -0.0023574317 0)
(0 -0.0018045914 0)
(0 -0.0025028473 0)
(0 -0.0016276338 0)
(0 -0.0027155793 0)
(0 -0.0013739186 0)
(0 -0.003015869 0)
(0 -0.0010220965 0)
(0 -0.0034264058 0)
(0 -0.00054860175 0)
(0 -0.003971728 0)
(0 7.1517464e-05 0)
(0 -0.0046770919 0)
(0 0.00086327902 0)
(0 -0.0055669843 0)
(0 0.0018502857 0)
(0 -0.0066637086 0)
(0 0.0030534997 0)
(0 -0.007986403 0)
(0 0.0044905007 0)
(0 -0.0095505944 0)
(0 0.0061752198 0)
(0 -0.01136819 0)
(0 0.0081180222 0)
(0 -0.013447726 0)
(0 0.010326009 0)
(0 -0.015794712 0)
(0 0.012803426 0)
(0 -0.018411973 0)
(0 0.015552098 0)
(0 -0.021299972 0)
(0 0.018571809 0)
(0 -0.024457157 0)
(0 0.021860538 0)
(0 -0.027880354 0)
(0 0.025414575 0)
(0 -0.031565169 0)
(0 0.029228626 0)
(0 -0.03550633 0)
(0 0.033296147 0)
(0 -0.039697961 0)
(0 0.037610057 0)
(0 -0.044133972 0)
(0 0.042163837 0)
(0 -0.048808846 0)
(0 0.046952883 0)
(0 -0.053719057 0)
(0 0.051976122 0)
(0 -0.058865155 0)
(0 0.05723807 0)
(0 -0.064254582 0)
(0 0.062751561 0)
(0 -0.069905253 0)
(0 0.068541404 0)
(0 -0.075849823 0)
(0 0.074648959 0)
(0 -0.08214012 0)
(0 0.081136731 0)
(0 -0.088850661 0)
(0 0.08809105 0)
(0 -0.096079628 0)
(0 0.095621206 0)
(0 -0.10394227 0)
(0 0.10384923 0)
(0 -0.11254956 0)
(0 0.11288844 0)
(0 -0.12212746 0)
)
;

boundaryField
{
    left
    {
        type            noSlip;
    }
    right
    {
        type            noSlip;
    }
    walls
    {
        type            noSlip;
    }
    centreline
    {
        type            noSlip;
    }
    frontAndBack
    {
        type            noSlip;
    }
}


// ************************************************************************* //
