/*--------------------------------*- C++ -*----------------------------------*\
  =========                 |
  \\      /  F ield         | OpenFOAM: The Open Source CFD Toolbox
   \\    /   O peration     | Website:  https://openfoam.org
    \\  /    A nd           | Version:  8
     \\/     M anipulation  |
\*---------------------------------------------------------------------------*/
FoamFile
{
    version     2.0;
    format      ascii;
    class       volScalarField;
    location    "0.5";
    object      N;
}
// * * * * * * * * * * * * * * * * * * * * * * * * * * * * * * * * * * * * * //

dimensions      [0 -3 0 0 0 0 0];

internalField   nonuniform List<scalar> 
200
(
18046250
0.10114249
0.10034524
0.10008503
0.10001737
0.1000029
0.10000028
0.099999878
0.099999823
0.099999816
0.099999815
0.099999815
0.099999815
0.099999815
0.099999815
0.099999815
0.099999815
0.099999815
0.099999815
0.099999815
0.099999815
0.099999815
0.099999815
0.099999815
0.099999815
0.099999815
0.099999815
0.099999815
0.099999816
0.099999816
0.099999816
0.099999816
0.099999816
0.099999816
0.099999816
0.099999816
0.099999816
0.099999816
0.099999816
0.099999816
0.099999816
0.099999817
0.099999817
0.099999817
0.099999817
0.099999817
0.099999817
0.099999817
0.099999817
0.099999817
0.099999818
0.099999818
0.099999818
0.099999818
0.099999818
0.099999818
0.099999819
0.099999819
0.099999819
0.099999819
0.099999819
0.099999819
0.09999982
0.09999982
0.09999982
0.09999982
0.099999821
0.099999821
0.099999821
0.099999821
0.099999821
0.099999822
0.099999822
0.099999822
0.099999822
0.099999823
0.099999823
0.099999823
0.099999824
0.099999824
0.099999824
0.099999825
0.099999825
0.099999825
0.099999825
0.099999826
0.099999826
0.099999826
0.099999827
0.099999827
0.099999828
0.099999828
0.099999828
0.099999829
0.099999829
0.09999983
0.09999983
0.09999983
0.099999831
0.099999831
0.099999832
0.099999832
0.099999833
0.099999833
0.099999834
0.099999834
0.099999835
0.099999835
0.099999836
0.099999837
0.099999837
0.099999838
0.099999838
0.099999839
0.09999984
0.09999984
0.099999841
0.099999842
0.099999842
0.099999843
0.099999844
0.099999844
0.099999845
0.099999846
0.099999847
0.099999847
0.099999848
0.099999849
0.09999985
0.09999985
0.099999852
0.099999852
0.099999854
0.099999854
0.099999856
0.099999856
0.099999858
0.099999858
0.099999861
0.099999859
0.099999864
0.099999861
0.099999867
0.099999862
0.099999871
0.099999863
0.099999876
0.099999863
0.099999881
0.099999863
0.099999887
0.099999862
0.099999894
0.09999986
0.099999901
0.099999858
0.09999991
0.099999854
0.09999992
0.09999985
0.09999993
0.099999845
0.099999942
0.09999984
0.099999954
0.099999833
0.099999967
0.099999827
0.099999981
0.099999819
0.099999995
0.099999812
0.10000001
0.099999804
0.10000002
0.099999796
0.10000004
0.099999788
0.10000006
0.09999978
0.10000007
0.099999771
0.10000009
0.099999761
0.10000011
0.099999749
0.10000013
0.099999734
0.10000016
0.099999713
0.10000019
0.099999685
0.10000023
0.099999646
0.10000029
0.099999595
0.10000037
0.099999512
0.10000045
0.09999941
)
;

boundaryField
{
    left
    {
        type            zeroGradient;
    }
    right
    {
        type            zeroGradient;
    }
    walls
    {
        type            zeroGradient;
    }
    centreline
    {
        type            zeroGradient;
    }
    frontAndBack
    {
        type            zeroGradient;
    }
}


// ************************************************************************* //
