/*--------------------------------*- C++ -*----------------------------------*\
  =========                 |
  \\      /  F ield         | OpenFOAM: The Open Source CFD Toolbox
   \\    /   O peration     | Website:  https://openfoam.org
    \\  /    A nd           | Version:  8
     \\/     M anipulation  |
\*---------------------------------------------------------------------------*/
FoamFile
{
    version     2.0;
    format      ascii;
    class       volScalarField;
    location    "0.5";
    object      p;
}
// * * * * * * * * * * * * * * * * * * * * * * * * * * * * * * * * * * * * * //

dimensions      [1 -1 -2 0 0 0 0];

internalField   nonuniform List<scalar> 
200
(
4246.9911
4246.9911
4246.9911
4246.9911
4246.9911
4246.9911
4246.9911
4246.9911
4246.9911
4246.9911
4246.9911
4246.9911
4246.9911
4246.9911
4246.9911
4246.9911
4246.9911
4246.9911
4246.9911
4246.9911
4246.9911
4246.9911
4246.9911
4246.9911
4246.9911
4246.9911
4246.9911
4246.9911
4246.9911
4246.9912
4246.9912
4246.9912
4246.9912
4246.9912
4246.9912
4246.9912
4246.9912
4246.9912
4246.9912
4246.9912
4246.9912
4246.9912
4246.9912
4246.9912
4246.9912
4246.9912
4246.9912
4246.9912
4246.9912
4246.9912
4246.9912
4246.9913
4246.9913
4246.9913
4246.9913
4246.9913
4246.9913
4246.9913
4246.9913
4246.9913
4246.9913
4246.9913
4246.9913
4246.9914
4246.9914
4246.9914
4246.9914
4246.9914
4246.9914
4246.9914
4246.9914
4246.9914
4246.9915
4246.9915
4246.9915
4246.9915
4246.9915
4246.9915
4246.9915
4246.9916
4246.9916
4246.9916
4246.9916
4246.9916
4246.9916
4246.9916
4246.9917
4246.9917
4246.9917
4246.9917
4246.9917
4246.9917
4246.9918
4246.9918
4246.9918
4246.9918
4246.9918
4246.9919
4246.9919
4246.9919
4246.9919
4246.992
4246.992
4246.992
4246.992
4246.9921
4246.9921
4246.9921
4246.9921
4246.9922
4246.9922
4246.9922
4246.9922
4246.9923
4246.9923
4246.9923
4246.9924
4246.9924
4246.9924
4246.9925
4246.9925
4246.9925
4246.9926
4246.9926
4246.9926
4246.9927
4246.9927
4246.9928
4246.9928
4246.9928
4246.9929
4246.9929
4246.993
4246.993
4246.9931
4246.9931
4246.9932
4246.9932
4246.9933
4246.9933
4246.9935
4246.9933
4246.9936
4246.9934
4246.9938
4246.9934
4246.994
4246.9934
4246.9943
4246.9934
4246.9946
4246.9934
4246.9949
4246.9933
4246.9953
4246.9932
4246.9957
4246.993
4246.9962
4246.9928
4246.9967
4246.9926
4246.9972
4246.9923
4246.9978
4246.992
4246.9985
4246.9917
4246.9991
4246.9913
4246.9998
4246.9909
4247.0005
4246.9906
4247.0012
4246.9902
4247.002
4246.9898
4247.0027
4246.9894
4247.0036
4246.9889
4247.0044
4246.9884
4247.0054
4246.9878
4247.0065
4246.987
4247.0078
4246.986
4247.0094
4246.9845
4247.0115
4246.9826
4247.0143
4246.9798
4247.0175
4246.9767
4247.0225
4246.9716
)
;

boundaryField
{
    left
    {
        type            zeroGradient;
    }
    right
    {
        type            zeroGradient;
    }
    walls
    {
        type            zeroGradient;
    }
    centreline
    {
        type            fixedValue;
        value           uniform 4247;
    }
    frontAndBack
    {
        type            zeroGradient;
    }
}


// ************************************************************************* //
