/*--------------------------------*- C++ -*----------------------------------*\
  =========                 |
  \\      /  F ield         | OpenFOAM: The Open Source CFD Toolbox
   \\    /   O peration     | Website:  https://openfoam.org
    \\  /    A nd           | Version:  8
     \\/     M anipulation  |
\*---------------------------------------------------------------------------*/
FoamFile
{
    version     2.0;
    format      ascii;
    class       surfaceScalarField;
    location    "0.5";
    object      phi;
}
// * * * * * * * * * * * * * * * * * * * * * * * * * * * * * * * * * * * * * //

dimensions      [1 0 -1 0 0 0 0];

internalField   nonuniform List<scalar> 
199
(
-9.1614609e-05
-0.00017011509
-0.00020978098
-0.00022391569
-0.00022773707
-0.00022851472
-0.00022858455
-0.00022851859
-0.0002284302
-0.00022833826
-0.00022824546
-0.00022815214
-0.00022805834
-0.00022796405
-0.00022786929
-0.00022777405
-0.00022767835
-0.00022758219
-0.00022748558
-0.00022738854
-0.00022729108
-0.00022719321
-0.00022709495
-0.00022699631
-0.00022689731
-0.00022679797
-0.00022669829
-0.00022659831
-0.00022649803
-0.00022639749
-0.00022629669
-0.00022619565
-0.00022609441
-0.00022599297
-0.00022589136
-0.0002257896
-0.00022568772
-0.00022558574
-0.00022548368
-0.00022538156
-0.00022527941
-0.00022517725
-0.0002250751
-0.00022497298
-0.0002248709
-0.00022476888
-0.00022466693
-0.00022456505
-0.00022446325
-0.00022436154
-0.0002242599
-0.00022415835
-0.00022405687
-0.00022395545
-0.0002238541
-0.00022375281
-0.00022365156
-0.00022355035
-0.00022344918
-0.00022334803
-0.00022324692
-0.00022314583
-0.00022304477
-0.00022294374
-0.00022284276
-0.00022274182
-0.00022264095
-0.00022254016
-0.00022243945
-0.00022233885
-0.00022223837
-0.00022213802
-0.00022203782
-0.00022193777
-0.00022183788
-0.00022173815
-0.0002216386
-0.00022153922
-0.00022144001
-0.00022134099
-0.00022124215
-0.00022114351
-0.00022104509
-0.00022094692
-0.00022084903
-0.00022075149
-0.00022065434
-0.00022055769
-0.00022046162
-0.00022036624
-0.00022027168
-0.00022017805
-0.00022008549
-0.00021999413
-0.0002199041
-0.00021981551
-0.00021972845
-0.00021964302
-0.00021955924
-0.00021947716
-0.00021939675
-0.00021931798
-0.00021924077
-0.00021916502
-0.00021909062
-0.00021901741
-0.00021894524
-0.00021887394
-0.00021880337
-0.00021873338
-0.00021866384
-0.00021859468
-0.00021852585
-0.00021845737
-0.0002183893
-0.00021832179
-0.00021825508
-0.00021818947
-0.00021812535
-0.00021806319
-0.00021800354
-0.000217947
-0.00021789426
-0.00021784594
-0.0002178028
-0.00021776541
-0.0002177345
-0.00021771046
-0.00021769392
-0.00021768499
-0.00021768411
-0.00021769104
-0.00021770601
-0.00021772842
-0.00021775826
-0.00021779465
-0.00021783735
-0.0002178854
-0.00021793825
-0.00021799519
-0.00021805532
-0.00021811852
-0.00021818327
-0.00021825075
-0.00021831794
-0.00021838864
-0.00021845636
-0.00021853004
-0.00021859616
-0.0002186731
-0.00021873491
-0.00021881591
-0.00021887027
-0.00021895704
-0.00021900122
-0.00021909718
-0.00021912942
-0.00021923965
-0.00021925853
-0.00021938812
-0.00021939045
-0.00021954175
-0.00021952096
-0.00021969229
-0.00021963971
-0.0002198278
-0.0002197368
-0.00021994173
-0.00021981122
-0.00022003904
-0.00021987307
-0.00022013343
-0.00021993813
-0.00022023947
-0.00022002125
-0.00022036817
-0.00022013378
-0.00022052483
-0.00022028054
-0.00022070289
-0.00022045344
-0.00022087825
-0.00022063036
-0.00022101688
-0.00022078779
-0.00022109281
-0.00022091696
-0.0002210987
-0.00022102728
-0.00022104095
-0.0002211392
-0.00022091862
-0.00022109477
-0.00022111903
-0.00022768627
-0.00021974325
-0.00020030433
-0.00021976703
-0.0002332059
)
;

boundaryField
{
    left
    {
        type            calculated;
        value           uniform 0;
    }
    right
    {
        type            calculated;
        value           uniform 0;
    }
    walls
    {
        type            calculated;
        value           uniform 0;
    }
    centreline
    {
        type            calculated;
        value           uniform -0.00022129788;
    }
    frontAndBack
    {
        type            calculated;
        value           uniform 0;
    }
}


// ************************************************************************* //
