/*--------------------------------*- C++ -*----------------------------------*\
  =========                 |
  \\      /  F ield         | OpenFOAM: The Open Source CFD Toolbox
   \\    /   O peration     | Website:  https://openfoam.org
    \\  /    A nd           | Version:  8
     \\/     M anipulation  |
\*---------------------------------------------------------------------------*/
FoamFile
{
    version     2.0;
    format      ascii;
    class       volVectorField;
    location    "0.5";
    object      U;
}
// * * * * * * * * * * * * * * * * * * * * * * * * * * * * * * * * * * * * * //

dimensions      [0 1 -1 0 0 0 0];

internalField   nonuniform List<vector> 
200
(
(0 -0.00030809166 0)
(0 -0.0010987486 0)
(0 -0.0016488257 0)
(0 -0.0018043993 0)
(0 -0.0018768297 0)
(0 -0.0018761806 0)
(0 -0.0018851237 0)
(0 -0.0018801372 0)
(0 -0.0018822861 0)
(0 -0.0018797549 0)
(0 -0.0018801048 0)
(0 -0.0018786406 0)
(0 -0.0018783093 0)
(0 -0.0018772574 0)
(0 -0.0018766546 0)
(0 -0.0018757605 0)
(0 -0.0018750454 0)
(0 -0.0018742098 0)
(0 -0.0018734452 0)
(0 -0.001872629 0)
(0 -0.0018718401 0)
(0 -0.001871028 0)
(0 -0.0018702254 0)
(0 -0.0018694113 0)
(0 -0.0018685995 0)
(0 -0.0018677813 0)
(0 -0.0018669627 0)
(0 -0.0018661399 0)
(0 -0.0018653156 0)
(0 -0.0018644883 0)
(0 -0.0018636593 0)
(0 -0.0018628281 0)
(0 -0.0018619951 0)
(0 -0.0018611604 0)
(0 -0.0018603242 0)
(0 -0.0018594867 0)
(0 -0.0018586481 0)
(0 -0.0018578085 0)
(0 -0.0018569682 0)
(0 -0.0018561274 0)
(0 -0.0018552862 0)
(0 -0.0018544449 0)
(0 -0.0018536035 0)
(0 -0.0018527624 0)
(0 -0.0018519215 0)
(0 -0.0018510811 0)
(0 -0.0018502412 0)
(0 -0.0018494019 0)
(0 -0.0018485633 0)
(0 -0.0018477253 0)
(0 -0.0018468881 0)
(0 -0.0018460515 0)
(0 -0.0018452157 0)
(0 -0.0018443804 0)
(0 -0.0018435457 0)
(0 -0.0018427115 0)
(0 -0.0018418777 0)
(0 -0.0018410443 0)
(0 -0.0018402113 0)
(0 -0.0018393785 0)
(0 -0.0018385459 0)
(0 -0.0018377136 0)
(0 -0.0018368815 0)
(0 -0.0018360497 0)
(0 -0.0018352182 0)
(0 -0.0018343871 0)
(0 -0.0018335564 0)
(0 -0.0018327263 0)
(0 -0.0018318968 0)
(0 -0.0018310682 0)
(0 -0.0018302404 0)
(0 -0.0018294137 0)
(0 -0.0018285882 0)
(0 -0.0018277638 0)
(0 -0.0018269408 0)
(0 -0.0018261191 0)
(0 -0.0018252988 0)
(0 -0.0018244799 0)
(0 -0.0018236624 0)
(0 -0.0018228464 0)
(0 -0.001822032 0)
(0 -0.0018212191 0)
(0 -0.0018204079 0)
(0 -0.0018195987 0)
(0 -0.0018187916 0)
(0 -0.001817987 0)
(0 -0.0018171855 0)
(0 -0.0018163876 0)
(0 -0.001815594 0)
(0 -0.0018148056 0)
(0 -0.0018140233 0)
(0 -0.0018132482 0)
(0 -0.0018124811 0)
(0 -0.0018117237 0)
(0 -0.0018109759 0)
(0 -0.0018102406 0)
(0 -0.0018095159 0)
(0 -0.0018088066 0)
(0 -0.0018081072 0)
(0 -0.001807427 0)
(0 -0.0018067527 0)
(0 -0.0018061043 0)
(0 -0.001805451 0)
(0 -0.0018048372 0)
(0 -0.0018041954 0)
(0 -0.0018036225 0)
(0 -0.0018029734 0)
(0 -0.0018024571 0)
(0 -0.0018017662 0)
(0 -0.0018013431 0)
(0 -0.0018005462 0)
(0 -0.0018002953 0)
(0 -0.0017992722 0)
(0 -0.0017993544 0)
(0 -0.0017978777 0)
(0 -0.0017986083 0)
(0 -0.001796249 0)
(0 -0.0017982276 0)
(0 -0.0017941836 0)
(0 -0.0017985239 0)
(0 -0.0017913172 0)
(0 -0.0018000459 0)
(0 -0.0017870006 0)
(0 -0.0018037337 0)
(0 -0.0017800998 0)
(0 -0.0018111579 0)
(0 -0.0017686952 0)
(0 -0.0018248671 0)
(0 -0.0017496649 0)
(0 -0.0018488415 0)
(0 -0.0017181818 0)
(0 -0.0018889945 0)
(0 -0.0016672241 0)
(0 -0.0019535905 0)
(0 -0.0015872501 0)
(0 -0.002053442 0)
(0 -0.0014661294 0)
(0 -0.0022018688 0)
(0 -0.0012892632 0)
(0 -0.0024145589 0)
(0 -0.0010397345 0)
(0 -0.0027094352 0)
(0 -0.0006984871 0)
(0 -0.0031064068 0)
(0 -0.00024474482 0)
(0 -0.003626755 0)
(0 0.00034313903 0)
(0 -0.0042920833 0)
(0 0.0010864934 0)
(0 -0.005123063 0)
(0 0.0020051218 0)
(0 -0.0061383281 0)
(0 0.0031163769 0)
(0 -0.0073537515 0)
(0 0.0044346352 0)
(0 -0.0087821345 0)
(0 0.0059711321 0)
(0 -0.010433207 0)
(0 0.0077340615 0)
(0 -0.012313797 0)
(0 0.0097288393 0)
(0 -0.014428075 0)
(0 0.011958447 0)
(0 -0.016777835 0)
(0 0.014423771 0)
(0 -0.019362826 0)
(0 0.017123872 0)
(0 -0.022181142 0)
(0 0.020056228 0)
(0 -0.025229597 0)
(0 0.023217023 0)
(0 -0.02850409 0)
(0 0.026601596 0)
(0 -0.032000016 0)
(0 0.030205036 0)
(0 -0.035712839 0)
(0 0.034022959 0)
(0 -0.039638944 0)
(0 0.038052529 0)
(0 -0.043776793 0)
(0 0.0422939 0)
(0 -0.048128473 0)
(0 0.046752087 0)
(0 -0.052701766 0)
(0 0.051439141 0)
(0 -0.057512769 0)
(0 0.056376691 0)
(0 -0.062588863 0)
(0 0.061598815 0)
(0 -0.067971617 0)
(0 0.067154804 0)
(0 -0.073718947 0)
(0 0.073110723 0)
(0 -0.079906248 0)
(0 0.079549808 0)
(0 -0.086612245 0)
(0 0.086556677 0)
(0 -0.093944827 0)
(0 0.094241423 0)
(0 -0.10205953 0)
)
;

boundaryField
{
    left
    {
        type            noSlip;
    }
    right
    {
        type            noSlip;
    }
    walls
    {
        type            noSlip;
    }
    centreline
    {
        type            noSlip;
    }
    frontAndBack
    {
        type            noSlip;
    }
}


// ************************************************************************* //
