/*--------------------------------*- C++ -*----------------------------------*\
  =========                 |
  \\      /  F ield         | OpenFOAM: The Open Source CFD Toolbox
   \\    /   O peration     | Website:  https://openfoam.org
    \\  /    A nd           | Version:  8
     \\/     M anipulation  |
\*---------------------------------------------------------------------------*/
FoamFile
{
    version     2.0;
    format      ascii;
    class       volScalarField;
    location    "3.4999919616";
    object      alphat;
}
// * * * * * * * * * * * * * * * * * * * * * * * * * * * * * * * * * * * * * //

dimensions      [1 -1 -1 0 0 0 0];

internalField   nonuniform List<scalar> 
6800
(
0.00582392
0.0138426
0.0192076
0.0211706
0.0242502
0.0285164
0.026872
0.0226722
0.0134848
0.00996071
0.00424589
0.0138151
0.020245
0.0219329
0.0269937
0.027416
0.0196591
0.0119551
0.00871301
0.00779324
0.00521479
0.0159464
0.0208414
0.0239961
0.0280609
0.0189894
0.0111753
0.00846901
0.00766522
0.00705586
0.00573474
0.0179909
0.0224193
0.0255381
0.0214061
0.0129421
0.0102363
0.00879053
0.00737857
0.00673466
0.00604647
0.0194219
0.0228188
0.024956
0.0152953
0.0109492
0.00805974
0.00697071
0.00631218
0.00578994
0.00631013
0.0215978
0.0238511
0.0206691
0.0128415
0.00897443
0.00823103
0.00761437
0.0065621
0.00575214
0.00644382
0.0227457
0.0239171
0.0169502
0.0101335
0.00903654
0.00744042
0.0061258
0.0054498
0.00509279
0.00673129
0.0247887
0.0236624
0.0128558
0.0106666
0.00836286
0.00713786
0.00655413
0.0057782
0.00532636
0.00702286
0.0263327
0.0203334
0.0129231
0.0094474
0.00781894
0.00662006
0.00554962
0.00505119
0.00478144
0.00734359
0.0269855
0.0187988
0.0108784
0.00954517
0.00745013
0.0065477
0.00589286
0.0053064
0.00496148
0.0345478
0.147431
0.203694
0.219295
0.223707
0.224341
0.226643
0.230168
0.234104
0.235838
0.033158
0.142118
0.196972
0.212875
0.215541
0.21418
0.214257
0.215679
0.217526
0.219108
0.0306518
0.130793
0.183149
0.200287
0.201071
0.198275
0.196363
0.194736
0.192636
0.192991
0.0276766
0.117831
0.166864
0.182988
0.18204
0.178408
0.172739
0.168673
0.162702
0.153473
0.0245535
0.105011
0.149955
0.159728
0.155891
0.148761
0.139818
0.129643
0.118924
0.0926615
0.0218545
0.0939026
0.127412
0.128192
0.119428
0.110332
0.0949455
0.0712074
0.058037
0.0423337
0.0195717
0.0798205
0.0993282
0.0892957
0.0782482
0.0556623
0.0406979
0.034562
0.0342742
0.0301028
0.0184373
0.0629222
0.0581758
0.0476564
0.0319588
0.0293201
0.0295955
0.0290193
0.0292583
0.0271505
0.0159326
0.0330639
0.0255412
0.0244215
0.0241476
0.026106
0.0280526
0.0281611
0.0275352
0.0242708
0.011638
0.0162184
0.0187751
0.0210463
0.0232671
0.0264549
0.0285661
0.02634
0.0257014
0.0160285
0.237037
0.237816
0.236478
0.234668
0.232931
0.231401
0.23007
0.228953
0.228049
0.227319
0.22673
0.226232
0.225804
0.225432
0.225104
0.224819
0.224577
0.224369
0.224186
0.224021
0.223865
0.22371
0.223549
0.223377
0.223189
0.222982
0.222755
0.222506
0.222235
0.221944
0.221637
0.221319
0.220993
0.220659
0.220323
0.219984
0.21965
0.219322
0.219009
0.218711
0.218436
0.218188
0.217967
0.217773
0.217606
0.217462
0.217339
0.217234
0.217143
0.217061
0.216985
0.216911
0.216835
0.216756
0.216671
0.216581
0.216485
0.216382
0.216274
0.21616
0.216041
0.215916
0.215784
0.215647
0.215503
0.215352
0.215193
0.215025
0.214848
0.214661
0.214462
0.214251
0.214027
0.213791
0.213545
0.213291
0.213032
0.212771
0.212512
0.212259
0.212016
0.211785
0.211568
0.211369
0.211185
0.211021
0.210869
0.210741
0.210617
0.210521
0.210413
0.210347
0.210244
0.210211
0.210102
0.2101
0.20997
0.210002
0.209776
0.210096
0.220599
0.221379
0.220706
0.219472
0.218253
0.217219
0.216381
0.21575
0.215281
0.214948
0.214728
0.214547
0.214414
0.214318
0.214251
0.214225
0.214238
0.21428
0.21434
0.214409
0.214476
0.214535
0.214577
0.214599
0.214595
0.214566
0.214508
0.214424
0.214308
0.214172
0.214022
0.21386
0.213686
0.2135
0.213306
0.213103
0.212899
0.212696
0.212503
0.212321
0.212165
0.212036
0.211933
0.211854
0.211799
0.211765
0.21175
0.21175
0.21176
0.211776
0.211794
0.211809
0.211819
0.211823
0.211817
0.211803
0.211781
0.211751
0.211715
0.211674
0.211627
0.211575
0.211517
0.211456
0.211389
0.211316
0.211236
0.211148
0.211049
0.210937
0.210809
0.210665
0.210504
0.210325
0.210131
0.209923
0.209707
0.209485
0.209263
0.209045
0.208835
0.208636
0.20845
0.208282
0.208128
0.207995
0.207875
0.207777
0.207684
0.20762
0.207543
0.207511
0.207437
0.207437
0.207356
0.207388
0.207284
0.207355
0.207145
0.207518
0.196716
0.196233
0.195282
0.194054
0.193022
0.192344
0.191961
0.191824
0.191849
0.191996
0.192235
0.192589
0.193021
0.193577
0.194225
0.194909
0.195604
0.196293
0.196966
0.197611
0.19822
0.198784
0.199299
0.199762
0.200173
0.200533
0.200842
0.201106
0.201319
0.201524
0.201713
0.201877
0.202011
0.202116
0.202194
0.20225
0.202293
0.202329
0.202368
0.202416
0.202473
0.202539
0.20262
0.202716
0.202827
0.202953
0.203091
0.203238
0.20339
0.203541
0.203687
0.203827
0.203955
0.204076
0.204182
0.204275
0.204358
0.204434
0.204507
0.204573
0.204631
0.204687
0.20474
0.204793
0.204842
0.204889
0.204928
0.204958
0.204975
0.204974
0.204952
0.204904
0.204831
0.204731
0.204608
0.204466
0.204309
0.204143
0.203974
0.203807
0.203647
0.203498
0.203362
0.203243
0.203138
0.203055
0.202983
0.202934
0.202886
0.202868
0.202832
0.202845
0.20281
0.202856
0.202812
0.202893
0.202822
0.202949
0.202767
0.203227
0.155398
0.156628
0.158509
0.159623
0.160839
0.162229
0.16364
0.16503
0.166367
0.167653
0.168898
0.170125
0.171351
0.172532
0.173697
0.174849
0.17599
0.177107
0.178191
0.179226
0.180202
0.18111
0.181949
0.182717
0.18342
0.18406
0.184642
0.185163
0.185646
0.186052
0.186399
0.186701
0.186965
0.187193
0.187395
0.187575
0.187746
0.187915
0.188094
0.188288
0.1885
0.188729
0.188976
0.189239
0.189521
0.189818
0.19013
0.19045
0.190774
0.191093
0.191405
0.191704
0.191991
0.192265
0.192533
0.192797
0.193059
0.193324
0.193585
0.193863
0.194152
0.194452
0.194756
0.195062
0.195368
0.19567
0.195958
0.196236
0.19649
0.196716
0.196903
0.197046
0.197144
0.197197
0.197209
0.197186
0.197137
0.197069
0.19699
0.196906
0.196823
0.196747
0.196679
0.196625
0.196581
0.196553
0.196531
0.196528
0.196523
0.19655
0.196556
0.196616
0.196624
0.196721
0.196723
0.196862
0.196842
0.197034
0.196879
0.197461
0.0926422
0.0949789
0.0974181
0.100541
0.104028
0.107866
0.111411
0.114667
0.117656
0.120458
0.123126
0.125701
0.128208
0.13063
0.133002
0.135297
0.137538
0.139703
0.141782
0.143745
0.14559
0.14731
0.148917
0.150416
0.151822
0.153142
0.15438
0.155543
0.156667
0.15778
0.158851
0.159864
0.160812
0.161694
0.162522
0.163302
0.16406
0.164802
0.165548
0.166297
0.167054
0.16781
0.168568
0.16932
0.170078
0.170835
0.171595
0.172343
0.173074
0.173779
0.174459
0.175109
0.175736
0.176341
0.176931
0.177511
0.178087
0.178663
0.179241
0.179824
0.180407
0.180998
0.181587
0.182181
0.182779
0.183366
0.183931
0.18446
0.184949
0.185391
0.185776
0.186096
0.18635
0.186543
0.186684
0.186782
0.186848
0.186892
0.186922
0.186945
0.18697
0.187004
0.187042
0.187095
0.187154
0.187224
0.187291
0.187374
0.18744
0.187534
0.187597
0.18772
0.187785
0.187953
0.18802
0.188239
0.188288
0.188581
0.188487
0.189232
0.0434692
0.0459924
0.0484004
0.0512745
0.0538689
0.0562404
0.0588466
0.0616205
0.0643716
0.0672689
0.0702781
0.0734118
0.0765844
0.0796918
0.0828614
0.0859382
0.0890349
0.0920405
0.0948921
0.0975246
0.0999848
0.102314
0.104533
0.106661
0.108728
0.110726
0.11265
0.114497
0.116418
0.118374
0.120181
0.121875
0.12348
0.125013
0.126496
0.127924
0.129346
0.130748
0.132169
0.133583
0.134998
0.136382
0.137754
0.139089
0.140431
0.141761
0.143092
0.144381
0.145628
0.146823
0.147988
0.149108
0.150205
0.151275
0.152335
0.153385
0.154436
0.155494
0.156558
0.157637
0.158711
0.159806
0.160881
0.161973
0.163067
0.164104
0.165091
0.16605
0.166994
0.167883
0.168699
0.169412
0.170024
0.170548
0.170997
0.171392
0.171742
0.17206
0.172353
0.172626
0.172891
0.173152
0.173394
0.173651
0.173884
0.174095
0.174287
0.174472
0.174614
0.174774
0.174898
0.175093
0.175232
0.175496
0.175661
0.176003
0.176169
0.176611
0.176624
0.177634
0.0308592
0.0317296
0.032534
0.0333609
0.0341592
0.0349618
0.0356558
0.0364429
0.0370818
0.0378831
0.0390412
0.0400193
0.041352
0.0422879
0.0434653
0.04462
0.0460761
0.0473799
0.0490176
0.0506663
0.0524228
0.0542162
0.0560178
0.0579476
0.0599719
0.062022
0.0640847
0.0661741
0.0682911
0.0704443
0.072613
0.0747889
0.0769601
0.0790623
0.0811267
0.0831419
0.0852223
0.0872599
0.0893931
0.0914426
0.0934525
0.0953708
0.0972554
0.0991766
0.101101
0.103098
0.104988
0.106836
0.108544
0.110263
0.111996
0.113682
0.115383
0.117053
0.118738
0.120416
0.122109
0.123816
0.125524
0.127253
0.128945
0.130685
0.132338
0.134087
0.135832
0.137149
0.138515
0.139936
0.141598
0.143036
0.14446
0.1456
0.146606
0.147504
0.148329
0.149104
0.149838
0.150539
0.151213
0.151867
0.152526
0.153158
0.153779
0.154413
0.154939
0.155404
0.155843
0.15617
0.156389
0.156571
0.156747
0.157012
0.157249
0.157628
0.157918
0.158419
0.158726
0.159366
0.159539
0.160816
0.0274757
0.0276624
0.0277657
0.0277707
0.0277075
0.0275559
0.0273485
0.0270779
0.0268144
0.0265058
0.0262647
0.0259889
0.0257073
0.0253304
0.0251185
0.0249476
0.024954
0.024908
0.0249219
0.0248763
0.0250285
0.0250059
0.0253396
0.0256486
0.0262059
0.0264093
0.0268345
0.027407
0.0281953
0.0289694
0.0299507
0.0309884
0.0321423
0.0333408
0.0346328
0.0359246
0.0374621
0.0389271
0.0406581
0.0422923
0.0443644
0.0463727
0.0487161
0.0509097
0.053341
0.0556747
0.0581621
0.0605323
0.0629637
0.0652781
0.0676576
0.0699343
0.0722856
0.0745792
0.0769303
0.0792682
0.0816466
0.0840421
0.086377
0.0887005
0.0909586
0.0932935
0.0955315
0.0978615
0.100178
0.102427
0.10465
0.106747
0.108867
0.11081
0.112577
0.114135
0.115726
0.117192
0.118655
0.120031
0.121412
0.122683
0.12399
0.125244
0.126505
0.127688
0.129289
0.130424
0.131298
0.132236
0.13303
0.133262
0.133316
0.133231
0.133489
0.133691
0.13396
0.134183
0.134484
0.134921
0.135251
0.136028
0.136396
0.137986
0.0240181
0.0236578
0.0232788
0.0228372
0.0224098
0.0218741
0.0212611
0.020599
0.0199159
0.0192353
0.0185747
0.0179508
0.0173728
0.016848
0.0162426
0.0156996
0.0150674
0.0145178
0.0140559
0.0136551
0.0133099
0.0130138
0.0127255
0.012527
0.0123185
0.0122228
0.0120313
0.0120659
0.0118796
0.012058
0.0122402
0.0123379
0.0124387
0.0126651
0.0127732
0.0130885
0.0132831
0.0134642
0.013988
0.0141268
0.014876
0.0153872
0.0163087
0.016984
0.0179986
0.0188899
0.0200367
0.0211547
0.0224357
0.0237289
0.0251719
0.0266599
0.0282657
0.0299823
0.0317522
0.0337359
0.0357199
0.0379822
0.0403063
0.0429786
0.0456213
0.0485619
0.0512831
0.0543754
0.0572039
0.0602579
0.0631089
0.0659131
0.0686422
0.0711034
0.0735308
0.0756525
0.0778383
0.0797473
0.0817825
0.0834849
0.0853222
0.0869052
0.0885914
0.0900691
0.0917998
0.0930294
0.0947971
0.0959826
0.0975586
0.0987103
0.0998123
0.101044
0.102267
0.102987
0.105568
0.106651
0.107513
0.105852
0.10732
0.106128
0.106829
0.106984
0.107533
0.109244
0.0156159
0.0151554
0.0145519
0.0139556
0.0132674
0.0126575
0.0121131
0.011623
0.0111793
0.0107782
0.0104134
0.010087
0.00978943
0.00952925
0.00929142
0.00907782
0.00887967
0.00869196
0.00851539
0.00834847
0.00818931
0.0080412
0.00789792
0.00776703
0.00764031
0.00753107
0.00741997
0.0073328
0.00724023
0.00715918
0.00712101
0.00708005
0.00705212
0.00704902
0.00701802
0.00704052
0.0070088
0.00702636
0.00695295
0.00696696
0.00703599
0.00709456
0.00715643
0.00718951
0.00730125
0.00727004
0.00751666
0.00772029
0.00789879
0.0081268
0.00835789
0.00868743
0.0089831
0.00937606
0.00973101
0.0102122
0.0106715
0.0113498
0.0119359
0.0129256
0.0136537
0.0150617
0.0159447
0.0177467
0.0189496
0.020948
0.0225528
0.0245173
0.0263727
0.0282992
0.0301008
0.0320378
0.0337368
0.0357122
0.0374683
0.0393607
0.0411238
0.0430934
0.0446462
0.0464695
0.0483694
0.0499685
0.0516788
0.053619
0.0551939
0.0575352
0.0588374
0.0604804
0.0625598
0.0643492
0.0658587
0.0669471
0.0707801
0.0742589
0.074197
0.0726059
0.076134
0.0739485
0.0744402
0.0757562
0.00801753
0.00812343
0.00815277
0.00814354
0.0080921
0.00800513
0.00789166
0.00775969
0.00761702
0.00747026
0.0073248
0.00718504
0.00705358
0.00693226
0.00682168
0.00672101
0.00662992
0.0065463
0.00646949
0.00639784
0.00633063
0.00626732
0.00620709
0.00615028
0.00609611
0.0060457
0.0059973
0.00595367
0.0059105
0.00587295
0.00583667
0.00580524
0.00577584
0.00574999
0.00572637
0.00570497
0.00568495
0.00566422
0.00564715
0.00562743
0.00561642
0.00560232
0.00559114
0.00558353
0.00556931
0.00556489
0.00555315
0.00555454
0.0055467
0.00554632
0.00555114
0.0055422
0.0056054
0.0055919
0.00565878
0.005656
0.00572903
0.00571842
0.00573069
0.00580931
0.00581464
0.00601498
0.0060351
0.00633769
0.00643533
0.00682295
0.00705274
0.00747334
0.00781907
0.00830888
0.00872286
0.00927394
0.0097734
0.0103431
0.0110214
0.0115836
0.0123246
0.0129617
0.0138607
0.0145118
0.015681
0.0164513
0.0176475
0.0186432
0.0200045
0.0211343
0.0226899
0.0237598
0.0253822
0.0264467
0.0282474
0.0298599
0.0309953
0.0325829
0.0342424
0.0370115
0.0394701
0.0380991
0.0415291
0.041693
0.00662856
0.00659399
0.00654081
0.00648268
0.00642139
0.0063573
0.00629201
0.00622588
0.00616059
0.00609659
0.0060353
0.00597689
0.0059221
0.00587052
0.00582224
0.00577637
0.00573282
0.0056906
0.00564982
0.00560979
0.00557088
0.00553276
0.00549596
0.00546028
0.00542663
0.00539416
0.00536406
0.0053362
0.0053116
0.00528896
0.00526837
0.00524959
0.00523206
0.00521609
0.00520092
0.00518637
0.00517284
0.00515897
0.00514697
0.00513493
0.00512468
0.00511394
0.00510405
0.00509334
0.00508309
0.00507211
0.00506064
0.00504869
0.00503656
0.00502523
0.00501218
0.00499868
0.00499384
0.00498281
0.00498448
0.00497632
0.00498824
0.00498672
0.00500965
0.00501237
0.00503391
0.00504667
0.00506988
0.00505388
0.00505202
0.00504714
0.00508556
0.00505421
0.00513918
0.00519806
0.00525621
0.00531484
0.0053629
0.00540545
0.00542024
0.00546418
0.00543547
0.00545005
0.00546358
0.00541772
0.00553293
0.00539188
0.00550843
0.00546103
0.00564075
0.00572024
0.00580268
0.00588942
0.00617759
0.00643015
0.00689475
0.00763624
0.00801887
0.00888447
0.00937308
0.0102653
0.00995184
0.011657
0.013122
0.0130993
0.00583759
0.00582547
0.00581162
0.00579453
0.00577449
0.00575098
0.00572465
0.00569518
0.00566361
0.00562991
0.00559536
0.00555992
0.0055248
0.00548967
0.00545552
0.00542168
0.005389
0.00535664
0.00532546
0.0052946
0.00526498
0.00523581
0.00520799
0.00518079
0.00515498
0.00512992
0.00510616
0.00508312
0.00506109
0.00503964
0.00501893
0.00499878
0.00497916
0.00496026
0.00494178
0.00492435
0.00490727
0.00489144
0.00487586
0.00486159
0.00484745
0.00483457
0.00482174
0.00481012
0.00479841
0.00478787
0.00477709
0.00476742
0.00475735
0.00474824
0.00473871
0.00472983
0.00472067
0.00471168
0.00470276
0.00469356
0.00468467
0.0046754
0.00466648
0.00465744
0.00464849
0.00464008
0.00463141
0.00462392
0.004616
0.00460915
0.00460313
0.0045954
0.00459254
0.00458643
0.00458542
0.00458057
0.0045812
0.00457713
0.00457311
0.00456986
0.00456006
0.00455248
0.00454529
0.00452704
0.00453215
0.00452038
0.00450896
0.00448193
0.00446133
0.00445361
0.00440975
0.00440338
0.00436714
0.00435715
0.00436185
0.00434762
0.00449435
0.00445004
0.00462664
0.00450726
0.00467014
0.00484539
0.00496127
0.00513975
0.00533243
0.0053185
0.0053019
0.00528212
0.00526069
0.00523777
0.00521455
0.00519047
0.00516627
0.00514101
0.00511538
0.00508848
0.00506132
0.00503324
0.00500557
0.00497779
0.00495134
0.00492559
0.00490187
0.00487925
0.00485888
0.00483951
0.00482212
0.0048053
0.00478995
0.00477459
0.00476019
0.00474529
0.00473101
0.00471597
0.00470143
0.00468612
0.00467143
0.00465617
0.00464175
0.004627
0.00461324
0.00459941
0.00458664
0.00457404
0.00456253
0.00455137
0.00454124
0.0045316
0.00452282
0.00451456
0.00450687
0.00449965
0.00449265
0.00448604
0.00447926
0.0044728
0.00446583
0.00445914
0.00445175
0.00444462
0.00443679
0.00442925
0.00442113
0.00441343
0.0044053
0.00439774
0.0043901
0.00438289
0.00437602
0.0043697
0.00436415
0.00435836
0.00435436
0.00434954
0.00434687
0.00434358
0.00434216
0.00433937
0.00433776
0.00433366
0.00433177
0.00432627
0.00432191
0.0043162
0.00431062
0.00430295
0.0042851
0.00427925
0.00423615
0.0042732
0.0042579
0.00421584
0.00424301
0.00423272
0.0042133
0.00413275
0.00409874
0.00410055
0.00408293
0.00410187
0.00413641
0.00414734
0.00417719
0.00419823
0.00493743
0.00493187
0.00492361
0.00491236
0.00489921
0.00488374
0.00486698
0.00484832
0.00482888
0.00480804
0.00478707
0.00476529
0.00474403
0.00472242
0.00470175
0.00468091
0.00466116
0.00464119
0.0046223
0.00460309
0.00458497
0.00456648
0.00454916
0.00453152
0.00451519
0.0044986
0.00448348
0.00446814
0.00445438
0.0044404
0.00442806
0.00441544
0.00440448
0.00439312
0.0043834
0.00437318
0.00436457
0.00435534
0.00434772
0.00433935
0.00433258
0.00432493
0.00431885
0.00431176
0.00430621
0.00429956
0.00429441
0.00428807
0.0042832
0.0042771
0.00427244
0.00426654
0.00426207
0.00425636
0.00425209
0.00424656
0.00424251
0.00423717
0.00423335
0.00422819
0.00422463
0.00421963
0.00421633
0.0042115
0.00420843
0.00420376
0.00420091
0.0041964
0.00419375
0.00418944
0.00418697
0.0041829
0.00418063
0.00417683
0.00417473
0.00417126
0.00416931
0.00416626
0.00416437
0.00416179
0.00416
0.00415778
0.00415598
0.00415385
0.00415213
0.00414986
0.0041486
0.00414551
0.00414513
0.00414137
0.0041411
0.00413692
0.00413693
0.00413401
0.0041344
0.00413291
0.00413265
0.004131
0.00414007
0.00411783
0.00463435
0.00463261
0.00462829
0.00462104
0.0046121
0.00460122
0.00458954
0.00457648
0.00456311
0.00454869
0.00453433
0.0045192
0.00450449
0.00448929
0.00447487
0.0044602
0.0044466
0.00443288
0.00442036
0.0044077
0.00439624
0.00438448
0.00437383
0.00436269
0.00435258
0.00434183
0.00433207
0.00432157
0.00431213
0.00430193
0.00429289
0.00428309
0.00427456
0.00426525
0.0042573
0.0042485
0.00424111
0.00423274
0.00422582
0.00421779
0.00421122
0.00420341
0.00419709
0.0041894
0.00418326
0.00417566
0.0041697
0.00416223
0.0041565
0.00414925
0.00414384
0.0041369
0.00413193
0.00412542
0.00412094
0.00411493
0.00411098
0.00410547
0.00410204
0.00409701
0.00409403
0.00408941
0.00408682
0.00408251
0.00408023
0.00407615
0.0040741
0.00407018
0.00406831
0.00406452
0.00406281
0.00405912
0.00405757
0.00405398
0.00405263
0.00404914
0.00404806
0.00404467
0.0040439
0.00404064
0.00404015
0.00403707
0.00403668
0.00403383
0.00403341
0.00403071
0.00403008
0.00402748
0.00402666
0.00402382
0.0040229
0.00401984
0.00401915
0.00401582
0.00401606
0.00401137
0.00401312
0.00401019
0.00399635
0.004014
0.00442003
0.00442115
0.00442016
0.00441646
0.00441124
0.00440411
0.00439617
0.0043868
0.00437708
0.00436628
0.00435553
0.00434398
0.00433279
0.00432099
0.00430977
0.00429803
0.00428703
0.00427554
0.00426488
0.00425374
0.00424352
0.00423281
0.00422312
0.00421291
0.00420381
0.00419417
0.00418569
0.00417663
0.00416878
0.00416028
0.00415304
0.00414507
0.0041384
0.00413092
0.0041248
0.00411779
0.00411219
0.00410562
0.00410051
0.00409434
0.00408968
0.00408387
0.00407962
0.00407412
0.00407021
0.00406497
0.00406136
0.00405632
0.00405294
0.00404805
0.00404487
0.00404011
0.0040371
0.00403244
0.00402958
0.00402503
0.00402232
0.00401787
0.00401531
0.00401096
0.00400855
0.0040043
0.00400205
0.0039979
0.0039958
0.00399175
0.00398982
0.00398585
0.00398408
0.00398021
0.00397858
0.00397481
0.00397333
0.00396966
0.00396832
0.00396474
0.00396355
0.00396007
0.003959
0.00395562
0.00395467
0.0039514
0.00395051
0.00394739
0.00394651
0.00394356
0.00394267
0.00393987
0.00393896
0.00393629
0.00393534
0.00393276
0.00393182
0.00392958
0.00392827
0.00392548
0.0039241
0.00392154
0.00391989
0.00391724
0.00426625
0.00426848
0.00426906
0.00426725
0.00426415
0.00425933
0.00425384
0.00424704
0.00423995
0.00423184
0.00422379
0.00421492
0.00420639
0.00419721
0.00418858
0.00417941
0.00417095
0.004162
0.00415386
0.00414524
0.00413748
0.0041292
0.00412184
0.00411389
0.0041069
0.00409928
0.00409268
0.00408537
0.00407915
0.00407216
0.0040663
0.00405962
0.00405411
0.00404769
0.0040425
0.00403631
0.00403139
0.0040254
0.00402073
0.00401492
0.00401049
0.00400485
0.00400067
0.00399521
0.00399129
0.00398605
0.00398242
0.00397742
0.0039741
0.00396936
0.00396634
0.00396184
0.00395911
0.00395484
0.00395238
0.00394831
0.00394609
0.00394217
0.00394016
0.00393636
0.0039345
0.00393079
0.00392907
0.00392542
0.00392381
0.0039202
0.0039187
0.00391511
0.0039137
0.00391014
0.00390881
0.0039053
0.00390404
0.00390057
0.00389938
0.00389598
0.00389485
0.00389152
0.00389046
0.00388721
0.0038862
0.00388305
0.00388208
0.00387904
0.00387809
0.00387518
0.00387423
0.00387144
0.00387051
0.00386784
0.0038669
0.0038643
0.00386336
0.00386113
0.00385986
0.00385698
0.00385574
0.00385303
0.00385159
0.00384884
0.00415376
0.00415639
0.00415781
0.00415716
0.00415542
0.00415211
0.00414822
0.0041431
0.00413775
0.00413141
0.00412512
0.00411804
0.00411126
0.0041038
0.00409682
0.00408924
0.00408228
0.00407476
0.00406796
0.00406062
0.00405407
0.00404697
0.00404072
0.0040339
0.00402799
0.00402145
0.00401588
0.00400962
0.00400439
0.0039984
0.00399349
0.00398776
0.00398317
0.00397768
0.00397338
0.00396812
0.00396411
0.00395906
0.00395532
0.00395047
0.00394698
0.0039423
0.00393904
0.00393453
0.00393148
0.00392711
0.00392425
0.00392001
0.00391732
0.00391319
0.00391066
0.00390664
0.00390427
0.00390033
0.0038981
0.00389425
0.00389215
0.00388837
0.0038864
0.00388268
0.00388083
0.00387716
0.00387543
0.0038718
0.00387017
0.0038666
0.00386505
0.00386153
0.00386006
0.0038566
0.00385521
0.00385181
0.00385049
0.00384716
0.0038459
0.00384266
0.00384145
0.00383831
0.00383715
0.00383411
0.00383299
0.00383005
0.00382899
0.00382613
0.00382514
0.00382235
0.00382145
0.00381871
0.00381789
0.0038152
0.00381446
0.00381186
0.00381114
0.00380842
0.00380802
0.00380569
0.00380465
0.00380195
0.00380082
0.00379737
0.00406895
0.00407181
0.00407366
0.00407363
0.00407271
0.00407035
0.00406754
0.00406356
0.00405942
0.00405431
0.0040493
0.00404349
0.00403798
0.00403179
0.00402606
0.00401972
0.00401398
0.00400765
0.00400202
0.00399582
0.00399038
0.00398436
0.00397916
0.00397335
0.0039684
0.0039628
0.00395811
0.00395273
0.0039483
0.00394311
0.00393893
0.00393392
0.00392998
0.00392514
0.00392142
0.00391673
0.00391323
0.00390867
0.00390538
0.00390096
0.00389787
0.00389359
0.00389069
0.00388654
0.00388384
0.00387981
0.00387728
0.00387339
0.00387101
0.00386724
0.00386502
0.00386136
0.00385927
0.0038557
0.00385372
0.00385023
0.00384836
0.0038449
0.00384313
0.00383972
0.00383804
0.00383465
0.00383305
0.00382968
0.00382814
0.0038248
0.00382331
0.00382001
0.00381857
0.00381532
0.00381391
0.00381074
0.00380935
0.00380626
0.00380491
0.00380191
0.00380058
0.00379769
0.00379639
0.00379359
0.00379233
0.00378962
0.00378843
0.00378577
0.00378468
0.00378204
0.00378109
0.00377844
0.00377762
0.00377498
0.00377427
0.00377168
0.003771
0.00376829
0.00376792
0.00376566
0.0037646
0.00376189
0.00376076
0.00375741
0.00400444
0.00400729
0.00400935
0.00400971
0.00400936
0.00400766
0.00400563
0.00400247
0.00399924
0.00399506
0.00399103
0.00398619
0.00398168
0.00397646
0.00397172
0.00396632
0.00396151
0.00395608
0.00395133
0.00394594
0.00394132
0.00393606
0.00393161
0.0039265
0.00392225
0.00391732
0.00391328
0.00390851
0.00390468
0.00390008
0.00389646
0.00389201
0.00388859
0.00388427
0.00388106
0.00387686
0.00387383
0.00386974
0.00386689
0.0038629
0.00386022
0.00385631
0.00385379
0.00384998
0.0038476
0.00384387
0.00384162
0.00383797
0.00383584
0.00383228
0.00383025
0.00382678
0.00382485
0.00382146
0.00381961
0.0038163
0.00381453
0.00381128
0.00380958
0.00380638
0.00380476
0.00380159
0.00380004
0.00379691
0.00379539
0.00379232
0.00379082
0.00378782
0.00378632
0.00378341
0.00378189
0.00377909
0.00377755
0.00377486
0.00377329
0.00377073
0.00376914
0.0037667
0.00376509
0.00376279
0.00376116
0.00375897
0.00375738
0.00375522
0.00375376
0.00375154
0.0037503
0.00374794
0.00374696
0.00374443
0.0037437
0.0037411
0.00374049
0.00373768
0.00373725
0.00373494
0.0037342
0.00373143
0.00373024
0.0037272
0.00395605
0.00395886
0.00396096
0.00396151
0.0039615
0.00396024
0.00395873
0.00395615
0.00395355
0.00395002
0.00394668
0.00394252
0.00393872
0.00393418
0.00393014
0.0039254
0.00392128
0.00391648
0.00391238
0.0039076
0.00390361
0.00389891
0.00389506
0.00389048
0.00388679
0.00388234
0.00387881
0.0038745
0.00387115
0.00386695
0.00386377
0.0038597
0.00385668
0.00385271
0.00384986
0.00384597
0.00384327
0.00383947
0.00383693
0.0038332
0.0038308
0.00382713
0.00382488
0.00382127
0.00381915
0.0038156
0.0038136
0.0038101
0.00380821
0.00380477
0.00380299
0.0037996
0.0037979
0.00379459
0.00379296
0.0037897
0.00378813
0.00378493
0.0037834
0.00378026
0.00377877
0.00377568
0.00377423
0.00377117
0.00376976
0.00376673
0.00376535
0.00376236
0.00376102
0.00375806
0.00375675
0.00375383
0.00375257
0.00374967
0.00374848
0.00374558
0.00374451
0.00374158
0.00374065
0.00373766
0.00373688
0.00373387
0.0037332
0.00373022
0.00372958
0.00372672
0.00372604
0.00372333
0.0037226
0.00372002
0.00371927
0.00371681
0.00371608
0.00371342
0.00371314
0.00371089
0.00370934
0.00370858
0.00369755
0.00371276
0.00391918
0.00392183
0.00392389
0.00392454
0.00392472
0.00392374
0.00392257
0.00392039
0.00391821
0.00391515
0.00391229
0.00390863
0.00390533
0.0039013
0.00389775
0.00389352
0.00388987
0.00388555
0.00388191
0.00387758
0.00387401
0.00386974
0.00386628
0.00386208
0.00385877
0.00385467
0.0038515
0.0038475
0.00384448
0.00384058
0.00383771
0.0038339
0.00383118
0.00382746
0.00382487
0.00382122
0.00381877
0.00381518
0.00381287
0.00380933
0.00380716
0.00380366
0.00380161
0.00379816
0.00379624
0.00379282
0.00379101
0.00378764
0.00378592
0.0037826
0.00378098
0.00377769
0.00377616
0.00377292
0.00377145
0.00376826
0.00376686
0.00376369
0.00376236
0.0037592
0.00375795
0.00375477
0.00375362
0.0037504
0.00374935
0.00374609
0.00374513
0.00374183
0.00374097
0.00373764
0.00373686
0.00373351
0.00373281
0.00372947
0.00372882
0.0037255
0.00372491
0.00372164
0.00372106
0.00371789
0.00371728
0.00371427
0.00371357
0.00371077
0.00370995
0.00370735
0.00370647
0.00370395
0.00370314
0.00370061
0.00369994
0.00369725
0.00369688
0.00369388
0.00369416
0.00369004
0.00369183
0.00368911
0.003677
0.00369199
0.00389107
0.00389352
0.00389547
0.00389611
0.00389638
0.00389555
0.00389457
0.00389263
0.00389072
0.00388796
0.0038854
0.00388208
0.0038791
0.00387541
0.00387219
0.0038683
0.00386498
0.003861
0.00385766
0.00385367
0.00385039
0.00384643
0.00384324
0.00383935
0.00383629
0.00383248
0.00382954
0.00382581
0.00382301
0.00381937
0.0038167
0.00381313
0.0038106
0.00380708
0.00380468
0.00380122
0.00379895
0.00379553
0.00379338
0.00379001
0.00378797
0.00378463
0.00378271
0.0037794
0.00377758
0.00377432
0.00377259
0.00376936
0.00376773
0.00376453
0.00376298
0.00375982
0.00375834
0.00375522
0.00375381
0.00375072
0.00374937
0.00374629
0.00374501
0.00374193
0.00374073
0.00373763
0.00373651
0.00373337
0.00373235
0.00372916
0.00372823
0.003725
0.00372415
0.0037209
0.00372011
0.00371687
0.00371612
0.00371292
0.00371219
0.00370905
0.00370831
0.00370527
0.00370452
0.00370157
0.00370085
0.0036979
0.00369734
0.00369425
0.00369398
0.00369066
0.0036907
0.0036872
0.00368744
0.0036839
0.00368421
0.00368071
0.00368102
0.00367766
0.00367779
0.00367527
0.00367322
0.00367172
0.00367061
0.00366799
0.00386813
0.00387043
0.00387229
0.00387291
0.00387323
0.00387248
0.00387163
0.00386985
0.00386813
0.00386557
0.00386323
0.00386014
0.00385741
0.00385398
0.00385102
0.00384739
0.00384433
0.00384061
0.00383753
0.00383379
0.00383075
0.00382705
0.00382409
0.00382045
0.00381759
0.00381402
0.00381128
0.00380778
0.00380515
0.00380172
0.00379922
0.00379584
0.00379345
0.00379013
0.00378786
0.00378457
0.00378241
0.00377916
0.00377711
0.00377388
0.00377194
0.00376874
0.0037669
0.00376371
0.00376197
0.00375881
0.00375716
0.00375403
0.00375245
0.00374936
0.00374785
0.00374479
0.00374333
0.00374032
0.00373891
0.00373593
0.00373456
0.0037316
0.00373029
0.00372733
0.00372607
0.00372311
0.00372191
0.00371893
0.0037178
0.0037148
0.00371372
0.00371071
0.00370967
0.00370669
0.00370567
0.00370274
0.00370171
0.00369887
0.0036978
0.00369508
0.00369396
0.00369139
0.0036902
0.00368776
0.00368655
0.00368416
0.00368307
0.00368056
0.00367977
0.00367697
0.00367658
0.00367347
0.00367342
0.00367011
0.00367027
0.00366687
0.00366715
0.00366377
0.0036638
0.00366117
0.0036598
0.00365612
0.00366444
0.00364485
0.00384938
0.00385151
0.00385328
0.00385387
0.00385423
0.00385356
0.00385284
0.0038512
0.00384966
0.00384729
0.00384518
0.0038423
0.00383982
0.00383661
0.0038339
0.0038305
0.00382768
0.00382418
0.00382134
0.00381781
0.00381499
0.00381147
0.00380872
0.00380523
0.00380256
0.00379913
0.00379654
0.00379316
0.00379067
0.00378734
0.00378493
0.00378165
0.00377934
0.00377609
0.00377387
0.00377065
0.00376853
0.00376534
0.00376331
0.00376013
0.00375821
0.00375504
0.00375321
0.00375006
0.00374833
0.00374519
0.00374355
0.00374043
0.00373887
0.00373578
0.00373429
0.00373124
0.0037298
0.00372679
0.0037254
0.00372242
0.00372108
0.00371813
0.00371682
0.0037139
0.00371263
0.00370973
0.00370849
0.0037056
0.00370441
0.00370151
0.00370037
0.00369748
0.00369638
0.00369349
0.00369245
0.00368956
0.00368858
0.00368568
0.00368479
0.00368186
0.00368108
0.0036781
0.00367746
0.00367444
0.0036739
0.0036709
0.00367037
0.0036675
0.00366687
0.0036642
0.00366347
0.00366095
0.00366019
0.00365771
0.00365704
0.00365446
0.00365405
0.00365111
0.00365154
0.00364735
0.00364907
0.00364611
0.00363453
0.00364931
0.0038358
0.00383772
0.00383936
0.00383986
0.00384021
0.00383955
0.00383889
0.00383732
0.00383588
0.00383362
0.00383163
0.00382886
0.00382649
0.00382339
0.00382079
0.00381746
0.00381473
0.00381127
0.00380848
0.00380496
0.00380218
0.00379864
0.00379589
0.00379235
0.00378966
0.00378615
0.00378352
0.00378004
0.0037775
0.00377407
0.00377161
0.00376823
0.00376587
0.00376253
0.00376027
0.00375698
0.00375482
0.00375157
0.00374952
0.00374631
0.00374436
0.00374118
0.00373933
0.00373617
0.00373441
0.00373128
0.00372961
0.00372652
0.00372495
0.0037219
0.0037204
0.0037174
0.00371597
0.00371301
0.00371165
0.00370873
0.00370743
0.00370454
0.0037033
0.00370042
0.00369924
0.00369637