/*--------------------------------*- C++ -*----------------------------------*\
  =========                 |
  \\      /  F ield         | OpenFOAM: The Open Source CFD Toolbox
   \\    /   O peration     | Website:  https://openfoam.org
    \\  /    A nd           | Version:  8
     \\/     M anipulation  |
\*---------------------------------------------------------------------------*/
FoamFile
{
    version     2.0;
    format      ascii;
    class       volScalarField;
    location    "3.4999919616";
    object      epsilon;
}
// * * * * * * * * * * * * * * * * * * * * * * * * * * * * * * * * * * * * * //

dimensions      [0 2 -3 0 0 0 0];

internalField   nonuniform List<scalar> 
6800
(
446.88
935.359
900.329
798.236
637.422
445.781
275.151
137.563
69.4127
37.3767
334.672
813.23
779.065
686.315
472.784
275.437
133.088
64.5985
32.078
18.017
415.164
744.07
701.939
552.015
323.898
156.724
73.5562
34.3069
17.187
10.0505
453.626
641.872
593.308
425.584
206.827
89.4315
37.1843
18.1093
10.2231
6.84378
481.716
583.14
534.296
322.251
131.874
50.9822
23.1182
12.3612
7.66415
5.58701
502.197
537.955
469.294
218.458
78.1609
31.4154
14.7674
8.60087
5.83128
4.56044
512.767
512.236
409.798
153.318
54.6758
21.7871
11.4436
7.32182
5.21248
4.22651
522.239
507.608
338.559
105.674
33.7295
15.2708
8.88384
5.91499
4.44422
3.77337
529.902
513.131
281.061
79.577
27.1351
13.4309
7.96815
5.51336
4.23077
3.64524
562.664
527.827
224.179
56.2966
19.3532
10.5234
6.64721
4.81125
3.84032
3.39349
2585.27
1268.49
993.454
916.842
913.028
968.474
1045.31
1122.16
1172.27
1195.43
2481.6
1217.39
979.174
930.593
974.455
1089.62
1241.79
1404.32
1548.04
1629.71
2294.79
1147.07
958.83
961.74
1093.35
1311.65
1571.68
1812.2
2008.45
2100.82
2072.85
1073.58
947.843
1046.61
1310.07
1660.5
1967.49
2133.69
2209.65
2187.57
1839.57
1033.27
1014.02
1286.81
1754
2138.12
2250.69
2226.07
2082.5
1818.16
1637.6
1079.42
1297.9
1879.13
2339.03
2358.42
2231.96
1879.28
1611.65
1072.95
1466.47
1326.01
2005.13
2545.48
2428.8
2093.76
1565.21
1057
829.14
545.889
1381.86
1896.58
2611.56
2373.25
1707.62
1151.08
854.653
620.653
514.066
339.925
1198.25
2185.49
1915.32
1318.29
993.057
766.376
599.468
450.58
365.26
206.72
875.269
1394.51
1176.89
956.636
768.231
610.36
450.34
313.016
180.228
84.2236
1195.29
1116.3
1036.47
965.467
904.747
852.942
807.315
767.359
732.516
701.657
674.016
649.028
626.203
605.16
585.605
567.319
550.127
533.893
518.504
503.857
489.867
476.456
463.564
451.139
439.14
427.535
416.3
405.414
394.865
384.64
374.728
365.127
355.832
346.841
338.148
329.754
321.652
313.845
306.329
299.104
292.166
285.51
279.127
273.006
267.133
261.491
256.065
250.836
245.786
240.899
236.159
231.55
227.064
222.688
218.419
214.249
210.178
206.202
202.321
198.533
194.838
191.233
187.716
184.284
180.936
177.668
174.477
171.36
168.316
165.34
162.432
159.588
156.808
154.092
151.438
148.847
146.32
143.857
141.459
139.127
136.859
134.656
132.516
130.437
128.418
126.454
124.547
122.687
120.882
119.11
117.397
115.696
114.077
112.421
110.907
109.251
107.899
106.138
105.127
102.797
1647.65
1529.91
1407.48
1299.26
1206.63
1128.29
1061.12
1003.47
952.981
908.277
868.258
832.252
799.476
769.343
741.427
715.416
691.053
668.121
646.445
625.872
606.28
587.56
569.627
552.409
535.852
519.912
504.558
489.756
475.494
461.736
448.467
435.681
423.369
411.52
400.122
389.166
378.642
368.544
358.863
349.592
340.719
332.232
324.113
316.342
308.899
301.761
294.906
288.311
281.953
275.812
269.869
264.108
258.516
253.081
247.797
242.658
237.66
232.8
228.075
223.481
219.015
214.672
210.449
206.341
202.344
198.452
194.66
190.965
187.36
183.843
180.409
177.056
173.782
170.586
167.467
164.426
161.462
158.578
155.773
153.047
150.399
147.829
145.335
142.915
140.567
138.285
136.071
133.914
131.822
129.771
127.792
125.827
123.961
122.054
120.315
118.415
116.868
114.855
113.705
111.054
2112.59
2002.03
1849
1711.94
1593.58
1492.19
1404.46
1328.01
1260.28
1199.59
1144.77
1094.74
1048.86
1006.61
967.513
931.12
897.077
865.073
834.858
806.21
778.956
752.947
728.069
704.222
681.339
659.364
638.253
617.964
598.487
579.705
561.636
544.292
527.658
511.712
496.427
481.782
467.756
454.336
441.506
429.25
417.55
406.381
395.716
385.525
375.779
366.444
357.491
348.885
340.598
332.601
324.87
317.385
310.132
303.094
296.274
289.663
283.257
277.048
271.033
265.204
259.558
254.086
248.784
243.64
238.648
233.8
229.088
224.501
220.032
215.673
211.42
207.266
203.208
199.245
195.376
191.602
187.924
184.344
180.862
177.481
174.198
171.013
167.925
164.929
162.025
159.204
156.47
153.807
151.228
148.701
146.267
143.851
141.562
139.223
137.098
134.776
132.895
130.448
129.055
125.846
2195.39
2128.28
1989.62
1859.5
1745.05
1644.48
1555.54
1476.62
1405.85
1341.77
1283.37
1229.85
1180.58
1134.96
1092.56
1052.95
1015.81
980.807
947.684
916.194
886.169
857.444
829.902
803.437
777.985
753.497
729.927
707.252
685.409
664.546
644.572
625.41
607.004
589.318
572.32
555.987
540.305
525.266
510.865
497.085
483.911
471.313
459.262
447.722
436.658
426.031
415.807
405.947
396.423
387.202
378.262
369.585
361.158
352.975
345.026
337.305
329.815
322.554
315.519
308.705
302.106
295.712
289.514
283.5
277.66
271.981
266.455
261.059
255.79
250.64
245.603
240.675
235.853
231.136
226.526
222.025
217.636
213.364
209.208
205.173
201.255
197.455
193.771
190.196
186.732
183.367
180.105
176.927
173.852
170.835
167.935
165.051
162.327
159.537
157.015
154.249
152.023
149.118
147.482
143.668
1740.92
1648.08
1557.37
1480.22
1415.32
1359.54
1308.93
1262.05
1218.21
1177.04
1138.41
1102.22
1068.25
1036.25
1006.09
977.499
950.33
924.346
899.412
875.322
852.029
829.369
807.303
785.765
764.761
744.288
724.341
704.946
686.09
667.766
650.035
632.896
616.323
600.308
584.841
569.9
555.491
541.603
528.259
515.442
503.161
491.376
480.074
469.221
458.778
448.702
438.96
429.519
420.352
411.422
402.716
394.216
385.922
377.831
369.951
362.281
354.829
347.591
340.571
333.759
327.152
320.735
314.5
308.43
302.516
296.744
291.103
285.589
280.188
274.884
269.67
264.538
259.487
254.519
249.636
244.849
240.163
235.586
231.124
226.781
222.557
218.453
214.467
210.592
206.832
203.17
199.618
196.145
192.785
189.477
186.3
183.129
180.145
177.071
174.312
171.26
168.834
165.63
163.847
159.631
971.062
880.397
812.266
765.04
731.365
706.598
687.597
672.886
661.241
651.946
644.859
639.344
634.799
630.693
627.071
623.472
619.874
616.012
611.763
606.975
601.713
595.586
588.805
581.433
573.635
565.548
557.191
548.72
540.213
531.711
523.273
514.874
506.462
498.11
489.843
481.624
473.517
465.509
457.712
450.097
442.764
435.63
428.742
422.03
415.451
408.968
402.583
396.293
390.108
383.95
377.832
371.742
365.706
359.729
353.842
348.046
342.372
336.807
331.376
326.057
320.862
315.764
310.766
305.846
301.003
296.217
291.482
286.776
282.102
277.454
272.831
268.227
263.648
259.097
254.587
250.132
245.746
241.44
237.226
233.114
229.101
225.197
221.393
217.688
214.088
210.573
207.161
203.815
200.58
197.382
194.317
191.238
188.358
185.363
182.7
179.716
177.371
174.236
172.515
168.309
507.141
464.376
427.929
398.192
373.398
352.715
334.789
319.774
306.619
295.629
286.59
279.178
272.979
267.744
263.823
260.565
258.436
256.724
255.794
255.066
255.607
256.014
257.083
258.521
260.285
262.515
264.911
267.49
270.174
272.962
275.706
278.393
280.783
283.089
285.283
287.163
288.846
290.167
291.425
292.403
293.396
294.105
294.777
294.78
294.749
294.105
293.691
292.881
292.23
291.097
289.763
288.188
286.488
284.636
282.731
280.737
278.741
276.687
274.652
272.57
270.484
268.326
266.126
263.84
261.492
259.045
256.514
253.904
251.218
248.452
245.62
242.691
239.679
236.578
233.425
230.231
227.034
223.844
220.685
217.576
214.506
211.516
208.555
205.662
202.825
200.027
197.311
194.614
191.992
189.383
186.877
184.341
181.984
179.504
177.325
174.844
172.915
170.308
168.902
165.316
316.033
288.385
263.597
241.794
222.193
204.515
188.304
173.758
160.382
148.522
137.706
128.227
120.3
113.286
107.254
101.979
97.6192
93.7725
90.7052
87.8887
85.7565
83.8537
82.4759
81.3923
80.9436
80.976
81.0374
81.7635
82.3433
83.4164
84.6725
86.2561
88.0245
90.1333
92.565
94.9993
97.6823
100.186
103.123
105.879
109.148
112.161
115.861
119.458
123.59
127.524
131.755
135.737
139.894
143.733
147.648
151.22
154.832
158.129
161.443
164.46
167.471
170.199
172.87
175.248
177.499
179.355
181.075
182.423
183.64
184.557
185.28
185.761
185.951
185.952
185.872
185.572
185.002
184.162
183.212
182.081
180.898
179.591
178.265
176.88
175.447
174.072
172.573
171.144
169.602
168.078
166.606
164.984
163.397
161.811
160.149
158.543
157.107
155.616
154.353
152.912
151.799
150.251
149.418
147.123
190.103
171.313
153.887
138.128
123.922
111.122
99.5937
89.3228
80.1337
72.0729
64.8593
58.6472
53.0148
48.245
44.189
40.7214
37.7336
35.1186
32.8489
30.84
29.0877
27.5311
26.1558
24.9608
23.9174
23.0223
22.2696
21.628
21.1532
20.7223
20.4198
20.4713
20.4194
20.7185
20.8045
21.0171
21.3567
21.7887
22.3299
23.1077
23.8117
24.4039
25.4894
26.4425
27.8957
29.2009
30.9229
32.5275
34.534
36.4083
38.7124
40.8642
43.4533
45.9114
48.7851
51.5327
54.6942
57.6823
61.1138
64.2886
67.9156
71.2918
75.0495
78.503
82.2476
85.5935
89.1493
92.1993
95.4137
98.0549
100.855
103.064
105.449
107.234
109.2
110.589
112.184
113.234
114.504
115.287
116.186
116.942
117.582
118.139
118.455
118.805
119.362
119.152
119.249
118.8
117.764
116.773
116.213
115.617
115.072
114.554
114.056
113.622
113.377
112.928
76.6599
68.6551
61.2009
54.5863
48.7252
43.5471
38.9735
34.9537
31.4179
28.3281
25.6199
23.2651
21.2093
19.4201
17.8627
16.5063
15.3234
14.2834
13.3668
12.551
11.8206
11.1615
10.562
10.0176
9.5171
9.06152
8.64085
8.26009
7.89984
7.58801
7.27078
7.0102
6.77336
6.56353
6.40363
6.24424
6.14336
6.04655
6.01492
5.9706
5.92535
5.91986
5.91538
5.99532
6.02039
6.19237
6.21606
6.30663
6.46107
6.62497
6.83389
7.05638
7.32374
7.6082
7.99336
8.36535
8.94478
9.46773
10.3058
11.0772
12.1879
13.2908
14.6593
16.1012
17.7735
19.4487
21.4317
23.1982
25.3853
27.2053
29.4475
31.2852
33.5276
35.3541
37.601
39.3406
41.5691
43.2576
45.4812
47.1153
49.3563
50.9496
53.1071
54.6083
56.6521
57.8943
59.8111
61.0264
62.7228
63.4911
65.4059
65.9599
66.5189
64.45
65.7899
64.4164
63.9859
64.374
64.895
66.2444
21.4319
20.732
19.8196
18.7799
17.6662
16.5271
15.3983
14.3075
13.2725
12.3057
11.4131
10.5972
9.85668
9.18791
8.58601
8.04438
7.55711
7.11715
6.71905
6.35696
6.02649
5.72357
5.44485
5.18795
4.95005
4.73031
4.52591
4.33715
4.16113
3.9988
3.84717
3.70749
3.57746
3.45759
3.34678
3.24454
3.15098
3.06501
2.98581
2.91282
2.84478
2.78308
2.72694
2.67561
2.63048
2.58882
2.5518
2.51922
2.48846
2.46604
2.43996
2.42847
2.40585
2.40531
2.40274
2.41512
2.42326
2.44328
2.48842
2.53382
2.62445
2.71587
2.84136
2.98747
3.17559
3.37095
3.65061
3.87834
4.25
4.5189
4.95678
5.28666
5.78248
6.1691
6.76051
7.18537
7.85726
8.34481
9.1055
9.63725
10.5218
11.1393
12.1254
12.83
13.8918
14.6812
15.8947
16.6711
18.0651
18.9365
20.3701
21.0202
22.8405
23.4288
24.0962
22.5699
24.0551
23.0576
23.3596
24.4876
11.7702
11.1655
10.5573
9.95834
9.37769
8.82026
8.28829
7.78382
7.30842
6.86365
6.45055
6.06942
5.71999
5.401
5.11091
4.84736
4.60811
4.39041
4.19198
4.0103
3.84336
3.68922
3.5463
3.41325
3.28888
3.17231
3.06263
2.95935
2.8618
2.76971
2.68253
2.60021
2.52216
2.44856
2.37884
2.31332
2.25127
2.19301
2.13775
2.08579
2.03657
1.99044
1.94679
1.90619
1.86755
1.83169
1.79757
1.76565
1.7352
1.70625
1.67857
1.65196
1.6243
1.59842
1.57145
1.54372
1.51418
1.48256
1.45006
1.4191
1.38894
1.36475
1.34005
1.33678
1.33731
1.34014
1.33246
1.34853
1.34489
1.34996
1.36628
1.39246
1.42239
1.46923
1.51896
1.57376
1.64598
1.7098
1.80619
1.89515
2.0116
2.16351
2.32992
2.51201
2.74036
2.94099
3.29076
3.58801
3.94149
4.18454
4.55474
4.64786
5.01882
5.19436
5.45827
5.48911
5.87781
5.95477
5.57302
5.98112
7.09829
6.81587
6.52227
6.22336
5.92618
5.63585
5.35636
5.09024
4.83945
4.60462
4.38601
4.18281
3.99426
3.819
3.65607
3.5042
3.36264
3.23041
3.10699
2.99164
2.88397
2.7833
2.68929
2.6013
2.51899
2.44177
2.36934
2.30118
2.23706
2.17654
2.11942
2.06535
2.01415
1.96552
1.91926
1.87517
1.83302
1.79274
1.75406
1.71703
1.6813
1.64706
1.6139
1.58209
1.55121
1.52157
1.49277
1.46514
1.4383
1.41258
1.38759
1.36369
1.34045
1.31828
1.29663
1.27603
1.25582
1.23659
1.21764
1.19956
1.18176
1.16462
1.14801
1.1317
1.11644
1.10106
1.08684
1.07277
1.06008
1.04764
1.03633
1.02617
1.01623
1.00822
1.00074
0.993981
0.989043
0.983823
0.980191
0.978923
0.974364
0.974276
0.977062
0.983661
0.992008
0.999917
1.01997
1.03168
1.05961
1.07738
1.10435
1.14314
1.135
1.18403
1.17555
1.2294
1.25351
1.24444
1.22025
1.28537
4.75828
4.61951
4.47288
4.32041
4.16541
4.01033
3.85737
3.7079
3.56348
3.42488
3.29312
3.16836
3.05107
2.94082
2.83761
2.74061
2.64957
2.56353
2.48225
2.4049
2.3314
2.26116
2.19431
2.13042
2.06977
2.01198
1.95738
1.90555
1.85679
1.81063
1.76729
1.72624
1.68768
1.65103
1.61647
1.58346
1.55218
1.52211
1.49345
1.46571
1.43913
1.41324
1.38832
1.36394
1.34043
1.31736
1.29511
1.27328
1.25226
1.23165
1.21186
1.19248
1.17391
1.15573
1.13834
1.12128
1.105
1.08894
1.07363
1.05843
1.04395
1.02946
1.01565
1.00179
0.988567
0.975217
0.962457
0.949711
0.937345
0.925187
0.913328
0.901736
0.890446
0.879636
0.869095
0.859324
0.849424
0.840611
0.831586
0.823574
0.814959
0.808006
0.801803
0.795039
0.793999
0.779614
0.773815
0.7742
0.762002
0.757324
0.755707
0.764989
0.767315
0.762653
0.761792
0.755899
0.747324
0.741494
0.7321
0.723744
3.54265
3.46291
3.37701
3.28608
3.19244
3.09781
3.0038
2.91122
2.82107
2.73363
2.64951
2.56861
2.49128
2.41724
2.34673
2.27939
2.21546
2.15448
2.09672
2.04167
1.98957
1.93988
1.89283
1.84781
1.8051
1.76408
1.72504
1.68736
1.65141
1.61658
1.5833
1.55094
1.52001
1.48987
1.46108
1.43298
1.40616
1.37993
1.35494
1.33045
1.30714
1.28424
1.26248
1.24104
1.2207
1.2006
1.18155
1.16265
1.14478
1.12696
1.11015
1.09332
1.07747
1.06152
1.04655
1.03139
1.01723
1.00279
0.989366
0.975588
0.962837
0.949654
0.937527
0.924885
0.913334
0.901187
0.890165
0.878474
0.867945
0.856679
0.846619
0.83575
0.826145
0.815652
0.806495
0.796361
0.787648
0.777846
0.769585
0.760094
0.752274
0.743075
0.735732
0.726808
0.719947
0.711275
0.704823
0.696464
0.690358
0.68227
0.676607
0.66876
0.663434
0.65554
0.650455
0.642543
0.637943
0.629999
0.62505
0.616335
2.87686
2.82454
2.768
2.7077
2.6451
2.58115
2.5169
2.4528
2.3896
2.32752
2.26711
2.20836
2.15168
2.09688
2.04427
1.99352
1.9449
1.89803
1.85318
1.80992
1.76857
1.72868
1.69059
1.65385
1.61883
1.58504
1.55285
1.52174
1.49211
1.46339
1.436
1.40934
1.38389
1.359
1.33522
1.31188
1.28959
1.26763
1.24667
1.22598
1.20627
1.18676
1.16824
1.14984
1.13242
1.11507
1.09868
1.08227
1.06681
1.05126
1.03664
1.02184
1.00796
0.993813
0.980601
0.96703
0.954415
0.941364
0.929301
0.916729
0.905184
0.893062
0.882012
0.870317
0.859741
0.848451
0.838333
0.827425
0.817749
0.807201
0.797956
0.787748
0.778921
0.769035
0.76062
0.751037
0.743024
0.733724
0.726113
0.717076
0.709864
0.701071
0.694265
0.685699
0.679287
0.670952
0.664922
0.656814
0.65113
0.643269
0.637901
0.630261
0.625158
0.617702
0.612792
0.605681
0.600744
0.593656
0.590515
0.579289
2.49024
2.45084
2.40851
2.36337
2.31649
2.26844
2.22003
2.17149
2.12342
2.07587
2.02933
1.98369
1.93936
1.89613
1.85435
1.81375
1.77464
1.73671
1.70026
1.66493
1.63102
1.59813
1.56659
1.53594
1.50656
1.47795
1.45051
1.42375
1.39808
1.37298
1.34893
1.32535
1.30278
1.2806
1.25937
1.23847
1.21849
1.19874
1.1799
1.16122
1.14342
1.12571
1.10887
1.09205
1.07609
1.06009
1.04495
1.02971
1.01534
1.0008
0.987144
0.973258
0.960272
0.946989
0.934631
0.921906
0.910132
0.897918
0.886687
0.874941
0.864218
0.852902
0.842654
0.831736
0.821935
0.811385
0.802011
0.791805
0.782838
0.772953
0.764379
0.754797
0.746604
0.737305
0.729481
0.720449
0.712985
0.704203
0.69709
0.688541
0.681773
0.67344
0.667007
0.658874
0.652769
0.644819
0.639034
0.63125
0.625777
0.618142
0.612975
0.605472
0.600602
0.593172
0.588646
0.581416
0.577141
0.570129
0.565396
0.557388
2.25451
2.22172
2.18681
2.14977
2.11139
2.07204
2.03234
1.9924
1.95271
1.91327
1.8745
1.8363
1.79903
1.76251
1.72705
1.69242
1.65892
1.62625
1.59474
1.56402
1.53443
1.50559
1.47783
1.45075
1.42472
1.39928
1.37484
1.3509
1.32792
1.30537
1.28372
1.26242
1.242
1.22186
1.20257
1.1835
1.16525
1.14717
1.12989
1.11272
1.09635
1.08002
1.06448
1.04892
1.03416
1.01931
1.00526
0.991053
0.977657
0.964051
0.951266
0.938211
0.926
0.913459
0.901789
0.889728
0.878571
0.866958
0.856286
0.845091
0.834881
0.824077
0.814308
0.803871
0.794522
0.784429
0.775483
0.765713
0.757153
0.747687
0.739499
0.730318
0.72249
0.713575
0.706095
0.697429
0.690289
0.681856
0.675046
0.66683
0.660344
0.652328
0.646158
0.638326
0.632467
0.624803
0.619249
0.611737
0.60648
0.599103
0.59414
0.586884
0.582206
0.575014
0.570663
0.563673
0.559556
0.552771
0.548232
0.540489
2.10252
2.07328
2.04248
2.01001
1.97653
1.94228
1.90774
1.87298
1.83839
1.80394
1.77001
1.73646
1.70365
1.67137
1.63995
1.60914
1.57925
1.54999
1.52169
1.494
1.46725
1.44109
1.41584
1.39113
1.36731
1.34397
1.32148
1.29941
1.27817
1.25728
1.2372
1.2174
1.19839
1.17959
1.16157
1.14371
1.12661
1.10961
1.09336
1.07716
1.06171
1.04625
1.03154
1.01677
1.00275
0.98863
0.975265
0.961739
0.948986
0.93602
0.923846
0.911401
0.899769
0.88781
0.876691
0.865182
0.854546
0.843458
0.833278
0.82258
0.81283
0.802492
0.79315
0.78315
0.774197
0.764512
0.75593
0.746542
0.738318
0.729208
0.721329
0.712481
0.704936
0.696332
0.689112
0.680738
0.673836
0.665674
0.659086
0.651121
0.64484
0.637058
0.63108
0.623465
0.617783
0.610324
0.604929
0.597614
0.592497
0.585317
0.58047
0.573405
0.568826
0.561892
0.557533
0.550637
0.546661
0.539756
0.536745
0.526696
1.99924
1.97207
1.94369
1.91397
1.88347
1.85232
1.82096
1.78939
1.75798
1.72666
1.69578
1.66519
1.63523
1.6057
1.57691
1.54862
1.52113
1.49416
1.46802
1.4424
1.4176
1.3933
1.36981
1.34677
1.32453
1.30269
1.28162
1.2609
1.24094
1.22126
1.20233
1.18362
1.16565
1.14785
1.13076
1.1138
1.09755
1.08137
1.06589
1.05044
1.03569
1.02091
1.00683
0.992684
0.979247
0.965684
0.952846
0.939833
0.927561
0.915065
0.903327
0.891315
0.880084
0.868524
0.857775
0.84664
0.836347
0.825609
0.815749
0.805381
0.795931
0.785906
0.776847
0.767143
0.758455
0.749052
0.74072
0.731599
0.723609
0.714754
0.707093
0.698487
0.691145
0.682773
0.675743
0.667589
0.660864
0.652912
0.646489
0.638725
0.632599
0.625008
0.619174
0.611745
0.606197
0.598917
0.593647
0.586506
0.581505
0.574494
0.569755
0.562855
0.558376
0.551605
0.547339
0.540599
0.536713
0.529963
0.527019
0.517189
1.92541
1.8995
1.87262
1.84465
1.81608
1.78697
1.75773
1.7283
1.69904
1.66985
1.64106
1.61251
1.58453
1.55691
1.52995
1.50342
1.47761
1.45224
1.42762
1.40345
1.38003
1.35703
1.33479
1.31293
1.29182
1.27104
1.25099
1.23124
1.21219
1.1934
1.1753
1.15739
1.14017
1.1231
1.10671
1.09042
1.0748
1.05923
1.04433
1.02944
1.01522
1.00096
0.987383
0.973717
0.960738
0.947626
0.935213
0.922621
0.910744
0.89864
0.887269
0.875622
0.864732
0.853513
0.843078
0.83226
0.822257
0.811814
0.802221
0.792128
0.782925
0.773158
0.764325
0.754865
0.746386
0.737213
0.729075
0.720172
0.712362
0.703714
0.69622
0.687812
0.680626
0.672442
0.665558
0.657584
0.650995
0.643215
0.636919
0.629318
0.62331
0.615874
0.610151
0.602867
0.597423
0.590281
0.585108
0.578098
0.573188
0.566302
0.561648
0.554868
0.550467
0.543812
0.539618
0.532994
0.529163
0.522533
0.519639
0.509982
1.87052
1.84542
1.81954
1.79275
1.7655
1.7378
1.71003
1.68209
1.65434
1.62665
1.59934
1.57226
1.54569
1.51945
1.49382
1.46858
1.444
1.41982
1.39635
1.37326
1.35089
1.3289
1.30761
1.28666
1.26641
1.24646
1.2272
1.20821
1.18988
1.17177
1.15432
1.13705
1.12042
1.10392
1.08807
1.0723
1.05717
1.04208
1.02763
1.01318
0.999368
0.985508
0.972303
0.959003
0.946367
0.933594
0.921496
0.909216
0.897629
0.885815
0.874713
0.863335
0.852695
0.841727
0.831524
0.820941
0.811154
0.800931
0.79154
0.781655
0.772638
0.76307
0.754408
0.745138
0.736817
0.727826
0.719832
0.711105
0.703427
0.694947
0.687577
0.679328
0.672259
0.664226
0.657451
0.64962
0.643136
0.635489
0.629294
0.621816
0.615909
0.608586
0.602962
0.595782
0.590435
0.583392
0.578309
0.571397
0.566568
0.559782
0.5552
0.548521
0.544183
0.53763
0.533494
0.526968
0.523186
0.516665
0.513798
0.504266
1.82915
1.80454
1.7793
1.75331
1.72696
1.70025
1.67351
1.64664
1.61998
1.59338
1.56715
1.54114
1.51562
1.49041
1.46577
1.44149
1.41784
1.39455
1.37192
1.34966
1.32807
1.30682
1.28624
1.26598
1.24638
1.22706
1.20839
1.18996
1.17218
1.15459
1.13764
1.12084
1.10468
1.08862
1.07319
1.05782
1.04308
1.02836
1.01427
1.00016
0.986677
0.973138
0.960238
0.947237
0.934882
0.922386
0.910549
0.898529
0.887182
0.87561
0.864729
0.853576
0.843141
0.832383
0.82237
0.811982
0.802371
0.79233
0.783101
0.773388
0.764521
0.755116
0.746593
0.737479
0.729283
0.720445
0.712564
0.703985
0.696409
0.688075
0.680795
0.67269
0.665701
0.657809
0.651106
0.643412
0.636992
0.62948
0.623343
0.615994
0.610142
0.602938
0.597372
0.590297
0.585012
0.57806
0.573042
0.566215
0.561443
0.554744
0.550202
0.543633
0.5393
0.53287
0.528688
0.522506
0.518321
0.512166
0.509472
0.500068
1.79705
1.77275
1.74794
1.7225
1.6968
1.6708
1.64481
1.61873
1.59286
1.56708
1.54166
1.51645
1.49173
1.46729
1.44341
1.41986
1.39692
1.37433
1.35237
1.33075
1.30979
1.28913
1.26913
1.24942
1.23035
1.21153
1.19336
1.17539
1.15806
1.1409
1.12436
1.10795
1.09216
1.07646
1.06137
1.04633
1.0319
1.01748
1.00368
0.989845
0.97663
0.963345
0.950687
0.937918
0.925787
0.913505
0.901873
0.89005
0.878892
0.867502
0.856795
0.845813
0.835536
0.824938
0.815071
0.804833
0.795356
0.785456
0.776352
0.766769
0.758021
0.748736
0.740325
0.731323
0.723234
0.7145
0.70672
0.69824
0.690757
0.682518
0.675324
0.66731
0.660401
0.652596
0.64597
0.638355
0.632012
0.624572
0.618507
0.611232
0.605435
0.598323
0.592776
0.585834
0.580515
0.573741
0.568646
0.562019
0.55716
0.55065
0.546038
0.539625
0.535259
0.52892
0.524822
0.518458
0.514873
0.508565
0.504454
0.497474
1.77209
1.74795
1.7234
1.69834
1.67309
1.6476
1.62218
1.59669
1.57144
1.54628
1.5215
1.49692
1.47282
1.44899
1.42572
1.40276
1.3804
1.35835
1.33693
1.31582
1.29534
1.27516
1.25561
1.23633
1.21768
1.19926
1.18146
1.16386
1.14686
1.13003
1.1138
1.09769
1.08218
1.06676
1.05192
1.03713
1.02294
1.00875
0.99516
0.981532
0.968513
0.955417
0.942938
0.930344
0.918376
0.906255
0.894774
0.8831
0.872082
0.860829
0.850251
0.839397
0.829239
0.818759
0.809003
0.798876
0.789502
0.779706
0.770698
0.761214
0.752555
0.743366
0.735038
0.726127
0.718116
0.70947
0.701763
0.693369
0.685954
0.677798
0.670669
0.662736
0.655888
0.648162
0.641592
0.634056
0.627765
0.620402
0.614387
0.607185
0.601438
0.594393
0.588898
0.582012
0.57675
0.570023
0.564986
0.5584
0.553597
0.547127
0.542564
0.536193
0.531867
0.525578
0.521506
0.515207
0.511627
0.505403
0.501325
0.494347
1.75348
1.72936
1.70493
1.68007
1.65512
1.62998
1.60494
1.57986
1.55505
1.53034
1.50602
1.48189
1.45826
1.43488
1.41205
1.38952
1.36757
1.34593
1.32489
1.30415
1.28403
1.26419
1.24496
1.22598
1.20762
1.18947
1.17193
1.15457
1.13781
1.1212
1.10517
1.08926
1.07394
1.05868
1.04402
1.02939
1.01535
1.0013
0.987851
0.974358
0.961466
0.948495
0.936135
0.923656
0.9118
0.899787
0.888411
0.876837
0.86592
0.854762
0.844282
0.833517
0.823455
0.813059
0.803396
0.793349
0.784066
0.774349
0.765426
0.75602
0.747441
0.738328
0.730077
0.721241
0.713304
0.70473
0.697094
0.688766
0.681424
0.673328
0.666271
0.658393
0.651616
0.643942
0.637439
0.629956
0.623725
0.616415
0.610458
0.603303
0.597622
0.590602
0.5852
0.578298
0.573173
0.566383
0.561517
0.554846
0.550216
0.54367
0.539256
0.532839
0.528624
0.522343
0.518266
0.512235
0.508144
0.502148
0.4995
0.490308
1.73967
1.71549
1.69108
1.66632
1.64153
1.6166
1.5918
1.56699
1.54246
1.51805
1.49402
1.4702
1.44684
1.42375
1.40118
1.3789
1.35719
1.33577
1.31493
1.29439
1.27444
1.25476
1.23569
1.21685
1.19861
1.18058
1.16314
1.14589
1.12922
1.1127
1.09677
1.08094
1.06571
1.05054
1.03597
1.02143
1.00748
0.993531
0.980177
0.966783
0.953993
0.941118
0.928854
0.91647
0.904712
0.892795
0.88152
0.870046
0.859232
0.848177
0.837803
0.827141
0.817187
0.806896
0.797342
0.787399
0.778224
0.76861
0.759797
0.75049
0.742022
0.733003
0.724865
0.716118
0.708296
0.699802
0.692285
0.684029
0.676806
0.668774
0.661837
0.654016
0.647358
0.639734
0.633348
0.625909
0.619792
0.612523
0.606672
0.59956
0.593972
0.587004
0.581675
0.57484
0.569763
0.563054
0.55822
0.551629
0.547032
0.540553
0.536186
0.529803
0.525665
0.519394
0.515445
0.509202
0.505586
0.499331
0.4966
0.487501
1.7287
1.70443
1.68
1.65528
1.63055
1.60571
1.581
1.5563
1.53184
1.5075
1.48351
1.45971
1.43635
1.41324
1.39064
1.36833
1.34657
1.32513
1.30425
1.28372
1.26374
1.24401
1.22489
1.20601
1.18774
1.16972
1.15231
1.13511
1.11853
1.10212
1.08633
1.07066
1.05561
1.04064
1.02627
1.01196
0.998239
0.984524
0.971411
0.95826
0.945712
0.933093
0.921085
0.908962
0.897457
0.885795
0.874762
0.863529
0.852941
0.84211
0.831944
0.821489
0.811723
0.801622
0.792237
0.782466
0.773445
0.763986
0.755311
0.746144
0.737799
0.728909
0.720879
0.71225
0.704522
0.696138
0.688702
0.68055
0.673397
0.665464
0.658586
0.650858
0.644251
0.636716
0.630376
0.62302
0.616944
0.609753
0.60394
0.5969
0.59135
0.584444
0.579157
0.572373
0.567344
0.560675
0.555894
0.549338
0.544789
0.538345
0.534021
0.527675
0.523573
0.517344
0.513424
0.507225
0.50363
0.497425
0.494696
0.485655
1.72026
1.6956
1.6707
1.64565
1.62049
1.59507
1.56973
1.54431
1.51917
1.49412
1.46953
1.44517
1.42139
1.39793
1.37514
1.35269
1.33097
1.30959
1.28894
1.26862
1.24903
1.22982
1.2113
1.19309
1.17553
1.15822
1.14152
1.12502
1.10911
1.09334
1.07815
1.06306
1.04853
1.03406
1.02015
1.00625
0.992922
0.979564
0.966776
0.953923
0.941646
0.929269
0.917478
0.905551
0.894222
0.88272
0.871831
0.860732
0.850264
0.839546
0.82948
0.819123
0.809443
0.799426
0.790115
0.78042
0.771463
0.76207
0.753452
0.744347
0.736052
0.727218
0.719232
0.710655
0.702966
0.694633
0.687228
0.679127
0.671998
0.664115
0.657256
0.649578
0.642984
0.635497
0.629165
0.621855
0.615785
0.608637
0.602827
0.595828
0.590278
0.583414
0.578124
0.571381
0.566345
0.559719
0.554927
0.548414
0.543853
0.53745
0.53311
0.526818
0.52268
0.516508
0.512519
0.506565
0.502583
0.496647
0.494053
0.485063
1.69554
1.66961
1.644
1.6183
1.59302
1.56797
1.54338
1.51906
1.49524
1.47172
1.44874
1.42606
1.40396
1.38217
1.36096
1.34006
1.31974
1.29971
1.28026
1.26107
1.24246
1.22408
1.20627
1.18867
1.17162
1.15475
1.13842
1.12224
1.1066
1.09107
1.07608
1.06116
1.04679
1.03245
1.01865
1.00486
0.991618
0.97834
0.965623
0.952835
0.940616
0.928293
0.91655
0.904667
0.893378
0.881914
0.871059
0.859992
0.849554
0.838863
0.828823
0.81849
0.808833
0.798838
0.789546
0.77987
0.770931
0.761556
0.752953
0.743863
0.735582
0.726762
0.718789
0.710225
0.702547
0.694226
0.686831
0.678741
0.67162
0.663748
0.656895
0.649227
0.642638
0.63516
0.628834
0.62153
0.615467
0.608323
0.60252
0.595527
0.589977
0.583132
0.577817
0.571125
0.566029
0.559488
0.554604
0.548198
0.543537
0.537237
0.532809
0.526598
0.522402
0.516261
0.512316
0.506156
0.502693
0.496607
0.492673
0.485867
2.93726
3.13781
3.22877
3.56179
3.75652
4.25821
4.98918
6.08923
8.76163
21.6823
2.62887
2.75393
2.81759
3.0136
3.22204
3.4791
3.92496
4.54932
5.47708
12.2136
2.44679
2.51392
2.54696
2.67387
2.76544
3.00352
3.18927
3.67849
4.07608
7.29661
2.33245
2.36979
2.38598
2.46112
2.5061
2.6588
2.76023
3.07304
3.2904
4.85373
2.23715
2.25834
2.2673
2.31365
2.33866
2.43023
2.48841
2.67584
2.80246
3.5971
2.16553
2.1743
2.1783
2.2051
2.21943
2.27472
2.30842
2.41882
2.49221
2.90725
2.10869
2.10963
2.10957
2.12275
2.13
2.16243
2.18178
2.24709
2.28932
2.51251
2.0648
2.05953
2.0565
2.06006
2.06229
2.07909
2.08926
2.12683
2.15065
2.27459
2.02994
2.021
2.01382
2.0107
2.00957
2.01595
2.01996
2.03956
2.05207
2.1225
2.00195
1.99077
1.9799
1.97362
1.96711
1.96651
1.96644
1.97415
1.97942
2.0198
1.97929
1.96697
1.95284
1.94428
1.9339
1.92914
1.92344
1.92362
1.92413
1.9455
1.96203
1.94713
1.93228
1.92018
1.90853
1.89926
1.8909
1.88523
1.88053
1.89019
1.94789
1.93172
1.91516
1.90187
1.88725
1.877
1.86392
1.85724
1.84492
1.84865
1.93617
1.91998
1.90108
1.8877
1.87012
1.8594
1.8429
1.83474
1.81711
1.81651
1.92681
1.91108
1.88993
1.87672
1.85667
1.84558
1.82648
1.81713
1.79818
1.79164
1.91972
1.90424
1.88162
1.86816
1.84676
1.83468
1.8144
1.80318
1.78414
1.77321
1.9148
1.89827
1.87587
1.86081
1.83989
1.82563
1.80596
1.79201
1.77345
1.75963
1.91133
1.89304
1.87155
1.85454
1.83447
1.81817
1.79908
1.78311
1.76471
1.74891
1.90946
1.89006
1.86878
1.85059
1.83058
1.8131
1.7939
1.77676
1.75801
1.74103
1.90034
1.87855
1.85645
1.836
1.815
1.79549
1.77518
1.75627
1.73635
1.7178
3.01503
3.31614
3.85219
4.69877
6.19767
9.39258
18.2974
60.3876
387.948
673.339
3.02595
3.31522
3.88002
4.78163
6.38298
9.85791
20.0136
64.6083
413.247
668.408
3.02498
3.30917
3.89041
4.83306
6.46168
9.89662
19.9093
66.4821
431.554
662.593
3.03165
3.31794
3.8989
4.95361
6.79092
10.7575
22.6995
72.9748
461.29
645.186
3.02703
3.30873
3.88606
4.95572
6.80668
10.6268
22.4019
77.0842
488.163
644.317
3.06944
3.37306
3.99016
5.18021
7.31453
11.5466
26.5136
87.1615
515.63
628.67
3.07057
3.37901
3.99578
5.18808
7.38056
11.6692
26.8179
94.5274
555.849
624.72
3.15817
3.50271
4.21333
5.56975
8.25762
12.928
32.4366
112.442
560.612
605.019
3.18299
3.53709
4.26995
5.6596
8.54225
13.1009
34.7867
139.032
554.427
597.563
3.33633
3.75549
4.66038
6.36716
10.0533
16.799
45.0904
178.499
542.129
572.355
3.15563
3.5712
4.05687
4.85372
7.24908
8.33152
24.0921
60.8923
356.397
822.887
3.18052
3.52627
3.94725
4.75857
6.80409
8.95419
19.7192
53.886
317.431
783.806
3.16081
3.52329
3.90877
4.68929
6.6143
8.47909
20.3359
60.1462
322.212
766.826
3.13051
3.47968
3.88093
4.68967
6.28612
8.27949
19.4474
61.9397
319.78
750.896
3.10708
3.4288
3.86743
4.68463
6.12108
8.3526
17.6469
61.8048
322.516
730.13
3.08304
3.39878
3.85744
4.657
6.0253
8.55937
16.7235
58.7918
324.118
719.807
3.06425
3.37153
3.85257
4.62814
5.98409
8.76648
16.7869
58.158
327.105
702.09
3.04105
3.34011
3.84041
4.63394
5.98612
8.82877
16.9347
58.0753
343.726
695.754
3.01082
3.30996
3.81885
4.63809
6.05804
9.06346
17.3775
57.9548
353.576
686.161
3.00179
3.29503
3.81599
4.63857