/*--------------------------------*- C++ -*----------------------------------*\
  =========                 |
  \\      /  F ield         | OpenFOAM: The Open Source CFD Toolbox
   \\    /   O peration     | Website:  https://openfoam.org
    \\  /    A nd           | Version:  8
     \\/     M anipulation  |
\*---------------------------------------------------------------------------*/
FoamFile
{
    version     2.0;
    format      ascii;
    class       volScalarField;
    location    "3.4999919616";
    object      k;
}
// * * * * * * * * * * * * * * * * * * * * * * * * * * * * * * * * * * * * * //

dimensions      [0 2 -2 0 0 0 0];

internalField   nonuniform List<scalar> 
6800
(
6.99995
15.6116
18.0411
17.8329
17.0529
15.4619
11.7906
7.65695
4.1944
2.64519
5.17281
14.543
17.2302
16.8299
15.4934
11.9163
7.01356
3.81016
2.292
1.62443
6.38725
14.9473
16.5948
15.787
13.075
7.48098
3.93125
2.33703
1.57357
1.15444
7.00473
14.7483
15.8246
14.3013
9.12601
4.66548
2.6752
1.72993
1.19074
0.930718
7.41558
14.6083
15.1529
12.3031
6.16027
3.24029
1.87186
1.27281
0.953628
0.77974
7.73894
14.7995
14.5215
9.21997
4.34605
2.30301
1.51198
1.1097
0.84816
0.70219
7.90618
14.8234
13.5915
6.99571
3.22937
1.9247
1.26555
0.918405
0.730812
0.63609
8.15845
15.4083
12.29
5.05869
2.60259
1.55028
1.09222
0.853877
0.694864
0.614665
8.39701
15.9698
10.3821
4.40176
2.19711
1.4059
0.996218
0.758601
0.633899
0.572407
8.85019
16.3988
8.91624
3.39708
1.86519
1.21479
0.904934
0.730245
0.619009
0.562585
40.9958
59.327
61.7159
61.5173
62.0027
63.9464
66.7718
69.7155
71.8576
72.8275
39.3504
57.064
60.2521
61.0637
62.8754
66.275
70.7615
75.4955
79.5983
81.9613
36.3843
53.1404
57.4942
60.2151
64.3278
69.964
76.2122
81.4915
85.3207
87.3336
32.8613
48.7984
54.5647
60.0433
67.001
74.6729
79.9767
82.2943
82.2436
79.4693
29.16
45.1956
53.5025
62.203
71.7422
77.3728
76.9552
73.6898
68.2578
56.2924
25.9578
43.6835
55.7951
67.338
72.5104
69.9779
63.1467
50.1763
41.9459
29.2279
23.2467
44.6389
61.2295
65.4065
59.8029
46.8285
34.6191
26.2152
23.1195
17.5793
21.9028
47.3976
53.4741
46.1331
32.0445
25.1989
21.8139
18.4061
16.8187
13.173
18.9602
36.8821
30.3411
24.6128
21.2413
19.4012
17.7857
15.4477
13.7515
9.71127
13.8495
20.6334
20.392
19.4644
18.3389
17.4284
15.5541
12.4505
9.33109
5.03693
73.0019
70.6584
67.8882
65.2665
62.9432
60.9107
59.0858
57.4629
56.0302
54.7477
53.5875
52.5255
51.5437
50.6274
49.7654
48.9504
48.1762
47.4373
46.7289
46.0467
45.3865
44.745
44.1192
43.5068
42.906
42.3154
41.7342
41.1618
40.5978
40.0423
39.4956
38.9582
38.4307
37.9133
37.4066
36.9109
36.4269
35.9552
35.4966
35.0515
34.6208
34.2045
33.8028
33.4151
33.0408
32.6791
32.329
31.9892
31.6587
31.3363
31.0208
30.7111
30.4066
30.1065
29.8105
29.5183
29.2297
28.9449
28.6639
28.3867
28.1133
27.8438
27.5781
27.316
27.0576
26.8026
26.551
26.3025
26.057
25.8143
25.5744
25.337
25.1023
24.8702
24.6409
24.4147
24.1918
23.9727
23.7576
23.5469
23.3408
23.1395
22.9432
22.7518
22.5652
22.3833
22.2059
22.0327
21.8636
21.6977
21.5357
21.3758
21.2205
21.0642
20.9164
20.7595
20.6243
20.4568
20.348
20.1366
82.6845
79.8089
76.4272
73.2201
70.3621
67.8747
65.6938
63.7884
62.0932
60.5706
59.1892
57.9229
56.7519
55.6586
54.6298
53.6588
52.7379
51.8598
51.018
50.207
49.4222
48.6594
47.9154
47.1876
46.4744
45.7745
45.0873
44.412
43.7486
43.0972
42.4585
41.8329
41.2206
40.622
40.0371
39.4664
38.9103
38.3696
37.845
37.3369
36.8464
36.3733
35.9172
35.4773
35.0528
34.6424
34.2453
33.8599
33.4851
33.1195
32.7618
32.4112
32.0668
31.7279
31.3944
31.0659
30.7425
30.4242
30.1111
29.8033
29.5005
29.2028
28.9102
28.6223
28.3392
28.0604
27.7857
27.5149
27.2475
26.9833
26.722
26.4635
26.2076
25.9545
25.7042
25.4572
25.2137
24.9743
24.7393
24.5091
24.2839
24.0641
23.8497
23.6407
23.437
23.2386
23.0451
22.8563
22.672
22.4915
22.3152
22.1413
21.9726
21.8029
21.6427
21.4728
21.3266
21.1457
21.0289
20.8009
88.4125
85.9546
82.3982
79.031
76.043
73.4515
71.1854
69.1936
67.4081
65.7883
64.3056
62.9409
61.6754
60.5062
59.4176
58.3908
57.4145
56.4795
55.5787
54.7054
53.855
53.023
52.2067
51.4038
50.6134
49.8349
49.0682
48.3134
47.5709
46.8422
46.1279
45.4283
44.7436
44.0736
43.4187
42.7792
42.1563
41.5507
40.9637
40.3958
39.8469
39.3167
38.8049
38.3109
37.8337
37.3722
36.9251
36.491
36.0682
35.6553
35.251
34.8542
34.4642
34.0808
33.7037
33.333
32.9688
32.6114
32.261
31.9172
31.5799
31.2494
30.9255
30.608
30.2964
29.9904
29.6894
29.3928
29.0999
28.8101
28.523
28.2381
27.9553
27.6747
27.3964
27.1211
26.8492
26.5814
26.3183
26.0604
25.8081
25.5618
25.3214
25.0872
24.8589
24.6366
24.4198
24.2082
24.0015
23.7991
23.6015
23.4065
23.2175
23.0274
22.8484
22.6586
22.496
22.2948
22.1654
21.9128
80.1049
79.1765
77.0067
74.7029
72.6386
70.8152
69.1697
67.6752
66.298
65.0173
63.8207
62.7005
61.6512
60.6547
59.7103
58.811
57.9515
57.1239
56.3219
55.5382
54.7684
54.0085
53.2564
52.5105
51.771
51.0382
50.3126
49.5945
48.8862
48.1888
47.5031
46.8294
46.1677
45.5178
44.8806
44.2566
43.6478
43.0554
42.4811
41.9257
41.3895
40.8719
40.3722
39.8894
39.4225
38.9702
38.5311
38.1034
37.6855
37.2756
36.8726
36.4755
36.0841
35.6982
35.3183
34.9447
34.5778
34.2183
33.8658
33.522
33.1864
32.8585
32.5376
32.2231
31.9144
31.6106
31.3108
31.014
30.7193
30.4259
30.1329
29.8399
29.5468
29.2538
28.9614
28.6706
28.3823
28.0975
27.8169
27.5415
27.2715
27.0076
26.7498
26.4982
26.2529
26.0134
25.7795
25.5509
25.3276
25.1087
24.895
24.6841
24.48
24.2747
24.0821
23.8774
23.7032
23.487
23.3485
23.0786
55.0768
54.2563
53.4111
52.8961
52.61
52.5031
52.3539
52.1516
51.8995
51.6171
51.3205
51.022
50.7268
50.4298
50.1384
49.8444
49.5513
49.2515
48.942
48.6146
48.2696
47.9035
47.5186
47.1155
46.698
46.268
45.8278
45.3798
44.9301
44.4831
44.037
43.5908
43.1436
42.6958
42.2499
41.8066
41.3702
40.942
40.5258
40.1214
39.7306
39.3511
38.9836
38.6261
38.2791
37.9404
37.6095
37.2836
36.9616
36.6411
36.3221
36.0035
35.6863
35.3708
35.0584
34.7497
34.446
34.1478
33.8558
33.5698
33.2896
33.0153
32.7459
32.4813
32.221
31.9633
31.7067
31.4501
31.1924
30.9327
30.6697
30.4026
30.1315
29.8571
29.5804
29.3031
29.0265
28.752
28.4806
28.2136
27.9514
27.6951
27.444
27.1988
26.9591
26.7243
26.4944
26.2688
26.0475
25.8296
25.6164
25.4057
25.2022
24.9974
24.8062
24.6024
24.4306
24.2164
24.0797
23.8147
28.1762
27.5945
27.1881
27.1562
27.2138
27.3301
27.5765
27.9142
28.2815
28.706
29.1802
29.695
30.221
30.7274
31.2416
31.7243
32.1969
32.6332
33.0199
33.3431
33.614
33.8293
33.9987
34.1271
34.2241
34.2925
34.3325
34.3486
34.366
34.3796
34.365
34.3274
34.2692
34.1957
34.1112
34.0142
33.9135
33.8072
33.7045
33.6012
33.5023
33.4012
33.3023
33.2001
33.0989
32.9946
32.8892
32.7779
32.6611
32.5349
32.4023
32.2614
32.1159
31.9654
31.8136
31.6604
31.5086
31.3583
31.2105
31.0655
30.9217
30.7807
30.6385
30.498
30.3575
30.2108
30.0583
29.901
29.7405
29.5729
29.3967
29.2091
29.0109
28.8038
28.5896
28.371
28.1498
27.928
27.7068
27.4874
27.2706
27.0576
26.8469
26.641
26.4375
26.2355
26.0364
25.839
25.6436
25.45
25.2606
25.0736
24.894
24.7138
24.5471
24.3695
24.2213
24.0364
23.9181
23.6921
17.1558
16.6453
16.1785
15.8021
15.4832
15.2232
14.977
14.7973
14.6155
14.5049
14.4975
14.4865
14.5608
14.5824
14.675
14.7763
14.9537
15.1133
15.3442
15.5777
15.8621
16.1438
16.4439
16.7714
17.1198
17.4843
17.8536
18.2303
18.6123
19.0007
19.3876
19.7716
20.1425
20.4994
20.8456
21.1724
21.4984
21.8035
22.1162
22.4058
22.6891
22.9485
23.2006
23.4287
23.6537
23.86
24.0607
24.2381
24.4039
24.5487
24.684
24.8015
24.9124
25.0108
25.1057
25.1932
25.2793
25.3614
25.4416
25.5189
25.5895
25.6586
25.7143
25.7721
25.8236
25.8268
25.8281
25.8277
25.8429
25.8304
25.8103
25.757
25.685
25.5963
25.4962
25.3872
25.2724
25.1528
25.0305
24.9072
24.7845
24.662
24.5385
24.4179
24.2902
24.1582
24.0276
23.8878
23.743
23.5948
23.4514
23.3113
23.1793
23.0486
22.9292
22.8043
22.7
22.5737
22.4924
22.3412
12.7778
12.2466
11.7292
11.2337
10.7557
10.2901
9.83606
9.40115
8.98759
8.5986
8.24154
7.91069
7.6204
7.34031
7.11208
6.91121
6.76259
6.62179
6.51431
6.40643
6.34751
6.27381
6.26338
6.25988
6.31002
6.33571
6.38892
6.48556
6.60144
6.73491
6.8994
7.08324
7.28749
7.51051
7.75724
8.00381
8.28792
8.55602
8.87147
9.16813
9.53393
9.88102
10.2933
10.6846
11.1244
11.5446
11.9939
12.4194
12.8589
13.2716
13.6941
14.09
14.495
14.8791
15.2694
15.6438
16.0215
16.3867
16.7426
17.0826
17.4095
17.7235
18.0206
18.3068
18.5839
18.8383
19.0789
19.2941
19.4947
19.668
19.82
19.9406
20.0483
20.129
20.202
20.256
20.3059
20.338
20.3705
20.3936
20.4129
20.4276
20.4665
20.4709
20.4467
20.4272
20.3986
20.3167
20.2229
20.1181
20.0338
19.9482
19.8776
19.7995
19.7411
19.6806
19.6328
19.5884
19.5605
19.5225
9.26435
8.72789
8.20488
7.6987
7.22303
6.75716
6.30644
5.87839
5.47445
5.10213
4.75606
4.44581
4.1582
3.90625
3.67058
3.46414
3.26674
3.09345
2.9438
2.81137
2.69555
2.59308
2.49932
2.42241
2.35141
2.29799
2.24233
2.21296
2.17157
2.16541
2.16572
2.17709
2.18319
2.21905
2.23312
2.27204
2.30729
2.34634
2.42107
2.47507
2.57826
2.6546
2.79306
2.90312
3.06962
3.21745
3.40999
3.5936
3.81326
4.02665
4.27651
4.52178
4.80122
5.08283
5.39194
5.71222
6.05542
6.41257
6.79953
7.20142
7.62598
8.06115
8.49948
8.95112
9.39744
9.8393
10.2764
10.6805
11.0877
11.4399
11.7985
12.0979
12.4127
12.6699
12.9476
13.1647
13.4045
13.5914
13.7994
13.9616
14.15
14.2907
14.4653
14.5899
14.7289
14.8374
14.955
15.0338
15.1306
15.1551
15.2769
15.2903
15.3151
15.1573
15.226
15.1071
15.124
15.1062
15.1285
15.2181
4.74321
4.42185
4.09064
3.78302
3.48469
3.21753
2.97756
2.76206
2.56805
2.39427
2.23799
2.09891
1.97419
1.86376
1.76498
1.677
1.59803
1.52643
1.46154
1.40227
1.34781
1.29778
1.25114
1.20832
1.16809
1.13161
1.09684
1.06608
1.03597
1.00961
0.985642
0.965031
0.946714
0.93173
0.918283
0.908235
0.898837
0.892843
0.88584
0.88346
0.884456
0.887719
0.891245
0.89932
0.908177
0.919088
0.936335
0.955823
0.978578
1.00512
1.03526
1.07251
1.11109
1.15697
1.20813
1.26612
1.33835
1.42001
1.5193
1.63914
1.76713
1.93817
2.09434
2.31565
2.51405
2.76507
3.01176
3.26707
3.54459
3.80114
4.07864
4.33716
4.60744
4.86785
5.14212
5.39094
5.66432
5.91499
6.17344
6.41042
6.69391
6.91263
7.17727
7.41339
7.66097
7.90709
8.12739
8.3234
8.58214
8.7572
8.99193
9.10424
9.40083
9.47813
9.57216
9.3696
9.56244
9.45274
9.52244
9.70562
1.79689
1.77884
1.74229
1.69491
1.63859
1.57626
1.51058
1.4438
1.3777
1.31368
1.25272
1.1955
1.14235
1.09336
1.04845
1.00731
0.969669
0.935052
0.903166
0.873604
0.846105
0.820425
0.796338
0.773753
0.752464
0.732521
0.713643
0.696053
0.679304
0.663801
0.649079
0.635467
0.62264
0.610748
0.599646
0.589311
0.579733
0.570727
0.562454
0.554566
0.547516
0.540866
0.534849
0.529431
0.524279
0.519905
0.515631
0.512393
0.508896
0.506582
0.504116
0.502524
0.503022
0.50236
0.505086
0.506262
0.510378
0.512008
0.517272
0.525538
0.535101
0.553639
0.567233
0.596038
0.619236
0.656933
0.69506
0.737465
0.78965
0.839366
0.900729
0.959156
1.02979
1.09422
1.18244
1.24973
1.34802
1.42467
1.53894
1.62
1.75959
1.85443
2.00389
2.11865
2.28366
2.41304
2.60156
2.72645
2.93347
3.06573
3.28615
3.43214
3.64505
3.78504
3.93513
3.95945
4.22123
4.06038
4.2669
4.37735
1.21073
1.17607
1.1389
1.10113
1.06343
1.02613
0.989534
0.953854
0.919372
0.886287
0.854845
0.825159
0.797354
0.771401
0.747292
0.724883
0.704086
0.684709
0.666647
0.649719
0.633836
0.618862
0.604732
0.591346
0.578678
0.566624
0.555185
0.544322
0.534039
0.524254
0.514931
0.506062
0.497576
0.489513
0.481791
0.474445
0.467428
0.460722
0.45435
0.44827
0.442507
0.437009
0.431772
0.426798
0.422025
0.417503
0.413129
0.408962
0.404933
0.40109
0.397306
0.393614
0.390117
0.386569
0.383358
0.379649
0.37645
0.372442
0.369184
0.365321
0.362193
0.359481
0.357032
0.356033
0.356038
0.356243
0.35657
0.357607
0.360115
0.362853
0.367077
0.372638
0.378321
0.386023
0.393038
0.401685
0.409718
0.418145
0.430304
0.43892
0.456988
0.46785
0.49073
0.507349
0.538557
0.561842
0.598583
0.629689
0.675934
0.710559
0.767641
0.816084
0.869014
0.930575
0.9798
1.02827
1.04768
1.14129
1.17143
1.21252
0.882305
0.863632
0.843774
0.822956
0.801637
0.780125
0.75876
0.737735
0.717309
0.697581
0.678707
0.660678
0.643557
0.627262
0.611811
0.597098
0.583137
0.56983
0.557204
0.54517
0.533765
0.522907
0.512629
0.502851
0.493595
0.484785
0.476432
0.468467
0.46089
0.453647
0.446734
0.440112
0.433768
0.427685
0.421834
0.416224
0.410805
0.405611
0.400572
0.395741
0.391033
0.386516
0.382098
0.377858
0.373696
0.369702
0.365775
0.362007
0.358298
0.35474
0.351236
0.347872
0.344561
0.341375
0.33824
0.335214
0.332234
0.329355
0.32651
0.323763
0.321043
0.318419
0.315844
0.313339
0.310952
0.308575
0.306375
0.30413
0.302233
0.300254
0.298596
0.296972
0.295551
0.294253
0.293031
0.291936
0.290898
0.289888
0.289124
0.288357
0.287847
0.28746
0.287507
0.287611
0.288164
0.28906
0.290504
0.291955
0.294662
0.296782
0.300636
0.305371
0.309375
0.314425
0.319454
0.322446
0.331424
0.336362
0.337036
0.35208
0.690389
0.679325
0.667377
0.654646
0.641461
0.628007
0.614524
0.601085
0.587867
0.574892
0.562301
0.550081
0.538348
0.527052
0.516286
0.505967
0.496161
0.486761
0.477822
0.469226
0.461031
0.453123
0.44557
0.438265
0.431289
0.424541
0.418107
0.411887
0.40597
0.400252
0.394823
0.389574
0.384593
0.379772
0.375194
0.370753
0.366526
0.362413
0.358488
0.354654
0.350982
0.347384
0.343926
0.34053
0.337256
0.334035
0.330921
0.327858
0.324888
0.321967
0.319128
0.316338
0.313621
0.31095
0.308347
0.305783
0.303287
0.30082
0.298424
0.296046
0.293743
0.291447
0.289235
0.287018
0.284895
0.28276
0.280726
0.278676
0.276729
0.274776
0.272926
0.271086
0.26934
0.267614
0.265957
0.264333
0.262749
0.261216
0.259679
0.258255
0.256734
0.25541
0.253899
0.252653
0.251213
0.250014
0.248636
0.247467
0.246299
0.245244
0.24442
0.243555
0.242919
0.242233
0.241576
0.241198
0.240833
0.240209
0.23954
0.238768
0.573194
0.566363
0.558798
0.550568
0.541918
0.532961
0.523891
0.514747
0.505681
0.496693
0.48791
0.479297
0.470962
0.462844
0.455037
0.447458
0.4402
0.433163
0.426442
0.419927
0.413714
0.407687
0.401945
0.396363
0.391047
0.385865
0.380928
0.376099
0.371497
0.36698
0.362676
0.358439
0.354405
0.350421
0.346635
0.342884
0.339327
0.335791
0.332446
0.32911
0.32596
0.322807
0.319835
0.316848
0.314039
0.311202
0.308539
0.305836
0.303303
0.30072
0.298307
0.295832
0.293527
0.291151
0.288946
0.28666
0.284549
0.282346
0.280323
0.278194
0.276254
0.274194
0.272332
0.270334
0.268543
0.266604
0.264879
0.262992
0.261329
0.259494
0.257891
0.256105
0.25456
0.252824
0.251338
0.24965
0.248223
0.246583
0.245215
0.243623
0.242315
0.240764
0.23952
0.238002
0.236827
0.235332
0.234227
0.232747
0.231714
0.230249
0.229284
0.227835
0.226927
0.225493
0.224627
0.223217
0.22241
0.220977
0.220349
0.218219
0.500405
0.495722
0.490485
0.484712
0.478595
0.472199
0.465677
0.459039
0.452411
0.445777
0.439248
0.432786
0.426491
0.420306
0.414324
0.408472
0.40284
0.397337
0.392055
0.386893
0.381946
0.377105
0.372473
0.367932
0.363592
0.35933
0.355262
0.351257
0.34744
0.343671
0.340081
0.336524
0.333139
0.32977
0.326568
0.323366
0.320327
0.317275
0.314384
0.311468
0.308714
0.305923
0.303298
0.300625
0.298121
0.295559
0.29317
0.290712
0.28843
0.28607
0.283889
0.281619
0.279533
0.277346
0.275347
0.273235
0.271317
0.269275
0.267433
0.265455
0.263683
0.261763
0.260056
0.258191
0.256545
0.254728
0.253141
0.251368
0.249837
0.248105
0.246628
0.244934
0.243512
0.241855
0.240488
0.238865
0.237557
0.235967
0.234717
0.233158
0.231969
0.23044
0.229308
0.227808
0.226729
0.225258
0.224226
0.222783
0.221795
0.220374
0.219428
0.218027
0.217124
0.215736
0.214884
0.213508
0.212683
0.211347
0.210424
0.208874
0.454656
0.451087
0.447106
0.442694
0.438007
0.433076
0.428031
0.422862
0.41768
0.412458
0.407295
0.402147
0.397107
0.392114
0.38726
0.382469
0.377834
0.373268
0.368866
0.364532
0.360365
0.35626
0.35232
0.348433
0.344709
0.341027
0.337505
0.334012
0.330676
0.32736
0.324196
0.321042
0.318039
0.315035
0.312182
0.309316
0.306602
0.303865
0.30128
0.29866
0.296194
0.293683
0.291326
0.288913
0.286657
0.284335
0.282173
0.279934
0.277858
0.275695
0.2737
0.271609
0.26969
0.267664
0.265818
0.263854
0.262075
0.260167
0.258452
0.256596
0.254942
0.253134
0.251537
0.249773
0.248232
0.246509
0.245022
0.243337
0.241901
0.240253
0.238868
0.237253
0.235919
0.234336
0.233051
0.231499
0.230263
0.22874
0.227551
0.226055
0.224914
0.223443
0.222348
0.220902
0.219851
0.218427
0.21742
0.216015
0.215052
0.213664
0.212744
0.211368
0.210491
0.209126
0.208292
0.206935
0.206137
0.204814
0.20392
0.202402
0.424991
0.421987
0.418673
0.415009
0.411126
0.407035
0.402846
0.398538
0.394209
0.389826
0.38548
0.381124
0.376847
0.372588
0.368437
0.364319
0.360326
0.356374
0.352555
0.348777
0.345136
0.341532
0.338066
0.334629
0.33133
0.328052
0.324911
0.321782
0.318789
0.315798
0.312943
0.310081
0.307353
0.304609
0.302001
0.299367
0.29687
0.294338
0.291944
0.289508
0.287212
0.284864
0.28266
0.280396
0.278279
0.276093
0.274058
0.271945
0.269988
0.267943
0.266059
0.264077
0.262263
0.260341
0.258593
0.256725
0.255039
0.253222
0.251595
0.249824
0.248252
0.246525
0.245005
0.243317
0.241849
0.240197
0.238778
0.237161
0.235789
0.234204
0.232878
0.231324
0.230044
0.228519
0.227284
0.225786
0.224595
0.223124
0.221977
0.22053
0.219426
0.218002
0.216941
0.215539
0.214521
0.213137
0.212162
0.210795
0.209862
0.20851
0.20762
0.206279
0.20543
0.204098
0.203291
0.201967
0.201196
0.199902
0.199043
0.197562
0.404952
0.402244
0.3993
0.39607
0.392665
0.389082
0.385418
0.381645
0.377852
0.374
0.370177
0.366331
0.362547
0.358765
0.355069
0.351388
0.347809
0.344251
0.340805
0.337383
0.334077
0.330792
0.327627
0.324479
0.321452
0.318436
0.315541
0.31265
0.309881
0.307108
0.304457
0.301794
0.299255
0.296695
0.29426
0.291796
0.28946
0.287085
0.28484
0.282549
0.280391
0.278177
0.276101
0.27396
0.27196
0.269888
0.26796
0.265952
0.264092
0.262144
0.26035
0.258457
0.256725
0.254885
0.253212
0.25142
0.249803
0.248056
0.246493
0.244788
0.243275
0.241609
0.240145
0.238515
0.237098
0.235501
0.234129
0.232565
0.231237
0.229702
0.228417
0.226912
0.225669
0.22419
0.222989
0.221536
0.220376
0.218948
0.217829
0.216423
0.215345
0.21396
0.212924
0.211557
0.210563
0.209212
0.208261
0.206924
0.206014
0.20469
0.203821
0.202508
0.201678
0.200374
0.199585
0.198286
0.197542
0.196221
0.195644
0.193716
0.390813
0.388277
0.385549
0.382579
0.379466
0.376197
0.372862
0.369427
0.365976
0.362466
0.358982
0.355468
0.352011
0.348545
0.345156
0.341773
0.33848
0.335198
0.332017
0.328849
0.325786
0.322735
0.319793
0.316858
0.314034
0.311213
0.308503
0.305789
0.303188
0.300577
0.298079
0.295563
0.293163
0.290736
0.288428
0.286085
0.283863
0.281599
0.279459
0.277268
0.275206
0.273085
0.271095
0.26904
0.26712
0.265127
0.263273
0.261338
0.259547
0.257667
0.255936
0.254108
0.252434
0.250655
0.249035
0.247301
0.245734
0.244042
0.242525
0.240872
0.239402
0.237785
0.236361
0.234777
0.233397
0.231845
0.230507
0.228985
0.227688
0.226194
0.224937
0.223471
0.222253
0.220814
0.219635
0.21822
0.21708
0.215688
0.214588
0.213217
0.212157
0.210805
0.209786
0.208451
0.207473
0.206152
0.205217
0.203908
0.203015
0.201717
0.200864
0.199576
0.198762
0.197483
0.196708
0.195434
0.194703
0.193405
0.192839
0.190947
0.380463
0.378021
0.375425
0.372618
0.369697
0.366637
0.363525
0.36032
0.357106
0.353834
0.350588
0.34731
0.344084
0.340843
0.337674
0.334502
0.331414
0.328328
0.325335
0.322347
0.319457
0.316571
0.313787
0.311003
0.308323
0.30564
0.303063
0.300476
0.297997
0.295502
0.293116
0.290709
0.288411
0.286085
0.283872
0.281622
0.279488
0.27731
0.275252
0.273141
0.271154
0.269107
0.267188
0.265201
0.263347
0.261417
0.259623
0.257747
0.256012
0.254187
0.252507
0.250731
0.249104
0.247374
0.245798
0.24411
0.242582
0.240935
0.239454
0.237843
0.236407
0.23483
0.233437
0.231892
0.230541
0.229027
0.227714
0.22623
0.224956
0.2235
0.222262
0.220834
0.219633
0.218231
0.217066
0.215689
0.21456
0.213205
0.212114
0.21078
0.209726
0.208411
0.207396
0.206096
0.205123
0.203833
0.202905
0.201622
0.200738
0.199461
0.198621
0.197349
0.196549
0.195284
0.194519
0.193261
0.192547
0.191266
0.190705
0.188848
0.372713
0.37033
0.367813
0.365114
0.362321
0.359404
0.356446
0.353402
0.350353
0.347249
0.344171
0.34106
0.337999
0.334921
0.33191
0.328892
0.325954
0.323013
0.320162
0.317309
0.31455
0.31179
0.309128
0.30646
0.303893
0.301317
0.298844
0.296355
0.293972
0.291567
0.289269
0.286944
0.284728
0.282478
0.280338
0.278158
0.276092
0.273979
0.271983
0.269932
0.268002
0.26601
0.264144
0.262208
0.260402
0.258519
0.256771
0.254938
0.253246
0.25146
0.249821
0.248081
0.246492
0.244795
0.243255
0.241598
0.240104
0.238486
0.237036
0.235453
0.234045
0.232496
0.231129
0.229611
0.228283
0.226795
0.225505
0.224045
0.222792
0.221358
0.220143
0.218734
0.217556
0.216169
0.21503
0.213663
0.212563
0.211213
0.210155
0.208819
0.207804
0.206481
0.205507
0.204198
0.203262
0.201969
0.201069
0.199791
0.198925
0.197662
0.196831
0.195579
0.194785
0.19354
0.192787
0.191546
0.190818
0.189605
0.188797
0.187422
0.366834
0.364476
0.362007
0.359376
0.356668
0.35385
0.350998
0.348068
0.345137
0.342154
0.339198
0.33621
0.333271
0.330313
0.32742
0.324517
0.32169
0.318858
0.31611
0.313358
0.310697
0.30803
0.305457
0.302876
0.300392
0.297895
0.295499
0.293084
0.290771
0.288434
0.286202
0.28394
0.281784
0.279592
0.27751
0.275384
0.273371
0.271307
0.26936
0.267356
0.265473
0.263524
0.261701
0.259806
0.25804
0.256195
0.254485
0.252687
0.25103
0.249278
0.247672
0.245963
0.244405
0.242737
0.241226
0.239596
0.23813
0.236535
0.235113
0.233552
0.232171
0.230641
0.2293
0.227799
0.226498
0.225023
0.223761
0.222312
0.221087
0.219662
0.218474
0.217073
0.215922
0.214542
0.213428
0.212069
0.210991
0.209651
0.208611
0.207289
0.206285
0.204981
0.204013
0.202725
0.201793
0.200521
0.199625
0.198365
0.197505
0.196256
0.195434
0.194193
0.193408
0.192173
0.191425
0.190197
0.189479
0.188282
0.187478
0.186117
0.362282
0.359934
0.35749
0.354903
0.352253
0.349502
0.346725
0.343875
0.341029
0.338134
0.335267
0.332368
0.329518
0.326649
0.323843
0.321027
0.318284
0.315535
0.312868
0.310195
0.307608
0.305016
0.302513
0.300002
0.297584
0.295152
0.292816
0.290462
0.288206
0.285926
0.283746
0.281536
0.27943
0.277286
0.275248
0.273167
0.271196
0.269174
0.267266
0.2653
0.263452
0.261539
0.259749
0.257886
0.256151
0.254336
0.252654
0.250885
0.249254
0.247529
0.245946
0.244262
0.242726
0.241082
0.239591
0.237983
0.236536
0.234963
0.233557
0.232016
0.230652
0.22914
0.227815
0.226331
0.225045
0.223586
0.222338
0.220904
0.219692
0.218283
0.217107
0.215721
0.214579
0.213215
0.21211
0.210767
0.209696
0.208373
0.207338
0.206032
0.205033
0.203744
0.202782
0.201507
0.200583
0.19932
0.198434
0.197181
0.196333
0.195089
0.194278
0.193042
0.192268
0.191039
0.190301
0.189079
0.188372
0.187176
0.18639
0.18503
0.358684
0.356335
0.353905
0.351345
0.348734
0.346031
0.343309
0.340519
0.337738
0.334909
0.332111
0.329283
0.326504
0.323705
0.32097
0.318223
0.315548
0.312865
0.310262
0.307652
0.305127
0.302593
0.300147
0.297691
0.295325
0.292945
0.290658
0.288352
0.28614
0.283904
0.281765
0.279595
0.277526
0.275419
0.273416
0.271369
0.269429
0.267438
0.265559
0.263621
0.2618
0.259913
0.258148
0.256309
0.254597
0.252805
0.251143
0.249396
0.247783
0.246078
0.244512
0.242847
0.241327
0.2397
0.238223
0.236633
0.235198
0.233642
0.232247
0.230723
0.229368
0.227873
0.226556
0.225089
0.22381
0.222369
0.221125
0.21971
0.218501
0.217111
0.215937
0.214571
0.21343
0.212088
0.21098
0.20966
0.208586
0.207287
0.206246
0.204966
0.20396
0.202697
0.201728
0.200476
0.199547
0.198304
0.197416
0.196179
0.195332
0.194099
0.193293
0.192066
0.191297
0.190075
0.189338
0.188123
0.187433
0.186196
0.185654
0.183864
0.355918
0.353556
0.351128
0.348582
0.345997
0.343326
0.340644
0.337897
0.335164
0.332385
0.329641
0.326865
0.324141
0.321396
0.318715
0.316019
0.313397
0.310763
0.30821
0.305645
0.303166
0.300674
0.29827
0.295852
0.293524
0.291178
0.288924
0.286648
0.284466
0.282257
0.280144
0.277999
0.275952
0.273867
0.271884
0.269857
0.267935
0.265962
0.264099
0.262178
0.260371
0.2585
0.256748
0.254924
0.253224
0.251445
0.249796
0.24806
0.24646
0.244765
0.243212
0.241557
0.240049
0.238433
0.236967
0.235387
0.233964
0.232417
0.231034
0.22952
0.228175
0.226691
0.225383
0.223928
0.222657
0.221228
0.219992
0.218589
0.217388
0.216009
0.214843
0.213486
0.212356
0.211019
0.209926
0.208607
0.207551
0.206247
0.205231
0.20394
0.202963
0.201685
0.200746
0.199481
0.198578
0.197327
0.196457
0.19522
0.194383
0.193158
0.192355
0.19114
0.190372
0.189161
0.188432
0.187226
0.18652
0.185342
0.184558
0.183224
0.353876
0.351494
0.349056
0.346512
0.343938
0.341284
0.338625
0.335905
0.333202
0.330454
0.327742
0.324999
0.322307
0.319592
0.31694
0.314272
0.311675
0.309064
0.306532
0.303986
0.301524
0.299046
0.296656
0.294248
0.291931
0.289592
0.287345
0.285074
0.282898
0.280693
0.278585
0.276444
0.274403
0.272323
0.270346
0.268324
0.266409
0.264444
0.262589
0.260677
0.25888
0.257018
0.255274
0.25346
0.251769
0.250001
0.248362
0.246638
0.245049
0.243368
0.241826
0.240186
0.23869
0.237088
0.235637
0.234071
0.232663
0.231131
0.229764
0.228264
0.226936
0.225465
0.224176
0.222733
0.221481
0.220064
0.218848
0.217455
0.216276
0.214905
0.213761
0.212412
0.211303
0.209974
0.2089
0.20759
0.206552
0.205259
0.204256
0.202979
0.202011
0.20075
0.199816
0.19857
0.19767
0.196437
0.19557
0.194349
0.193517
0.192305
0.191508
0.190303
0.189541
0.188342
0.187615
0.186422
0.185725
0.184559
0.183779
0.182459
0.352267
0.349865
0.347414
0.344866
0.342291
0.339641
0.336985
0.334268
0.331565
0.328816
0.326097
0.323345
0.320638
0.317909
0.315237
0.312551
0.309932
0.307303
0.304749
0.30219
0.299708
0.297208
0.294794
0.292364
0.290028
0.287674
0.285419
0.283143
0.280968
0.278768
0.276671
0.274544
0.272522
0.270464
0.268512
0.266519
0.264634
0.262701
0.260879
0.259001
0.25724
0.255415
0.253711
0.251936
0.250287
0.248558
0.24696
0.245274
0.243724
0.242079
0.240574
0.238967
0.237506
0.235935
0.234515
0.232978
0.231598
0.230092
0.228751
0.227274
0.22597
0.22452
0.223253
0.221829
0.220597
0.219196
0.218
0.216621
0.215459
0.214101
0.212973
0.211635
0.210541
0.209223
0.208162
0.206862
0.205836
0.204553
0.20356
0.202294
0.201334
0.200084
0.199157
0.197921
0.197028
0.195805
0.194945
0.193733
0.192907
0.191704
0.190913
0.189717
0.188961
0.18777
0.187048
0.185863
0.185171
0.184013
0.183239
0.181927
0.351034
0.348569
0.346042
0.343436
0.340787
0.338039
0.335275
0.332437
0.329613
0.326741
0.323912
0.321054
0.318264
0.315458
0.312737
0.310009
0.307376
0.304738
0.302202
0.299659
0.297224
0.294792
0.292464
0.290131
0.2879
0.285654
0.283508
0.28134
0.279271
0.277173
0.275174
0.27314
0.271205
0.269228
0.267354
0.26543
0.263612
0.261738
0.259972
0.258145
0.256431
0.254648
0.252982
0.251241
0.249623
0.247922
0.246349
0.244686
0.243157
0.241532
0.240045
0.238454
0.237009
0.235452
0.234046
0.232521
0.231154
0.229658
0.228328
0.226861
0.225568
0.224126
0.222869
0.221451
0.220229
0.218834
0.217647
0.216273
0.21512
0.213767
0.212647
0.211313
0.210226
0.208912
0.207858
0.206561
0.20554
0.204261
0.203273
0.20201
0.201055
0.199807
0.198885
0.197651
0.196762
0.195541
0.194685
0.193475
0.192652
0.191451
0.190663
0.189469
0.188715
0.187526
0.186807
0.185622
0.184932
0.183776
0.183004
0.181695
0.347435
0.344766
0.342114
0.339388
0.336696
0.333976
0.331299
0.3286
0.325952
0.323287
0.320683
0.318066
0.315517
0.312956
0.310469
0.307971
0.305551
0.303118
0.300767
0.2984
0.296117
0.293817
0.291601
0.289365
0.287216
0.285041
0.282955
0.28084
0.278815
0.276756
0.27479
0.272785
0.270875
0.268921
0.267066
0.265159
0.263356
0.261496
0.259743
0.257927
0.256223
0.254449
0.252792
0.251059
0.249447
0.247753
0.246186
0.244529
0.243006
0.241384
0.239903
0.238316
0.236875
0.235321
0.23392
0.232397
0.231034
0.229541
0.228214
0.226749
0.225459
0.224019
0.222765
0.221349
0.220129
0.218736
0.217551
0.216179
0.215028
0.213675
0.212558
0.211225
0.21014
0.208826
0.207774
0.206478
0.205459
0.20418
0.203193
0.20193
0.200977
0.199729
0.198809
0.197574
0.196688
0.195465
0.194612
0.1934
0.192581
0.191378
0.190593
0.189396
0.188646
0.187455
0.186739
0.185554
0.184868
0.183709
0.182945
0.181627
0.508548
0.519034
0.543391
0.571061
0.608221
0.65329
0.736157
0.859003
1.03819
1.80306
0.463412
0.479171
0.488371
0.516132
0.534725
0.577969
0.61431
0.703307
0.782166
1.23462
0.440325
0.449875
0.455045
0.473227
0.484201
0.517262
0.538246
0.599604
0.642721
0.89512
0.425106
0.430929
0.434077
0.445089
0.451694
0.472915
0.486309
0.526875
0.553542
0.695769
0.413341
0.417207
0.419215
0.426324
0.43036
0.443474
0.451721
0.477065
0.493759
0.575972
0.403667
0.406111
0.407457
0.412253
0.414901
0.423393
0.428506
0.444124
0.454319
0.502302
0.396113
0.397428
0.398172
0.401242
0.402946
0.408549
0.411811
0.421694
0.427921
0.45611
0.39025
0.390756
0.391026
0.392806
0.393783
0.397338
0.39937
0.405669
0.409494
0.42623
0.385378
0.385306
0.38527
0.386119
0.386587
0.388688
0.38988
0.3938
0.396129
0.406224
0.38157
0.381012
0.380632
0.380755
0.380842
0.381862
0.382458
0.384722
0.386061
0.392277
0.378543
0.377642
0.37693
0.376494
0.376289
0.376476
0.376627
0.377674
0.378326
0.382098
0.376063
0.374983
0.37396
0.373235
0.37259
0.372228
0.372047
0.372196
0.372347
0.374467
0.374115
0.372739
0.371625
0.370534
0.369714
0.368905
0.368352
0.367901
0.367649
0.368596
0.372483
0.371003
0.369645
0.368463
0.36727
0.366381
0.365297
0.364722
0.363688
0.364063
0.371163
0.369696
0.368053
0.366863
0.365327
0.364378
0.362914
0.362173
0.360554
0.360489
0.370114
0.368713
0.36681
0.365647
0.363833
0.362842
0.361088
0.360214
0.358444
0.357757
0.369298
0.367904
0.365859
0.364644
0.362713
0.361593
0.359744
0.358651
0.356872
0.355754
0.368728
0.367175
0.365171
0.36375
0.361876
0.360507
0.358714
0.357339
0.35559
0.354184
0.368405
0.366715
0.364728
0.36315
0.361282
0.359747
0.35794
0.356398
0.354605
0.353032
0.367038
0.365021
0.362918
0.361019
0.359013
0.357185
0.355221
0.35342
0.351458
0.349655
0.497966
0.538283
0.590217
0.688459
0.840996
1.1256
1.74488
3.84422
17.209
10.853
0.498523
0.538667
0.594505
0.694512
0.839743
1.12256
1.80179
3.87821
17.2853
10.6749
0.500236
0.539329
0.598065
0.708911
0.880737
1.16975
1.81423
3.96812
16.9337
10.5676
0.499561
0.536986
0.596397
0.706279
0.879613