/*--------------------------------*- C++ -*----------------------------------*\
  =========                 |
  \\      /  F ield         | OpenFOAM: The Open Source CFD Toolbox
   \\    /   O peration     | Website:  https://openfoam.org
    \\  /    A nd           | Version:  8
     \\/     M anipulation  |
\*---------------------------------------------------------------------------*/
FoamFile
{
    version     2.0;
    format      ascii;
    class       volScalarField;
    location    "3.4999919616";
    object      nut;
}
// * * * * * * * * * * * * * * * * * * * * * * * * * * * * * * * * * * * * * //

dimensions      [0 2 -1 0 0 0 0];

internalField   nonuniform List<scalar> 
6800
(
0.00986828
0.0234509
0.0325361
0.0358554
0.0410595
0.0482664
0.0454718
0.0383576
0.022811
0.0168483
0.00719574
0.0234064
0.0342965
0.0371435
0.0456954
0.0463985
0.0332644
0.0202258
0.0147389
0.0131814
0.00884403
0.0270243
0.0353091
0.0406341
0.0475025
0.0321384
0.0189097
0.0143281
0.0129663
0.0119342
0.00973481
0.0304985
0.0379863
0.0432521
0.0362408
0.0219051
0.0173219
0.0148731
0.0124823
0.0113915
0.0102741
0.0329357
0.0386771
0.0422741
0.0258989
0.0185349
0.0136407
0.0117954
0.0106792
0.00979408
0.0107332
0.036643
0.0404407
0.0350215
0.0217491
0.0151948
0.0139326
0.0128858
0.0111029
0.00973074
0.0109712
0.0386073
0.0405702
0.0287285
0.0171666
0.0153027
0.0125962
0.0103679
0.00922165
0.00861584
0.0114707
0.0420943
0.0401526
0.0217947
0.0180736
0.0141644
0.0120855
0.0110938
0.00977791
0.00901135
0.0119756
0.0447314
0.0345152
0.0219133
0.0160109
0.0132448
0.0112097
0.00939406
0.00854797
0.00808958
0.0125285
0.0458537
0.0319162
0.018449
0.0161784
0.0126209
0.0110876
0.0099752
0.00897985
0.00839406
0.0585081
0.249725
0.345056
0.371485
0.378949
0.380002
0.383871
0.389803
0.396424
0.399308
0.0561576
0.240733
0.333678
0.36062
0.365126
0.3628
0.362902
0.365272
0.368355
0.370979
0.0519191
0.221566
0.310276
0.33931
0.340627
0.335871
0.332603
0.329808
0.326204
0.326751
0.046886
0.199627
0.282703
0.310017
0.308398
0.302224
0.292589
0.28566
0.2755
0.259824
0.0416008
0.177919
0.254065
0.270613
0.264097
0.251992
0.236811
0.219542
0.201355
0.156859
0.0370316
0.159105
0.21587
0.217173
0.202306
0.186872
0.16079
0.120572
0.0982541
0.0716572
0.0331659
0.135245
0.168275
0.151257
0.132524
0.0942618
0.0689128
0.0585155
0.0580191
0.0509495
0.0312446
0.106606
0.0985439
0.0807093
0.05412
0.0496478
0.0501093
0.0491266
0.0495232
0.0459442
0.0270012
0.0560178
0.0432578
0.0413575
0.0408913
0.0442035
0.047492
0.0476647
0.046595
0.0410594
0.0197229
0.0274767
0.0317998
0.0356433
0.0393999
0.0447889
0.0483493
0.0445705
0.0434795
0.0271107
0.401271
0.40252
0.400199
0.397087
0.394106
0.39148
0.389194
0.387274
0.385718
0.384459
0.383441
0.382577
0.381837
0.381191
0.380621
0.380125
0.379704
0.37934
0.37902
0.378731
0.378458
0.378189
0.37791
0.377613
0.377291
0.376937
0.376549
0.376125
0.375663
0.375168
0.374648
0.374108
0.373555
0.37299
0.372419
0.371846
0.37128
0.370725
0.370193
0.369688
0.369221
0.368798
0.368422
0.368092
0.367805
0.367558
0.367346
0.367165
0.367005
0.366862
0.366728
0.366597
0.366464
0.366325
0.366177
0.36602
0.365852
0.365674
0.365486
0.36529
0.365084
0.36487
0.364644
0.364409
0.364163
0.363905
0.363635
0.36335
0.36305
0.362732
0.362395
0.362037
0.361659
0.36126
0.360845
0.360415
0.359977
0.359536
0.3591
0.358673
0.358262
0.357872
0.357505
0.357168
0.356857
0.35658
0.356324
0.356106
0.355896
0.355734
0.355553
0.355442
0.355268
0.355211
0.355025
0.35502
0.354798
0.354851
0.354465
0.355004
0.373444
0.374698
0.373506
0.371372
0.369271
0.367485
0.366037
0.364941
0.364122
0.363537
0.363144
0.362818
0.362576
0.362399
0.362271
0.362214
0.362224
0.362283
0.362375
0.362482
0.362588
0.36268
0.362745
0.362776
0.362765
0.362711
0.36261
0.362463
0.362264
0.362032
0.361777
0.3615
0.361205
0.360889
0.360559
0.360215
0.359868
0.359524
0.359195
0.358886
0.358621
0.3584
0.358222
0.358086
0.357989
0.357928
0.357898
0.357893
0.357905
0.357928
0.357953
0.357974
0.357986
0.357987
0.357973
0.357945
0.357902
0.357847
0.357782
0.357709
0.357626
0.357534
0.357434
0.357328
0.357212
0.357087
0.35695
0.3568
0.35663
0.35644
0.356224
0.35598
0.355707
0.355404
0.355076
0.354725
0.35436
0.353985
0.353611
0.353242
0.352887
0.352551
0.352238
0.351953
0.351694
0.351469
0.351265
0.3511
0.350942
0.350834
0.350705
0.350651
0.350526
0.350525
0.350386
0.350439
0.35026
0.350378
0.35002
0.350649
0.333008
0.332132
0.330477
0.328358
0.326578
0.325401
0.324725
0.32447
0.324489
0.324717
0.325104
0.325685
0.3264
0.327326
0.32841
0.329553
0.330716
0.331872
0.333001
0.334084
0.335105
0.336052
0.336916
0.337694
0.338384
0.338988
0.339508
0.33995
0.340307
0.340651
0.340969
0.341243
0.341469
0.341644
0.341775
0.341868
0.341938
0.341997
0.342061
0.342141
0.342234
0.342344
0.342478
0.342637
0.342821
0.34303
0.343259
0.343504
0.343755
0.344007
0.34425
0.344481
0.344694
0.344893
0.345068
0.345221
0.345358
0.345483
0.345603
0.34571
0.345804
0.345896
0.345983
0.34607
0.346152
0.346229
0.346293
0.346342
0.346369
0.346367
0.346328
0.346248
0.346123
0.345955
0.345747
0.345506
0.345242
0.344961
0.344676
0.344394
0.344123
0.343871
0.343641
0.343439
0.343263
0.343122
0.343
0.342918
0.342837
0.342807
0.342748
0.342768
0.342709
0.342785
0.342709
0.342845
0.342723
0.342935
0.342624
0.3434
0.263056
0.265098
0.268244
0.270098
0.272126
0.274453
0.276816
0.279146
0.281388
0.283545
0.285636
0.287694
0.289755
0.291737
0.293695
0.295632
0.29755
0.29943
0.301254
0.302997
0.30464
0.306169
0.307581
0.308875
0.310059
0.311137
0.312116
0.312994
0.313809
0.314491
0.315076
0.315585
0.316029
0.316414
0.316753
0.317055
0.317343
0.317627
0.317928
0.318252
0.318609
0.318993
0.319409
0.319851
0.320324
0.320824
0.321347
0.321885
0.322428
0.322964
0.323487
0.323989
0.324471
0.324931
0.32538
0.325823
0.326263
0.326706
0.327145
0.327611
0.328098
0.328602
0.329112
0.329628
0.330143
0.330651
0.331137
0.331604
0.332034
0.332413
0.332729
0.332971
0.333136
0.333225
0.333245
0.333207
0.333125
0.333009
0.332875
0.332734
0.332593
0.332465
0.332349
0.332258
0.332184
0.332137
0.332098
0.332095
0.332087
0.332133
0.332144
0.332244
0.332257
0.33242
0.332422
0.332654
0.332618
0.33294
0.332676
0.333657
0.15682
0.160755
0.16486
0.170124
0.176006
0.182482
0.188463
0.193955
0.198997
0.203723
0.208221
0.212564
0.216793
0.220877
0.224878
0.228749
0.232529
0.236182
0.239689
0.243001
0.246114
0.249017
0.251729
0.254259
0.256633
0.258859
0.26095
0.262913
0.264811
0.26669
0.268499
0.270209
0.271811
0.2733
0.274698
0.276015
0.277294
0.278547
0.279807
0.28107
0.282348
0.283623
0.284903
0.286172
0.287451
0.288727
0.29001
0.291271
0.292504
0.293692
0.294839
0.295935
0.296993
0.298012
0.299007
0.299985
0.300955
0.301925
0.302901
0.303884
0.304866
0.305863
0.306856
0.307859
0.308867
0.309859
0.310812
0.311705
0.31253
0.313277
0.313927
0.314468
0.314896
0.315223
0.31546
0.315626
0.315738
0.315811
0.315862
0.315902
0.315943
0.316001
0.316065
0.316154
0.316253
0.316371
0.316485
0.316626
0.316738
0.316898
0.317005
0.317211
0.317321
0.317603
0.317714
0.318084
0.318163
0.318657
0.318497
0.319754
0.0735801
0.0778412
0.0819036
0.0867554
0.0911351
0.0951378
0.0995373
0.10422
0.108865
0.113757
0.118838
0.124129
0.129486
0.134733
0.140086
0.145281
0.150511
0.155587
0.160403
0.164848
0.169003
0.172935
0.176683
0.180277
0.183768
0.187142
0.190392
0.193513
0.196759
0.200064
0.203117
0.205979
0.20869
0.211281
0.213787
0.216199
0.218601
0.22097
0.22337
0.22576
0.228149
0.230488
0.232806
0.23506
0.237328
0.239573
0.241821
0.243998
0.246104
0.248123
0.25009
0.25198
0.253834
0.25564
0.257429
0.259203
0.260978
0.262764
0.26456
0.266383
0.268196
0.270045
0.27186
0.273704
0.275552
0.277304
0.278972
0.28059
0.282185
0.283687
0.285066
0.28627
0.287304
0.288191
0.28895
0.289616
0.290207
0.290745
0.29124
0.291702
0.292149
0.29259
0.292998
0.293432
0.293827
0.294184
0.294509
0.294821
0.295063
0.295333
0.295542
0.295871
0.296105
0.296551
0.296828
0.297405
0.297683
0.29843
0.298448
0.300154
0.0522318
0.0536976
0.0550487
0.0564391
0.0577822
0.0591332
0.0603007
0.0616259
0.0627006
0.0640505
0.0660037
0.0676527
0.0699014
0.0714798
0.0734664
0.0754152
0.0778735
0.0800744
0.0828399
0.0856242
0.0885908
0.0916198
0.0946628
0.0979227
0.101342
0.104806
0.108291
0.111821
0.115398
0.119036
0.122701
0.126377
0.130046
0.133599
0.137087
0.140492
0.144008
0.147451
0.151056
0.154519
0.157915
0.161157
0.164341
0.167588
0.17084
0.174214
0.177407
0.180529
0.183416
0.186321
0.189248
0.192098
0.19497
0.197791
0.200639
0.203474
0.206334
0.209218
0.212104
0.215025
0.217883
0.220823
0.223617
0.22657
0.229519
0.231744
0.234053
0.236454
0.239262
0.241692
0.244098
0.246026
0.247725
0.249242
0.250637
0.251947
0.253188
0.254372
0.255511
0.256616
0.257729
0.258796
0.259847
0.260918
0.261807
0.262593
0.263336
0.263889
0.264259
0.264567
0.264864
0.265311
0.26571
0.266351
0.26684
0.267686
0.268202
0.269284
0.269575
0.271732
0.0464964
0.0468062
0.0469719
0.0469723
0.0468588
0.0465967
0.0462408
0.0457784
0.0453286
0.0448031
0.0443922
0.0439228
0.0434442
0.0428048
0.0424445
0.042154
0.0421631
0.042084
0.0421063
0.0420283
0.0422845
0.0422457
0.0428088
0.0433302
0.0442712
0.0446145
0.0453327
0.0462997
0.0476313
0.0489389
0.0505968
0.0523499
0.0542994
0.0563243
0.0585072
0.0606898
0.0632875
0.0657628
0.0686877
0.0714488
0.0749501
0.0783435
0.082303
0.0860097
0.090118
0.0940614
0.0982646
0.10227
0.106378
0.110288
0.114309
0.118156
0.122129
0.126004
0.129977
0.133927
0.137946
0.141993
0.145939
0.149865
0.15368
0.157626
0.161407
0.165344
0.169258
0.173059
0.176815
0.180359
0.183941
0.187224
0.190212
0.192844
0.195533
0.19801
0.200482
0.202807
0.205142
0.207289
0.209497
0.211618
0.213749
0.215748
0.218453
0.220371
0.221849
0.223434
0.224777
0.225168
0.22526
0.225117
0.225552
0.225893
0.226348
0.226723
0.227232
0.227971
0.228527
0.22984
0.230462
0.233148
0.0406334
0.0400195
0.0393717
0.0386187
0.0378907
0.0369803
0.0359401
0.0348174
0.0336596
0.0325067
0.031388
0.0303317
0.0293532
0.028465
0.0274408
0.0265222
0.0254533
0.024524
0.0237431
0.0230655
0.0224817
0.0219812
0.021494
0.0211583
0.0208058
0.0206439
0.0203204
0.0203786
0.0200638
0.020365
0.0206727
0.0208377
0.0210079
0.0213903
0.021573
0.0221055
0.0224342
0.0227402
0.0236249
0.0238596
0.025125
0.0259886
0.0275451
0.0286859
0.0304
0.0319057
0.0338429
0.0357316
0.0378955
0.0400801
0.0425179
0.0450317
0.0477445
0.0506446
0.0536346
0.0569861
0.0603379
0.06416
0.0680866
0.0726013
0.0770662
0.0820345
0.0866322
0.0918567
0.0966357
0.101796
0.106613
0.111351
0.115963
0.120121
0.124223
0.127808
0.131502
0.134727
0.138166
0.141043
0.144148
0.146823
0.149673
0.15217
0.155095
0.157173
0.16016
0.162164
0.164827
0.166773
0.168636
0.170718
0.172783
0.173999
0.178361
0.18019
0.181647
0.17884
0.18132
0.179307
0.180492
0.180753
0.181681
0.184571
0.0264131
0.0256317
0.0246075
0.0235959
0.0224294
0.0213958
0.0204735
0.0196434
0.0188918
0.0182126
0.0175947
0.0170422
0.0165385
0.0160981
0.0156956
0.0153341
0.0149988
0.0146813
0.0143826
0.0141003
0.0138312
0.0135808
0.0133385
0.0131173
0.0129031
0.0127184
0.0125306
0.0123833
0.0122269
0.0120899
0.0120254
0.0119562
0.011909
0.0119038
0.0118514
0.0118894
0.0118358
0.0118655
0.0117415
0.0117652
0.0118818
0.0119807
0.0120852
0.0121411
0.0123299
0.0122772
0.0126937
0.0130377
0.0133392
0.0137243
0.0141147
0.0146712
0.0151707
0.0158344
0.0164339
0.0172467
0.0180224
0.019168
0.020158
0.0218297
0.0230595
0.0254377
0.0269293
0.029973
0.032005
0.0353805
0.0380914
0.04141
0.0445443
0.0477987
0.0508422
0.0541146
0.0569849
0.0603221
0.063289
0.0664862
0.0694651
0.0727927
0.0754163
0.0784971
0.081707
0.084409
0.0872989
0.090577
0.0932383
0.0971941
0.0993946
0.102171
0.105684
0.108708
0.111258
0.113097
0.119572
0.125448
0.125344
0.122656
0.128616
0.124925
0.125756
0.12798
0.0135589
0.0137365
0.0137845
0.0137672
0.0136786
0.0135301
0.013337
0.0131128
0.0128706
0.0126217
0.0123751
0.0121382
0.0119154
0.0117099
0.0115226
0.0113521
0.0111978
0.0110563
0.0109262
0.0108049
0.0106912
0.0105841
0.0104822
0.0103861
0.0102945
0.0102092
0.0101274
0.0100536
0.00998066
0.00991719
0.00985589
0.00980278
0.0097531
0.00970943
0.00966954
0.00963339
0.00959958
0.00956459
0.00953576
0.00950247
0.00948389
0.00946011
0.00944124
0.00942841
0.00940442
0.00939699
0.0093772
0.00937958
0.00936636
0.00936576
0.00937392
0.00935885
0.00946561
0.00944282
0.00955579
0.00955112
0.00967447
0.00965658
0.00967733
0.00981014
0.00981918
0.0101575
0.0101915
0.0107026
0.0108675
0.0115221
0.0119103
0.0126206
0.0132045
0.0140318
0.014731
0.0156617
0.0165053
0.0174675
0.0186132
0.0195627
0.0208143
0.0218905
0.0234089
0.0245088
0.0264835
0.0277847
0.0298054
0.0314872
0.0337867
0.0356953
0.038323
0.0401304
0.042871
0.0446694
0.0477116
0.0504354
0.0523533
0.0550344
0.0578379
0.0625147
0.0666674
0.0643522
0.0701459
0.0704236
0.0112086
0.0111489
0.0110577
0.0109581
0.0108533
0.0107439
0.0106326
0.01052
0.0104088
0.0103
0.0101958
0.0100965
0.0100034
0.00991582
0.00983387
0.00975604
0.00968216
0.00961058
0.00954146
0.00947365
0.00940775
0.00934321
0.00928093
0.00922056
0.00916364
0.00910871
0.0090578
0.00901069
0.0089691
0.00893081
0.00889601
0.00886427
0.00883464
0.00880766
0.00878204
0.00875747
0.00873462
0.00871121
0.00869095
0.00867064
0.00865334
0.00863522
0.00861853
0.00860048
0.00858318
0.00856467
0.00854531
0.00852517
0.0085047
0.00848559
0.00846357
0.00844081
0.00843265
0.00841404
0.00841688
0.00840312
0.00842326
0.0084207
0.00845944
0.00846404
0.00850043
0.00852199
0.0085612
0.00853419
0.00853107
0.00852284
0.00858774
0.00853482
0.00867832
0.00877777
0.00887598
0.00897501
0.00905619
0.00912806
0.00915306
0.00922729
0.00917884
0.00920347
0.00922635
0.00914892
0.00934351
0.00910535
0.0093022
0.00922219
0.00952574
0.00966002
0.00979929
0.00994584
0.0104326
0.0108591
0.0116438
0.0128961
0.0135423
0.0150042
0.0158293
0.0173363
0.0168069
0.0196866
0.0221607
0.0221225
0.00987021
0.00984869
0.00982418
0.00979423
0.0097594
0.00971876
0.00967344
0.00962288
0.00956884
0.00951125
0.0094523
0.0093919
0.00933211
0.00927235
0.00921429
0.00915681
0.00910131
0.00904642
0.00899353
0.00894122
0.00889102
0.00884161
0.00879449
0.00874846
0.00870476
0.00866237
0.00862218
0.00858321
0.00854594
0.00850969
0.00847469
0.00844063
0.00840747
0.00837553
0.00834433
0.00831489
0.00828604
0.00825933
0.00823303
0.00820894
0.00818509
0.00816335
0.0081417
0.00812209
0.00810233
0.00808455
0.00806635
0.00805004
0.00803307
0.00801771
0.00800164
0.00798667
0.00797123
0.00795607
0.00794102
0.00792551
0.00791051
0.00789486
0.00787982
0.00786456
0.00784946
0.00783527
0.00782064
0.007808
0.00779464
0.00778309
0.00777293
0.00775988
0.00775507
0.00774476
0.00774307
0.00773489
0.00773597
0.00772911
0.00772233
0.00771685
0.00770032
0.00768753
0.0076754
0.00764458
0.00765322
0.00763337
0.00761409
0.00756846
0.00753369
0.00752065
0.0074466
0.00743585
0.00737467
0.00735781
0.00736577
0.00734175
0.00758956
0.00751474
0.00781297
0.00761139
0.00788647
0.00818242
0.00837814
0.00867956
0.00901529
0.00899089
0.00896186
0.00892753
0.0088905
0.008851
0.00881106
0.00876972
0.00872822
0.00868499
0.00864119
0.0085953
0.00854902
0.00850122
0.00845416
0.00840695
0.00836203
0.00831832
0.00827806
0.00823969
0.00820514
0.00817229
0.00814283
0.00811431
0.0080883
0.00806229
0.0080379
0.00801269
0.00798853
0.00796309
0.0079385
0.00791262
0.00788779
0.00786202
0.00783766
0.00781275
0.00778952
0.00776615
0.00774461
0.00772333
0.0077039
0.00768506
0.00766798
0.00765172
0.0076369
0.00762296
0.00761
0.00759784
0.00758605
0.00757491
0.00756347
0.00755259
0.00754083
0.00752955
0.0075171
0.00750507
0.00749185
0.00747914
0.00746544
0.00745244
0.00743873
0.00742597
0.00741309
0.00740093
0.00738933
0.00737867
0.0073693
0.00735954
0.0073528
0.00734467
0.00734017
0.00733462
0.00733224
0.00732754
0.00732483
0.00731791
0.00731473
0.00730546
0.0072981
0.00728848
0.00727906
0.00726612
0.00723598
0.0072261
0.00715333
0.00721592
0.00719009
0.00711906
0.00716495
0.00714758
0.0071148
0.00697879
0.00692136
0.00692442
0.00689468
0.00692668
0.00698501
0.00700348
0.0070539
0.00708943
0.00834675
0.00833664
0.00832185
0.00830207
0.00827915
0.00825236
0.00822344
0.00819135
0.00815798
0.00812228
0.00808642
0.00804923
0.00801296
0.00797613
0.00794093
0.00790547
0.00787188
0.00783795
0.00780587
0.00777328
0.00774253
0.00771118
0.00768183
0.00765194
0.00762428
0.0075962
0.0075706
0.00754465
0.00752137
0.00749772
0.00747686
0.00745552
0.00743699
0.0074178
0.00740138
0.00738411
0.00736958
0.00735399
0.00734113
0.007327
0.00731558
0.00730267
0.00729241
0.00728046
0.00727111
0.00725989
0.00725121
0.00724051
0.0072323
0.00722202
0.00721418
0.00720423
0.00719672
0.00718709
0.00717989
0.00717057
0.00716374
0.00715473
0.00714829
0.00713958
0.00713358
0.00712516
0.00711959
0.00711143
0.00710627
0.00709838
0.00709359
0.00708598
0.00708152
0.00707425
0.00707009
0.00706322
0.0070594
0.007053
0.00704947
0.00704362
0.00704034
0.0070352
0.00703201
0.00702766
0.00702466
0.00702091
0.00701788
0.00701429
0.0070114
0.00700756
0.00700545
0.00700024
0.0069996
0.00699327
0.00699282
0.00698577
0.00698579
0.00698086
0.00698153
0.00697902
0.00697859
0.00697583
0.00699115
0.0069536
0.0078337
0.00783017
0.00782217
0.00780925
0.00779355
0.00777461
0.00775435
0.00773179
0.00770874
0.00768397
0.00765932
0.00763341
0.00760823
0.00758226
0.00755764
0.00753264
0.00750945
0.0074861
0.0074648
0.00744327
0.00742377
0.0074038
0.00738572
0.00736683
0.00734968
0.00733145
0.00731491
0.00729714
0.00728115
0.00726389
0.00724859
0.00723202
0.00721761
0.00720187
0.00718844
0.00717357
0.00716108
0.00714697
0.00713528
0.00712173
0.00711065
0.00709747
0.0070868
0.00707383
0.00706347
0.00705066
0.00704061
0.007028
0.00701835
0.0070061
0.00699701
0.00698531
0.00697693
0.00696595
0.0069584
0.00694826
0.0069416
0.00693232
0.00692652
0.00691804
0.00691303
0.00690523
0.00690087
0.00689359
0.00688975
0.00688287
0.00687942
0.00687281
0.00686967
0.00686327
0.00686039
0.00685417
0.00685157
0.00684551
0.00684325
0.00683736
0.00683555
0.00682984
0.00682854
0.00682305
0.00682222
0.00681703
0.00681639
0.00681157
0.00681088
0.00680632
0.00680527
0.00680088
0.0067995
0.00679472
0.00679317
0.00678801
0.00678684
0.00678123
0.00678165
0.00677374
0.0067767
0.00677176
0.0067484
0.0067782
0.00747079
0.00747218
0.00746989
0.00746309
0.00745374
0.00744122
0.00742734
0.00741109
0.00739426
0.00737565
0.00735714
0.00733731
0.00731812
0.00729792
0.00727873
0.0072587
0.00723992
0.00722034
0.00720219
0.00718323
0.00716586
0.00714767
0.00713121
0.00711389
0.00709845
0.00708209
0.00706773
0.00705237
0.00703908
0.00702469
0.00701244
0.00699895
0.00698769
0.00697504
0.0069647
0.00695286
0.00694339
0.0069323
0.00692366
0.00691326
0.00690539
0.0068956
0.00688843
0.00687916
0.00687258
0.00686374
0.00685765
0.00684915
0.00684346
0.00683522
0.00682987
0.00682184
0.00681677
0.00680892
0.00680412
0.00679644
0.00679188
0.00678438
0.00678006
0.00677272
0.00676866
0.00676149
0.00675769
0.00675069
0.00674717
0.00674032
0.00673707
0.00673038
0.0067274
0.00672087
0.00671814
0.00671178
0.00670929
0.00670309
0.00670085
0.00669482
0.00669281
0.00668694
0.00668515
0.00667945
0.00667784
0.00667234
0.00667083
0.00666558
0.0066641
0.00665912
0.00665761
0.00665289
0.00665136
0.00664687
0.00664527
0.00664091
0.00663933
0.00663556
0.00663336
0.00662864
0.00662633
0.00662202
0.00661923
0.00661476
0.00721025
0.00721361
0.00721406
0.00721051
0.00720482
0.00719627
0.00718659
0.00717472
0.00716239
0.00714836
0.00713444
0.00711919
0.0071045
0.00708877
0.00707397
0.00705829
0.00704382
0.00702855
0.00701467
0.00699998
0.00698677
0.00697268
0.00696016
0.00694666
0.0069348
0.00692187
0.00691066
0.00689829
0.00688773
0.00687591
0.00686599
0.00685468
0.00684536
0.00683451
0.00682573
0.00681528
0.00680698
0.00679686
0.00678898
0.00677917
0.00677169
0.00676217
0.00675511
0.00674592
0.00673931
0.00673048
0.00672436
0.00671594
0.00671033
0.00670233
0.00669725
0.00668966
0.00668508
0.00667788
0.00667375
0.00666688
0.00666315
0.00665655
0.00665315
0.00664674
0.00664362
0.00663735
0.00663446
0.00662829
0.00662559
0.00661949
0.00661696
0.00661091
0.00660853
0.00660254
0.0066003
0.00659437
0.00659225
0.00658641
0.00658441
0.00657867
0.00657678
0.00657116
0.00656938
0.00656389
0.0065622
0.00655688
0.00655525
0.00655013
0.00654852
0.00654362
0.00654203
0.00653732
0.00653576
0.00653125
0.00652967
0.00652528
0.00652371
0.00651994
0.00651781
0.00651294
0.00651086
0.00650629
0.00650386
0.00649923
0.00701956
0.00702366
0.00702561
0.00702407
0.00702074
0.00701478
0.00700787
0.00699888
0.00698953
0.00697852
0.00696763
0.00695542
0.00694372
0.00693091
0.00691892
0.00690595
0.00689403
0.00688119
0.00686958
0.00685706
0.0068459
0.00683381
0.00682318
0.00681158
0.00680154
0.00679044
0.00678098
0.00677038
0.0067615
0.00675137
0.00674305
0.00673335
0.00672557
0.00671629
0.00670903
0.00670014
0.00669336
0.00668484
0.00667853
0.00667033
0.00666445
0.00665656
0.00665107
0.00664346
0.00663832
0.00663095
0.00662613
0.00661898
0.00661445
0.0066075
0.00660325
0.00659646
0.00659246
0.00658584
0.00658208
0.00657558
0.00657206
0.00656568
0.00656237
0.00655609
0.00655299
0.00654679
0.00654387
0.00653776
0.00653501
0.00652898
0.00652637
0.00652043
0.00651797
0.00651212
0.00650978
0.00650405
0.00650182
0.00649621
0.00649409
0.00648863
0.0064866
0.0064813
0.00647934
0.00647422
0.00647233
0.00646738
0.00646558
0.00646077
0.0064591
0.00645439
0.00645287
0.00644826
0.00644688
0.00644235
0.0064411
0.00643671
0.0064355
0.00643092
0.00643024
0.00642632
0.00642456
0.00642001
0.0064181
0.00641229
0.00687569
0.00688024
0.00688296
0.00688254
0.00688066
0.00687635
0.00687129
0.00686427
0.006857
0.00684811
0.0068394
0.00682936
0.00681985
0.00680919
0.00679935
0.00678848
0.00677863
0.00676782
0.00675819
0.00674761
0.00673834
0.00672808
0.00671922
0.00670933
0.00670092
0.00669141
0.00668345
0.00667432
0.00666681
0.00665802
0.00665093
0.00664246
0.00663579
0.0066276
0.00662132
0.00661339
0.00660748
0.00659979
0.00659423
0.00658677
0.00658156
0.00657433
0.00656945
0.00656245
0.00655788
0.00655111
0.00654684
0.00654028
0.00653628
0.00652993
0.00652618
0.00652002
0.00651649
0.00651047
0.00650715
0.00650125
0.00649811
0.00649229
0.00648932
0.00648356
0.00648074
0.00647501
0.00647232
0.00646662
0.00646404
0.0064584
0.0064559
0.00645033
0.00644789
0.00644242
0.00644004
0.00643469
0.00643236
0.00642715
0.00642487
0.00641981
0.00641758
0.00641269
0.00641051
0.00640579
0.00640367
0.0063991
0.00639709
0.00639261
0.00639077
0.00638632
0.00638472
0.00638025
0.00637887
0.00637441
0.00637321
0.00636886
0.00636772
0.00636314
0.00636252
0.00635871
0.00635692
0.00635234
0.00635045
0.00634479
0.00676617
0.00677073
0.00677387
0.00677416
0.00677328
0.00677013
0.00676643
0.00676084
0.00675513
0.00674784
0.00674082
0.00673244
0.00672464
0.00671565
0.00670749
0.00669822
0.00668998
0.00668068
0.00667255
0.00666336
0.00665547
0.0066465
0.00663892
0.00663023
0.006623
0.00661461
0.00660775
0.00659966
0.00659317
0.00658537
0.00657924
0.0065717
0.00656593
0.00655862
0.00655319
0.00654609
0.00654098
0.00653407
0.00652926
0.00652252
0.006518
0.00651141
0.00650716
0.00650072
0.00649671
0.00649042
0.00648663
0.00648049
0.0064769
0.0064709
0.00646749
0.00646164
0.00645838
0.00645268
0.00644956
0.00644399
0.006441
0.00643553
0.00643268
0.00642728
0.00642455
0.00641921
0.00641658
0.0064113
0.00640875
0.00640356
0.00640104
0.00639597
0.00639345
0.00638854
0.00638598
0.00638125
0.00637866
0.00637412
0.00637149
0.00636716
0.00636448
0.00636037
0.00635766
0.00635377
0.00635103
0.00634733
0.00634466
0.00634101
0.00633855
0.00633481
0.00633272
0.00632874
0.00632709
0.00632282
0.0063216
0.0063172
0.00631619
0.00631144
0.00631072
0.00630682
0.00630557
0.00630091
0.0062989
0.00629377
0.00668391
0.00668845
0.00669171
0.00669236
0.00669209
0.00668972
0.00668693
0.00668235
0.00667775
0.0066716
0.00666576
0.00665856
0.00665198
0.00664416
0.00663719
0.00662906
0.00662198
0.00661377
0.00660675
0.0065986
0.00659177
0.00658377
0.0065772
0.00656941
0.00656312
0.00655557
0.00654958
0.00654225
0.00653657
0.00652947
0.00652408
0.00651718
0.00651208
0.00650536
0.00650053
0.00649398
0.00648942
0.006483
0.0064787
0.0064724
0.00646836
0.00646217
0.00645837
0.00645228
0.00644871
0.00644271
0.00643935
0.00643345
0.00643028
0.00642448
0.00642148
0.00641577
0.00641291
0.00640732
0.00640457
0.00639909
0.00639644
0.00639105
0.00638848
0.00638318
0.00638068
0.00637545
0.00637301
0.00636785
0.00636547
0.00636036
0.00635804
0.00635299
0.00635072
0.00634574
0.00634353
0.00633861
0.00633648
0.0063316
0.0063296
0.0063247
0.00632289
0.00631794
0.00631638
0.00631134
0.00631003
0.00630495
0.00630382
0.0062988
0.00629772
0.00629289
0.00629174
0.00628718
0.00628595
0.00628159
0.00628033
0.00627618
0.00627495
0.00627046
0.00627
0.0062662
0.00626359
0.00626232
0.00624369
0.00626938
0.00662114
0.00662545
0.00662868
0.00662954
0.00662963
0.00662778
0.00662559
0.00662172
0.00661786
0.00661252
0.00660752
0.00660119
0.00659547
0.00658853
0.00658242
0.00657515
0.00656889
0.0065615
0.00655526
0.00654788
0.00654178
0.0065345
0.0065286
0.00652147
0.00651582
0.00650886
0.00650347
0.00649669
0.00649156
0.00648496
0.0064801
0.00647365
0.00646904
0.00646274
0.00645838
0.0064522
0.00644808
0.00644201
0.00643811
0.00643214
0.00642847
0.00642257
0.00641912
0.00641329
0.00641004
0.00640429
0.00640123
0.00639554
0.00639266
0.00638705
0.00638432
0.00637879
0.0063762
0.00637075
0.00636828
0.00636289
0.00636054
0.00635519
0.00635296
0.00634763
0.00634553
0.00634017
0.00633822
0.0063328
0.00633102
0.00632552
0.00632391
0.00631834
0.00631689
0.00631126
0.00630996
0.00630431
0.00630312
0.00629749
0.0062964
0.0062908
0.0062898
0.00628429
0.00628332
0.00627797
0.00627694
0.00627187
0.00627068
0.00626596
0.00626457
0.00626018
0.0062587
0.00625446
0.00625309
0.00624881
0.00624769
0.00624316
0.00624252
0.00623746
0.00623795
0.00623099
0.00623402
0.00622943
0.00620899
0.0062343
0.00657319
0.00657719
0.00658028
0.00658118
0.00658144
0.00657987
0.00657805
0.00657461
0.00657123
0.00656642
0.00656196
0.00655621
0.00655105
0.00654472
0.00653917
0.00653251
0.0065268
0.00652
0.00651429
0.00650748
0.00650187
0.00649514
0.00648971
0.0064831
0.00647787
0.00647141
0.00646642
0.0064601
0.00645535
0.00644917
0.00644465
0.00643861
0.00643432
0.00642839
0.00642432
0.00641848
0.00641463
0.00640887
0.00640523
0.00639954
0.0063961
0.00639047
0.00638722
0.00638165
0.00637858
0.00637307
0.00637017
0.00636472
0.00636196
0.00635658
0.00635396
0.00634864
0.00634615
0.00634089
0.00633851
0.0063333
0.00633103
0.00632584
0.00632369
0.00631849
0.00631647
0.00631123
0.00630935
0.00630405
0.00630232
0.00629695
0.00629537
0.00628993
0.00628849
0.00628301
0.00628169
0.00627621
0.00627496
0.00626954
0.00626832
0.00626302
0.00626179
0.00625665
0.00625539
0.0062504
0.00624919
0.00624421
0.00624327
0.00623806
0.00623761
0.00623199
0.00623208
0.00622617
0.00622657
0.00622061
0.00622112
0.00621521
0.00621574
0.00621008
0.0062103
0.00620604
0.00620259
0.00620005
0.00619819
0.00619376
0.006534
0.00653778
0.00654076
0.00654164
0.00654203
0.00654062
0.00653906
0.0065359
0.00653287
0.00652842
0.00652436
0.00651903
0.00651432
0.00650842
0.00650334
0.00649712
0.00649188
0.00648552
0.00648026
0.00647389
0.00646871
0.00646241
0.00645737
0.00645118
0.00644632
0.00644026
0.0064356
0.00642967
0.00642522
0.00641941
0.00641516
0.00640946
0.00640541
0.00639979
0.00639595
0.0063904
0.00638675
0.00638126
0.0063778
0.00637235
0.00636907
0.00636366
0.00636056
0.00635518
0.00635225
0.00634692
0.00634413
0.00633885
0.0063362
0.00633097
0.00632843
0.00632328
0.00632082
0.00631574
0.00631336
0.00630834
0.00630603
0.00630105
0.00629883
0.00629385
0.00629173
0.00628673
0.00628472
0.00627968
0.00627777
0.0062727
0.00627089
0.00626582
0.00626406
0.00625904
0.0062573
0.00625237
0.00625063
0.00624584
0.00624404
0.00623945
0.00623756
0.00623321
0.00623121
0.00622709
0.00622505
0.00622102
0.00621918
0.00621494
0.0062136
0.00620888
0.00620822
0.00620298
0.0062029
0.00619731
0.00619759
0.00619185
0.00619232
0.00618662
0.00618667
0.00618223
0.00617993
0.00617371
0.00618776
0.00615469
0.0065019
0.00650541
0.00650828
0.00650914
0.00650963
0.00650838
0.00650707
0.00650418
0.00650149
0.00649738
0.00649373
0.00648878
0.0064845
0.006479
0.00647435
0.00646854
0.00646372
0.00645775
0.0064529
0.00644688
0.00644209
0.0064361
0.00643142
0.0064255
0.00642096
0.00641514
0.00641075
0.00640502
0.00640079
0.00639516
0.00639108
0.00638553
0.00638161
0.00637613
0.00637237
0.00636694
0.00636335
0.00635795
0.00635453
0.00634916
0.00634591
0.00634057
0.00633749
0.00633217
0.00632925
0.00632395
0.00632118
0.00631592
0.00631329
0.00630808
0.00630556
0.00630041
0.00629799
0.00629291
0.00629057
0.00628555
0.00628328
0.00627831
0.0062761
0.00627118
0.00626904
0.00626414
0.00626206
0.00625718
0.00625517
0.00625029
0.00624836
0.00624347
0.00624162
0.00623675
0.00623498
0.00623011
0.00622846
0.00622357
0.00622206
0.00621712
0.00621581
0.00621078
0.0062097
0.0062046
0.00620369
0.00619863
0.00619773
0.00619289
0.00619183
0.00618733
0.00618609
0.00618184
0.00618056
0.00617638
0.00617525
0.00617089
0.00617021
0.00616524
0.00616597
0.00615891
0.0061618
0.00615682
0.00613726
0.00616221
0.00647855
0.00648174
0.0064844
0.00648516
0.00648565
0.00648445
0.00648325
0.00648051
0.00647801
0.00647411
0.00647068
0.00646594
0.00646188
0.00645657
0.00645212
0.00644645
0.00644179
0.0064359
0.00643116
0.00642517
0.00642044
0.00641442
0.00640975
0.00640375
0.00639918
0.00639322
0.00638877
0.00638289
0.00637857
0.00637277
0.00636861
0.00636289
0.00635889
0.00635326
0.00634943
0.00634387
0.00634022
0.00633474
0.00633127
0.00632585
0.00632256
0.00631719
0.00631406
0.00630873
0.00630576
0.00630048
0.00629768
0.00629246
0.0062898
0.00628466
0.00628214
0.00627707
0.00627467
0.00626967
0.00626738
0.00626245
0.00626026
0.00625538
0.00625329
0.00624843
0.00624644
0.0062416
0.00623971
0.00623487
0.00623307
0.00622823
0.00622651
0.00622167
0.00622005
0.00621522
0.00621367
0.00620886
0.0062074
0.00620261
0.00620123
0.00619648
0.00619518
0.00619048
0.00618923
0.00618463
0.00618338
0.00617892
0.00617764