/*--------------------------------*- C++ -*----------------------------------*\
  =========                 |
  \\      /  F ield         | OpenFOAM: The Open Source CFD Toolbox
   \\    /   O peration     | Website:  https://openfoam.org
    \\  /    A nd           | Version:  8
     \\/     M anipulation  |
\*---------------------------------------------------------------------------*/
FoamFile
{
    version     2.0;
    format      ascii;
    class       surfaceScalarField;
    location    "3.4999919616";
    object      phi;
}
// * * * * * * * * * * * * * * * * * * * * * * * * * * * * * * * * * * * * * //

dimensions      [1 0 -1 0 0 0 0];

internalField   nonuniform List<scalar> 
13330
(
0.183436
-0.0726705
-0.110735
0.414771
-0.637602
0.406304
0.621308
-0.877371
0.670843
0.804156
-1.0152
0.832361
0.96683
-1.10005
0.937383
1.1125
-1.15172
1.00606
1.24458
-1.18299
1.05092
1.36639
-1.20177
1.07997
1.48132
-1.21294
1.09801
-1.22019
1.1077
1.59382
0.2408
-0.313482
0.456524
-0.85335
0.644488
-1.06534
0.809707
-1.18041
0.954168
-1.2445
1.08182
-1.27937
1.19654
-1.29771
1.30131
-1.30654
1.3984
-1.31003
-1.31086
1.48907
0.245807
-0.559331
0.459682
-1.06724
0.633595
-1.23926
0.781931
-1.32875
0.908995
-1.37156
1.01998
-1.39034
1.11889
-1.39661
1.20875
-1.3964
1.29178
-1.39306
-1.38838
1.3693
0.238796
-0.798148
0.441187
-1.26966
0.599065
-1.39715
0.730497
-1.46018
0.841099
-1.48216
0.936685
-1.48593
1.02153
-1.48145
1.0988
-1.47367
1.17069
-1.46494
-1.45615
1.23847
0.225064
-1.02324
0.408892
-1.45351
0.548742
-1.537
0.663338
-1.57477
0.758086
-1.5769
0.839568
-1.5674
0.912096
-1.55397
0.978613
-1.54018
1.04097
-1.52729
-1.51532
1.10014
0.206329
-1.22959
0.367854
-1.61504
0.488689
-1.65784
0.586435
-1.67252
0.666074
-1.65654
0.734717
-1.63604
0.796155
-1.61541
0.852863
-1.59689
0.906293
-1.58072
-1.56611
0.957076
0.184272
-1.41386
0.32174
-1.75251
0.423327
-1.75943
0.504255
-1.75345
0.569614
-1.7219
0.626262
-1.69269
0.677209
-1.66636
0.724415
-1.64409
0.768954
-1.62526
-1.6083
0.811149
0.160293
-1.57415
0.272988
-1.8652
0.355645
-1.84209
0.419971
-1.81778
0.471747
-1.77368
0.516826
-1.73777
0.557408
-1.70694
0.594965
-1.68165
0.630308
-1.6606
-1.64151
0.66352
0.135323
-1.70946
0.223466
-1.95333
0.287678
-1.90629
0.335669
-1.86577
0.374377
-1.81239
0.407941
-1.77134
0.437938
-1.73694
0.465477
-1.70919
0.491193
-1.68632
-1.66532
0.515
0.110173
-1.81963
0.174316
-2.01746
0.22055
-1.95252
0.252683
-1.8979
0.278592
-1.8383
0.300409
-1.79316
0.319474
-1.756
0.336569
-1.72629
0.352211
-1.70197
0.366223
-1.67934
-0.0958882
0.0958889
-0.173149
0.0772624
-0.238312
0.0651623
-0.293742
0.0554332
-0.338686
0.0449504
-0.371424
0.032744
-0.390025
0.0186114
-0.393306
0.0032864
-0.381851
-0.0114513
-0.0227569
-0.359094
-0.0817084
0.177595
-0.150146
0.145692
-0.206119
0.121141
-0.251029
0.100353
-0.284322
0.0782598
-0.303832
0.0522766
-0.306454
0.0212578
-0.290667
-0.0124855
-0.258593
-0.0435196
-0.0669024
-0.214452
-0.0627035
0.240304
-0.113406
0.196402
-0.151415
0.159155
-0.175778
0.12473
-0.184781
0.08728
-0.175124
0.0426454
-0.141877
-0.0119627
-0.0886851
-0.0656626
-0.0208487
-0.111354
-0.14475
0.0569945
-0.0404926
0.280816
-0.069389
0.225308
-0.0828628
0.172642
-0.0764431
0.118326
-0.044335
0.0551922
0.0183421
-0.0200023
0.103281
-0.0968774
0.198584
-0.160954
0.300726
-0.213492
-0.25153
0.407497
-0.0193199
0.300154
-0.0238659
0.229873
-0.00453413
0.153327
0.0494399
0.064372
0.14272
-0.0380687
0.260852
-0.13811
0.387367
-0.223374
0.519054
-0.29263
0.653417
-0.34786
-0.388142
0.790029
-0.00180223
0.301962
0.0213967
0.206688
0.0872489
0.0874874
0.204278
-0.0526414
0.351916
-0.185693
0.509244
-0.295419
0.66976
-0.383875
0.830901
-0.453768
0.99004
-0.50699
-0.545147
1.14704
0.0101652
0.291833
0.0694209
0.147455
0.201319
-0.0443962
0.373987
-0.225299
0.556095
-0.36779
0.739049
-0.478358
0.917686
-0.5625
1.08928
-0.625348
1.25363
-0.671347
-0.703928
1.41242
0.0158115
0.276058
0.142383
0.0209318
0.335846
-0.237834
0.537804
-0.427245
0.735352
-0.565328
0.922648
-0.665642
1.09831
-0.738152
1.26331
-0.790341
1.41954
-0.827565
-0.85325
1.56885
0.0514801
0.224614
0.248114
-0.175655
0.464011
-0.453712
0.671412
-0.634633
0.864065
-0.757971
1.04155
-0.843115
1.20543
-0.902028
1.35776
-0.942652
1.50062
-0.970436
-0.988847
1.63622
0.113894
0.344557
0.561694
0.75943
0.938845
1.1018
1.25069
1.38801
1.51559
1.63444
-0.286383
-0.0727137
-0.217199
-0.0691825
-0.153654
-0.0635417
-0.0950787
-0.0585732
-0.0402238
-0.054853
0.0118182
-0.0520412
0.0609462
-0.0491278
0.107245
-0.0462993
0.151297
-0.0440534
0.193457
-0.042161
0.23395
-0.0404955
0.272937
-0.0389904
0.310537
-0.0376024
0.346837
-0.0363037
0.381909
-0.0350759
0.415811
-0.0339048
0.448587
-0.0327796
0.480276
-0.0316925
0.510911
-0.0306388
0.540522
-0.0296148
0.569136
-0.0286173
0.596777
-0.0276439
0.623468
-0.0266937
0.649232
-0.0257666
0.674093
-0.0248636
0.698075
-0.0239852
0.721204
-0.0231319
0.743506
-0.0223043
0.765007
-0.0215034
0.785735
-0.0207307
0.80572
-0.0199867
0.824989
-0.0192713
0.84357
-0.0185834
0.861489
-0.0179216
0.878772
-0.0172847
0.895442
-0.0166719
0.911523
-0.0160827
0.927038
-0.0155169
0.94201
-0.014974
0.956463
-0.0144538
0.970417
-0.0139555
0.983894
-0.0134783
0.996913
-0.0130209
1.00949
-0.0125824
1.02166
-0.0121619
1.03341
-0.0117586
1.04478
-0.0113718
1.05578
-0.0110006
1.06643
-0.0106438
1.07673
-0.0103004
1.0867
-0.00996955
1.09635
-0.00965028
1.10569
-0.00934189
1.11474
-0.00904377
1.12349
-0.00875549
1.13197
-0.00847669
1.14018
-0.0082071
1.14813
-0.00794654
1.15582
-0.00769486
1.16327
-0.00745184
1.17049
-0.00721732
1.17749
-0.00699119
1.18426
-0.00677346
1.19083
-0.00656412
1.19719
-0.00636314
1.20336
-0.0061704
1.20935
-0.00598562
1.21516
-0.00580854
1.2208
-0.00563892
1.22628
-0.00547643
1.2316
-0.00532061
1.23677
-0.00517087
1.2418
-0.00502661
1.24669
-0.00488736
1.25144
-0.00475277
1.25607
-0.00462255
1.26057
-0.00449659
1.26494
-0.00437468
1.2692
-0.0042568
1.27334
-0.00414311
1.27738
-0.00403345
1.28131
-0.00392773
1.28514
-0.00382628
1.28886
-0.00372866
1.2925
-0.00363487
1.29605
-0.00354496
1.29951
-0.00345865
1.30288
-0.003376
1.30618
-0.00329401
1.30939
-0.00321258
1.31252
-0.00313285
1.31558
-0.00305584
1.31856
-0.00298102
1.32147
-0.00290553
1.3243
-0.00282738
1.32704
-0.00274489
1.3297
-0.0026553
1.33225
-0.00255594
1.3347
-0.00244345
-0.00221045
-0.146903
-0.140267
-0.0864558
-0.129624
-0.0306464
-0.119342
0.0217525
-0.110964
0.0708088
-0.103904
0.116902
-0.0981305
0.160936
-0.0931608
0.203313
-0.0886766
0.244037
-0.0847791
0.283224
-0.081352
0.320988
-0.0782652
0.357428
-0.0754359
0.392623
-0.0728043
0.426637
-0.0703255
0.45952
-0.0679678
0.491315
-0.0657075
0.522055
-0.0635286
0.551774
-0.0614199
0.580501
-0.0593737
0.608263
-0.0573842
0.635084
-0.0554458
0.660986
-0.0535542
0.685993
-0.0517071
0.710124
-0.0499053
0.733405
-0.0481508
0.755859
-0.0464454
0.77751
-0.0447897
0.798384
-0.043184
0.818505
-0.0416307
0.837901
-0.0401325
0.856599
-0.0386901
0.874625
-0.0373027
0.892005
-0.0359686
0.908764
-0.0346853
0.924925
-0.0334504
0.940511
-0.0322622
0.955543
-0.0311195
0.970044
-0.0300217
0.984034
-0.0289681
0.997535
-0.0279582
1.01057
-0.0269907
1.02315
-0.0260638
1.0353
-0.0251754
1.04704
-0.0243235
1.05838
-0.0235064
1.06934
-0.022723
1.07994
-0.0219721
1.09019
-0.0212519
1.10011
-0.0205604
1.10971
-0.0198955
1.11899
-0.0192554
1.12798
-0.0186383
1.13668
-0.0180428
1.14511
-0.0174676
1.15326
-0.0169118
1.16116
-0.0163746
1.16881
-0.0158556
1.17622
-0.0153542
1.1834
-0.01487
1.19036
-0.0144027
1.19709
-0.013952
1.20362
-0.0135175
1.20995
-0.013099
1.21609
-0.0126964
1.22204
-0.0123098
1.22781
-0.0119388
1.23341
-0.0115827
1.23884
-0.011241
1.24412
-0.0109136
1.24925
-0.0106
1.25423
-0.0102996
1.25908
-0.010011
1.26379
-0.00973296
1.26837
-0.00946448
1.27282
-0.00920483
1.27716
-0.00895358
1.28137
-0.00871032
1.28548
-0.00847484
1.28947
-0.00824699
1.29336
-0.00802671
1.29714
-0.0078141
1.30082
-0.00760926
1.30441
-0.00741229
1.30791
-0.0072232
1.31132
-0.00704169
1.31464
-0.00686811
1.31789
-0.00670177
1.32105
-0.00654118
1.32415
-0.00638397
1.32716
-0.00622911
1.33011
-0.00607793
1.33299
-0.00593153
1.33579
-0.00578756
1.33853
-0.00564344
1.3412
-0.00549513
1.3438
-0.00533891
1.34631
-0.00516893
1.34873
-0.00497447
1.35103
-0.00474282
-0.00445804
0.104881
-0.188161
0.147025
-0.171762
0.188195
-0.160503
0.228573
-0.151334
0.26779
-0.143113
0.305723
-0.136059
0.342554
-0.129989
0.378433
-0.124555
0.413295
-0.119641
0.447104
-0.115162
0.479868
-0.111033
0.511613
-0.107185
0.542367
-0.103563
0.572152
-0.100116
0.600988
-0.0968102
0.628896
-0.0936217
0.655896
-0.090535
0.682007
-0.0875384
0.707251
-0.0846238
0.731644
-0.0817844
0.755205
-0.0790139
0.777952
-0.0763079
0.799903
-0.0736641
0.821077
-0.0710856
0.841496
-0.0685768
0.861185
-0.0661408
0.880167
-0.0637774
0.898463
-0.0614858
0.916097
-0.05927
0.933092
-0.0571333
0.949473
-0.0550763
0.965263
-0.0530977
0.980485
-0.0511952
0.99516
-0.0493652
1.00931
-0.0476045
1.02295
-0.0459104
1.03611
-0.0442817
1.0488
-0.0427172
1.06105
-0.0412159
1.07286
-0.0397768
1.08427
-0.038398
1.09528
-0.0370769
1.10591
-0.0358105
1.11618
-0.0345955
1.1261
-0.0334298
1.13569
-0.0323123
1.14496
-0.0312415
1.15392
-0.030215
1.16259
-0.0292292
1.17098
-0.0282814
1.17909
-0.0273692
1.18694
-0.0264903
1.19454
-0.0256427
1.2019
-0.024825
1.20902
-0.0240357
1.21593
-0.0232738
1.22261
-0.0225386
1.22909
-0.0218293
1.23536
-0.0211453
1.24145
-0.0204858
1.24735
-0.0198504
1.25307
-0.0192381
1.25863
-0.0186484
1.26401
-0.0180809
1.26924
-0.0175359
1.27432
-0.0170127
1.27925
-0.0165099
1.28404
-0.0160266
1.28869
-0.0155628
1.29321
-0.0151184
1.29761
-0.0146923
1.30188
-0.0142823
1.30604
-0.0138868
1.31008
-0.0135044
1.31402
-0.0131343
1.31784
-0.012776
1.32156
-0.0124291
1.32518
-0.0120934
1.32871
-0.0117687
1.33214
-0.0114548
1.33548
-0.0111519
1.33873
-0.0108601
1.3419
-0.0105798
1.34499
-0.0103112
1.34801
-0.0100543
1.35095
-0.00980767
1.35382
-0.00957143
1.35662
-0.00934368
1.35936
-0.00912163
1.36204
-0.00890502
1.36466
-0.00869373
1.36721
-0.00848877
1.36972
-0.00828709
1.37216
-0.0080857
1.37454
-0.00787894
1.37687
-0.00766156
1.37912
-0.00742491
1.3813
-0.00715333
1.38339
-0.00683213
-0.00646412
0.42736
-0.208025
0.448348
-0.19274
0.472623
-0.184766
0.499112
-0.177813
0.52658
-0.170573
0.554312
-0.163785
0.582001
-0.157674
0.609492
-0.152044
0.636622
-0.146769
0.663258
-0.141799
0.689321
-0.137098
0.714764
-0.13263
0.739557
-0.12836
0.763677
-0.124241
0.787111
-0.120249
0.809852
-0.116368
0.831898
-0.112587
0.853249
-0.108896
0.873909
-0.10529
0.893883
-0.101765
0.91318
-0.0983177
0.931812
-0.0949466
0.949792
-0.0916503
0.967136
-0.0884363
0.983865
-0.0853122
1
-0.0822823
1.01556
-0.0793448
1.03057
-0.0764963
1.04503
-0.0737427
1.05898
-0.0710887
1.07243
-0.0685321
1.0854
-0.0660711
1.09791
-0.0637031
1.10996
-0.0614242
1.12158
-0.0592311
1.13279
-0.0571211
1.1436
-0.0550931
1.15402
-0.0531456
1.16408
-0.0512772
1.17379
-0.049486
1.18315
-0.0477694
1.1922
-0.046124
1.20093
-0.0445457
1.20936
-0.0430302
1.21751
-0.0415758
1.22538
-0.0401815
1.23298
-0.0388458
1.24033
-0.0375654
1.24744
-0.0363351
1.25431
-0.0351522
1.26095
-0.034014
1.26738
-0.0329181
1.2736
-0.0318624
1.27962
-0.0308454
1.28545
-0.0298653
1.2911
-0.0289209
1.29657
-0.028011
1.30188
-0.0271346
1.30702
-0.0262907
1.31202
-0.0254783
1.31687
-0.0246961
1.32157
-0.023943
1.32614
-0.0232174
1.33059
-0.0225192
1.3349
-0.0218491
1.3391
-0.0212054
1.34318
-0.0205855
1.34714
-0.0199882
1.351
-0.0194141
1.35474
-0.0188639
1.35839
-0.0183359
1.36194
-0.0178269
1.36539
-0.0173348
1.36875
-0.0168584
1.37202
-0.0163971
1.37519
-0.0159505
1.37829
-0.0155186
1.3813
-0.0151009
1.38423
-0.0146973
1.38708
-0.0143074
1.38987
-0.0139312
1.39258
-0.013569
1.39522
-0.0132212
1.3978
-0.0128885
1.40032
-0.0125697
1.40278
-0.0122652
1.40518
-0.0119727
1.40753
-0.0116912
1.40983
-0.0114182
1.41208
-0.0111514
1.41428
-0.0108929
1.41644
-0.0106429
1.41855
-0.0103976
1.42062
-0.0101537
1.42264
-0.00990398
1.42462
-0.00964218
1.42656
-0.00935727
1.42843
-0.00903024
1.43024
-0.00864393
-0.00820809
0.788692
-0.206691
0.792629
-0.196669
0.801305
-0.19343
0.813289
-0.189787
0.827515
-0.184792
0.843203
-0.179467
0.85985
-0.174318
0.877145
-0.169336
0.894832
-0.164455
0.912705
-0.159671
0.930603
-0.154996
0.948403
-0.150432
0.966009
-0.145968
0.98334
-0.141575
1.00034
-0.137252
1.01696
-0.132993
1.03317
-0.128798
1.04893
-0.124669
1.06424
-0.120606
1.07909
-0.116612
1.09346
-0.112695
1.10736
-0.10886
1.12082
-0.105107
1.13382
-0.101448
1.1464
-0.0978928
1.15855
-0.0944448
1.1703
-0.0911015
1.18166
-0.0878592
1.19264
-0.0847227
1.20324
-0.081693
1.21347
-0.078767
1.22334
-0.0759455
1.23286
-0.0732285
1.24204
-0.0706128
1.2509
-0.0680954
1.25945
-0.065673
1.2677
-0.0633454
1.27566
-0.0611102
1.28335
-0.0589649
1.29077
-0.0569064
1.29793
-0.0549312
1.30484
-0.0530364
1.31151
-0.0512178
1.31795
-0.0494701
1.32416
-0.0477932
1.33016
-0.0461856
1.33596
-0.0446455
1.34157
-0.0431691
1.34698
-0.0417489
1.35221
-0.0403841
1.35727
-0.0390721
1.36216
-0.0378106
1.3669
-0.0365971
1.37148
-0.0354303
1.37592
-0.0343078
1.38023
-0.0332283
1.38441
-0.0321899
1.38847
-0.0311915
1.39241
-0.0302314
1.39624
-0.0293081
1.39997
-0.0284196
1.40359
-0.0275649
1.40712
-0.0267409
1.41055
-0.0259479
1.41389
-0.0251872
1.41714
-0.0244556
1.42031
-0.0237501
1.42339
-0.0230689
1.4264
-0.0224141
1.42932
-0.0217862
1.43217
-0.021183
1.43495
-0.0205995
1.43765
-0.0200341
1.44028
-0.0194864
1.44284
-0.0189563
1.44534
-0.0184438
1.44777
-0.0179488
1.45014
-0.0174709
1.45246
-0.0170092
1.45472
-0.0165635
1.45692
-0.0161335
1.45908
-0.0157194
1.46118
-0.0153218
1.46323
-0.014941
1.46524
-0.0145764
1.46721
-0.0142271
1.46913
-0.0138916
1.47101
-0.0135691
1.47285
-0.0132562
1.47465
-0.0129519
1.47642
-0.0126594
1.47816
-0.0123786
1.47986
-0.0121051
1.48155
-0.0118355
1.4832
-0.0115603
1.48483
-0.0112735
1.48644
-0.010962
1.48801
-0.0106049
1.48955
-0.0101816
-0.00970435
1.13708
-0.196726
1.13312
-0.192696
1.13266
-0.192959
1.13445
-0.191565
1.13824
-0.188576
1.14375
-0.18497
1.15059
-0.181149
1.15843
-0.17718
1.16706
-0.173074
1.17625
-0.168867
1.18585
-0.164596
1.19571
-0.16029
1.20571
-0.155969
1.21576
-0.151628
1.2258
-0.147288
1.23576
-0.142959
1.2456
-0.138649
1.2553
-0.134371
1.26483
-0.130138
1.27417
-0.125959
1.28332
-0.121847
1.29226
-0.117806
1.30098
-0.113836
1.30949
-0.109962
1.31778
-0.106192
1.32585
-0.102519
1.33369
-0.0989445
1.34129
-0.0954722
1.34867
-0.0921041
1.35581
-0.0888403
1.36272
-0.0856844
1.36941
-0.0826379
1.37588
-0.0797008
1.38213
-0.07687
1.38818
-0.0741437
1.39402
-0.0715194
1.39967
-0.068998
1.40513
-0.0665749
1.41041
-0.064246
1.41551
-0.0620055
1.42043
-0.0598514
1.42517
-0.0577841
1.42975
-0.0558017
1.43418
-0.0538988
1.43846
-0.0520731
1.4426
-0.0503211
1.44659
-0.0486395
1.45045
-0.0470267
1.45417
-0.0454767
1.45778
-0.0439902
1.46127
-0.0425634
1.46465
-0.0411935
1.46793
-0.0398779
1.47112
-0.0386151
1.47421
-0.0374024
1.47722
-0.0362381
1.48015
-0.0351195
1.48301
-0.0340453
1.48579
-0.033013
1.48851
-0.0320209
1.49115
-0.0310663
1.49374
-0.0301488
1.49626
-0.0292635
1.49873
-0.0284103
1.50114
-0.0275904
1.50348
-0.0268011
1.50578
-0.0260415
1.50802
-0.0253094
1.51022
-0.0246057
1.51236
-0.023929
1.51446
-0.023276
1.5165
-0.0226422
1.5185
-0.022028
1.52045
-0.0214343
1.52236
-0.0208612
1.52422
-0.0203085
1.52605
-0.0197759
1.52785
-0.0192625
1.52961
-0.0187667
1.53134
-0.0182882
1.53303
-0.0178267
1.5347
-0.0173806
1.53633
-0.0169515
1.53793
-0.0165395
1.5395
-0.0161421
1.54103
-0.0157584
1.54254
-0.0153919
1.54401
-0.0150379
1.54545
-0.0146929
1.54686
-0.0143595
1.54824
-0.0140433
1.54961
-0.0137452
1.55097
-0.0134593
1.55232
-0.0131817
1.55366
-0.0128996
1.55499
-0.0126098
1.55633
-0.0122969
1.55766
-0.01194
1.55899
-0.011513
-0.0110279
1.39766
-0.181965
1.38917
-0.184201
1.38404
-0.187819
1.38106
-0.188576
1.38003
-0.187535
1.38074
-0.18567
1.38284
-0.183251
1.38604
-0.180376
1.39009
-0.177124
1.3948
-0.173572
1.39999
-0.169787
1.40553
-0.165824
1.4113
-0.161742
1.41723
-0.157559
1.42325
-0.153307
1.4293
-0.149011
1.43534
-0.144693
1.44134
-0.140374
1.44726
-0.136068
1.45309
-0.131793
1.45881
-0.127567
1.4644
-0.123406
1.46987
-0.119308
1.4752
-0.115293
1.48037
-0.111367
1.48538
-0.107531
1.49022
-0.103792
1.4949
-0.100157
1.49942
-0.0966274
1.50378
-0.0932047
1.50799
-0.0898977
1.51205
-0.0867027
1.51596
-0.083619
1.51974
-0.0806487
1.52338
-0.0777895
1.52689
-0.0750364
1.53028
-0.0723894
1.53355
-0.0698438
1.5367
-0.0673971
1.53974
-0.0650438
1.54267
-0.0627858
1.54551
-0.0606239
1.54826
-0.0585532
1.55092
-0.0565648
1.5535
-0.054653
1.556
-0.0528161
1.55841
-0.0510509
1.56074
-0.0493593
1.563
-0.0477361
1.56519
-0.0461797
1.56731
-0.0446872
1.56937
-0.0432557
1.57138
-0.0418832
1.57333
-0.0405687
1.57524
-0.0393084
1.5771
-0.0381011
1.57893
-0.0369419
1.58071
-0.0358293
1.58246
-0.0347598
1.58417
-0.0337329
1.58585
-0.0327461
1.58751
-0.0318004
1.58913
-0.0308885
1.59074
-0.0300098
1.59231
-0.0291657
1.59387
-0.0283532
1.5954
-0.0275725
1.59691
-0.0268171
1.59839
-0.026089
1.59985
-0.0253866
1.60129
-0.0247093
1.6027
-0.0240545
1.6041
-0.0234222
1.60548
-0.022813
1.60685
-0.0222266
1.6082
-0.0216617
1.60955
-0.0211179
1.61088
-0.0205951
1.61221
-0.0200905
1.61353
-0.0196038
1.61484
-0.019135
1.61614
-0.0186787
1.61742
-0.0182362
1.61869
-0.0178094
1.61995
-0.0173918
1.62118
-0.0169856
1.62238
-0.0165953
1.62356
-0.0162138
1.62471
-0.0158456
1.62585
-0.0154913
1.62697
-0.0151639
1.62809
-0.0148611
1.62921
-0.0145769
1.63034
-0.0143083
1.63147
-0.0140354
1.63263
-0.0137674
1.63382
-0.0134813
1.63504
-0.01316
1.63629
-0.0127689
-0.012317
1.54952
-0.162622
1.53613
-0.170806
1.52662
-0.178293
1.51986
-0.181804
1.51545
-0.183112
1.51308
-0.1833
1.51246
-0.182618
1.51326
-0.181173
1.51523
-0.179092
1.51816
-0.176493
1.52185
-0.173475
1.52615
-0.170125
1.53093
-0.166522
1.53608
-0.162708
1.5415
-0.158727
1.5471
-0.154616
1.55281
-0.150412
1.55859
-0.146149
1.56437
-0.141852
1.57011
-0.137546
1.5758
-0.133256
1.58139
-0.129007
1.58687
-0.124789
1.5922
-0.120625
1.59736
-0.116535
1.60235
-0.112529
1.60717
-0.108609
1.61178
-0.10478
1.6162
-0.101052
1.62042
-0.0974281
1.62444
-0.093914
1.62824
-0.0905105
1.63184
-0.0872215
1.63523
-0.084049
1.63843
-0.0809914
1.64144
-0.0780432
1.64425
-0.0752059
1.64688
-0.0724765
1.64934
-0.0698562
1.65163
-0.0673423
1.65378
-0.064936
1.65579
-0.0626337
1.65766
-0.0604288
1.65941
-0.058315
1.66104
-0.0562873
1.66257
-0.0543456
1.66401
-0.0524882
1.66536
-0.0507168
1.66665
-0.0490227
1.66787
-0.0474009
1.66904
-0.0458504
1.67015
-0.0443697
1.67122
-0.0429555
1.67226
-0.0416046
1.67327
-0.0403141
1.67425
-0.0390824
1.67521
-0.0379044
1.67617
-0.03678
1.67711
-0.0357046
1.67806
-0.034677
1.67901
-0.0336918
1.67996
-0.0327492
1.68091
-0.0318411
1.68187
-0.0309678
1.68284
-0.0301295
1.68381
-0.029321
1.68478
-0.0285417
1.68574
-0.0277833
1.68671
-0.0270517
1.68767
-0.026347
1.68863
-0.0256706
1.6896
-0.0250194
1.69057
-0.0243924
1.69155
-0.0237893
1.69254
-0.0232102
1.69353
-0.0226523
1.69453
-0.0221157
1.69554
-0.021602
1.69655
-0.0211065
1.69758
-0.0206279
1.69862
-0.0201709
1.69967
-0.0197258
1.70072
-0.0192936
1.7018
-0.0188786
1.70288
-0.0184725
1.70398
-0.0180828
1.70509
-0.0177109
1.70623
-0.0173485
1.70739
-0.0170029
1.70855
-0.0166514
1.7097
-0.0163074
1.71084
-0.0159933
1.71197
-0.0157109
1.71311
-0.0154402
1.71425
-0.0151788
1.71544
-0.0149538
1.71668
-0.0147189
1.71799
-0.0144665
1.71937
-0.0141498
-0.0137758
1.61458
-0.140971
1.59813
-0.154351
1.5855
-0.165662
1.57612
-0.172412
1.56943
-0.176421
1.56496
-0.17882
1.56233
-0.179984
1.56125
-0.180093
1.56148
-0.17932
1.56282
-0.177824
1.56508
-0.175737
1.56813
-0.173171
1.57183
-0.170218
1.57607
-0.166948
1.58076
-0.163418
1.58583
-0.159682
1.5912
-0.155786
1.59682
-0.151772
1.60264
-0.147671
1.60861
-0.143515
1.61468
-0.13933
1.62081
-0.135143
1.62698
-0.130962
1.63316
-0.126807
1.63932
-0.1227
1.64544
-0.118651
1.65149
-0.114667
1.65746
-0.110758
1.66334
-0.106933
1.66911
-0.103195
1.67474
-0.099555
1.68024
-0.0960139
1.6856
-0.0925759
1.69079
-0.0892457
1.69582
-0.0860233
1.70068
-0.0829042
1.70536
-0.0798882
1.70986
-0.0769761
1.71417
-0.0741709
1.71829
-0.0714642
1.72221
-0.068855
1.72592
-0.0663448
1.72942
-0.063931
1.73271
-0.0616115
1.73581
-0.0593836
1.73871
-0.0572475
1.74142
-0.055202
1.74395
-0.0532455
1.7463
-0.051372
1.74848
-0.0495797
1.75049
-0.0478664
1.75236
-0.0462314
1.75407
-0.0446698
1.75565
-0.0431794
1.75709
-0.0417588
1.75842
-0.0404057
1.75963
-0.0391169
1.76075
-0.0378939
1.76177
-0.0367318
1.76273
-0.035629
1.76362
-0.0345806
1.76446
-0.0335866
1.76526
-0.0326394
1.76603
-0.0317378
1.76678
-0.0308797
1.76752
-0.0300602
1.76826
-0.0292778
1.769
-0.0285251
1.76976
-0.0278053
1.77053
-0.0271168
1.77132
-0.0264592
1.77213
-0.0258286
1.77296
-0.025224
1.77381
-0.0246432
1.77469
-0.0240873
1.77559
-0.0235531
1.77652
-0.0230405
1.77747
-0.02255
1.77844
-0.0220792
1.77944
-0.0216257
1.78046
-0.0211945
1.78152
-0.0207791
1.78261
-0.0203827
1.78374
-0.0200091
1.78492
-0.01965
1.78615
-0.0193125
1.78744
-0.0189994
1.78879
-0.0186985
1.7902
-0.0184152
1.79168
-0.0181272
1.79321
-0.0178399
1.79477
-0.0175482
1.79632
-0.0172583
1.79787
-0.0169901
1.79942
-0.0167321
1.80097
-0.016501
1.80255
-0.0162947
1.8042
-0.0161193
1.80596
-0.0159025
-0.0156616
1.61174
-0.118265
1.59319
-0.135792
1.57763
-0.150089
1.56559
-0.160368
1.55667
-0.167494
1.55028
-0.172417
1.54597
-0.17567
1.54343
-0.177544
1.54238
-0.178265
1.54259
-0.178033
1.54388
-0.17702
1.54608
-0.175368
1.54905
-0.173192
1.55269
-0.170586
1.55691
-0.167628
1.56161
-0.164382
1.56672
-0.160906
1.5722
-0.157246
1.57797
-0.153446
1.58399
-0.149542
1.59023
-0.145566
1.59663
-0.141547
1.60317
-0.137504
1.60981
-0.133459
1.61654
-0.12943
1.62332
-0.125435
1.63013
-0.121485
1.63696
-0.117591
1.64379
-0.113766
1.65061
-0.110012
1.65739
-0.106341
1.66413
-0.102757
1.67082
-0.0992676
1.67744
-0.0958753
1.684
-0.0925813
1.69047
-0.0893845
1.69687
-0.0862857
1.70318
-0.083286
1.70939
-0.0803855
1.7155
-0.0775783
1.72151
-0.0748641
1.7274
-0.0722445
1.73319
-0.0697169
1.73886
-0.0672813
1.74441
-0.0649354
1.74983
-0.0626769
1.75514
-0.0605048
1.76031
-0.0584182
1.76535
-0.0564124
1.77025
-0.0544858
1.77502
-0.0526359
1.77965
-0.0508597
1.78414
-0.0491549
1.78848
-0.0475212
1.79267
-0.0459523
1.79672
-0.044448
1.80061
-0.0430058
1.80434
-0.0416216
1.8079
-0.0402945
1.8113
-0.0390254
1.81453
-0.03781
1.8176
-0.0366505
1.8205
-0.0355406
1.82324
-0.0344811
1.82584
-0.0334718
1.82829
-0.0325098
1.83061
-0.0315976
1.83281
-0.0307293
1.83492
-0.0299084
1.83693
-0.0291319
1.83887
-0.0283977
1.84075
-0.0277026
1.84257
-0.0270435
1.84434
-0.0264177
1.84608
-0.0258253
1.84779
-0.0252633
1.84948
-0.0247299
1.85116
-0.0242272
1.85283
-0.0237507
1.85451
-0.0232964
1.85618
-0.0228718
1.85787
-0.0224692
1.85958
-0.02209
1.86131
-0.0217369
1.86307
-0.0214043
1.86485
-0.0211004
1.86668
-0.02082
1.86853
-0.0205524
1.87043
-0.0203111
1.87238
-0.0200804
1.87441
-0.0198669
1.87653
-0.0196669
1.87875
-0.0194742
1.88103
-0.0192728
1.88336
-0.019057
1.8857
-0.0188455
1.88804
-0.0186322
1.89039
-0.0184682
1.89283
-0.0183387
-0.0182915
1.99439
-0.100069
-2.01259
1.97478
-0.116173
1.95589
-0.1312
1.93831
-0.142789
1.92228
-0.151458
1.9078
-0.157936
1.89481
-0.162672
1.8832
-0.165938
1.87289
-0.167952
1.86377
-0.168907
1.85573
-0.168977
1.84867
-0.168307
1.8425
-0.16702
1.83713
-0.165216
1.83248
-0.162981
1.82849
-0.160388
1.82508
-0.1575
1.82221
-0.154371
1.81981
-0.151049
1.81784
-0.147575
1.81626
-0.143985
1.81502
-0.140311
1.81409
-0.136577
1.81344
-0.132809
1.81304
-0.129027
1.81285
-0.12525
1.81286
-0.121493
1.81303
-0.117771
1.81336
-0.114094
1.81381
-0.110471
1.81438
-0.106912
1.81505
-0.103425
1.8158
-0.100016
1.81661
-0.0966908
1.81748
-0.0934509
1.81839
-0.0902982
1.81934
-0.0872344
1.82031
-0.0842604
1.8213
-0.0813763
1.8223
-0.0785802
1.82331
-0.0758718
1.82431
-0.0732521
1.82531
-0.0707197
1.82631
-0.0682744
1.82728
-0.0659145
1.82824
-0.0636382
1.82918
-0.061445
1.8301
-0.0593338
1.83099
-0.0573009
1.83185
-0.0553447
1.83267
-0.0534624
1.83346
-0.0516516
1.83422
-0.0499103
1.83494
-0.0482371
1.83561
-0.046628
1.83625
-0.0450808
1.83684
-0.0435934
1.83738
-0.0421625
1.83787
-0.0407862
1.83831
-0.0394636
1.83869
-0.0381922
1.83902
-0.036972
1.83928
-0.0357984
1.83947
-0.0346718
1.83959
-0.033591
1.83963
-0.0325551
1.8396
-0.0315658
1.83949
-0.0306198
1.8393
-0.0297192
1.83903
-0.028862
1.83868
-0.0280463
1.83825
-0.02727
1.83774
-0.0265295
1.83714
-0.0258237
1.83647
-0.0251531
1.83572
-0.0245139
1.8349
-0.0239056
1.834
-0.0233297
1.83303
-0.0227825
1.832
-0.0222597
1.8309
-0.0217688
1.82973
-0.0213043
1.82851
-0.020864
1.82722
-0.0204515
1.82588
-0.0200643
1.82449
-0.0197092
1.82305
-0.019382
1.82157
-0.0190746
1.82006
-0.0187973
1.81851
-0.0185295
1.81693
-0.0182857
1.81535
-0.018086
1.81379
-0.0179206
1.81228
-0.0177598
1.81083
-0.0176069
1.80946
-0.0174729
1.80818
-0.0173466
1.80697
-0.0172585
1.80584
-0.0172078
-0.0173202
2.01334
-0.0820531
-2.03135
1.99581
-0.098647
1.97867
-0.114057
1.96266
-0.126772
1.94795
-0.136745
1.93452
-0.144497
1.92229
-0.150446
1.91122
-0.154862
1.90123
-0.157957
1.89225
-0.159923
1.8842
-0.160931
1.87703
-0.161129
1.87065
-0.160639
1.865
-0.159569
1.86003
-0.158006
1.85567
-0.156029
1.85187
-0.153704
1.84859
-0.151089
1.84577
-0.148234
1.84338
-0.145186
1.84138
-0.141982
1.83972
-0.138657
1.83838
-0.13524
1.83733
-0.131757
1.83653
-0.128232
1.83596
-0.124685
1.8356
-0.121134
1.83542
-0.117594
1.8354
-0.11408
1.83553
-0.110601
1.83578
-0.107169
1.83615
-0.103792
1.83661
-0.100478
1.83715
-0.097234
1.83776
-0.0940626
1.83843
-0.0909678
1.83914
-0.0879522
1.8399
-0.0850172
1.84068
-0.0821636
1.84149
-0.0793919
1.84232
-0.0767026
1.84316
-0.0740964
1.84401
-0.0715724
1.84487
-0.0691304
1.84572
-0.0667702
1.84657
-0.0644904
1.84742
-0.0622902
1.84825
-0.0601688
1.84907
-0.0581236
1.84988
-0.0561532
1.85067
-0.0542549
1.85145
-0.0524262
1.8522
-0.0506658
1.85294
-0.0489719
1.85365
-0.0473417
1.85435
-0.0457729
1.85502
-0.0442634
1.85567
-0.0428106
1.85629
-0.0414125
1.8569
-0.0400678
1.85748
-0.0387744
1.85804
-0.0375312
1.85858
-0.0363355
1.8591
-0.0351865
1.85959
-0.0340833
1.86006
-0.0330247
1.86051
-0.0320112
1.86093
-0.0310409
1.86133
-0.0301141
1.86169
-0.0292294
1.86203
-0.0283848
1.86234
-0.0275787
1.86262
-0.0268086
1.86287
-0.026073
1.86309
-0.0253711
1.86328
-0.0247013
1.86344
-0.0240627
1.86356
-0.023454
1.86365
-0.022873
1.86371
-0.0223177
1.86374
-0.0217914
1.86372
-0.0212909
1.86367
-0.0208141
1.86359
-0.0203628
1.86346
-0.019937
1.86329
-0.0195396
1.86308
-0.0191679
1.86282
-0.018817
1.86251
-0.0184893
1.86216
-0.0181797
1.86177
-0.0178957
1.86132
-0.0176351
1.8608
-0.0174004
1.86024
-0.0172055
1.85967
-0.017034
1.85909
-0.0168882
1.85853
-0.0167908
1.85802
-0.0167489
1.85755
-0.0167361
-0.0168449
2.02453
-0.0646225
-2.04196
2.00816
-0.0822765
1.9923
-0.0982019
1.97729
-0.111761
1.96333
-0.122784
1.95045
-0.131611
1.93861
-0.138613
1.9278
-0.144051
1.91798
-0.14813
1.90909
-0.151031
1.90108
-0.15292
1.89389
-0.153939
1.88746
-0.154212
1.88174
-0.153847
1.87667
-0.152935
1.8722
-0.151555
1.86827
-0.149779
1.86485
-0.147666
1.86188
-0.14527
1.85934
-0.14264
1.85717
-0.139817
1.85535
-0.136837
1.85385
-0.133733
1.85262
-0.130534
1.85165
-0.127265
1.85092
-0.123948
1.85038
-0.120604
1.85004
-0.117249
1.84985
-0.113899
1.84982
-0.110566
1.84991
-0.107263
1.85012
-0.104
1.85042
-0.100785
1.85081
-0.097626
1.85128
-0.0945283
1.85181
-0.0914959
1.85238
-0.0885321
1.85301
-0.0856406
1.85367
-0.0828232
1.85435
-0.0800808
1.85507
-0.0774153
1.8558
-0.0748273
1.85654
-0.0723164
1.85729
-0.069883
1.85805
-0.0675272
1.8588
-0.0652487
1.85956
-0.063046
1.86031
-0.0609186
1.86105
-0.0588654
1.86178
-0.0568843
1.8625
-0.0549741
1.86321
-0.0531328
1.8639
-0.0513589
1.86458
-0.04965
1.86524
-0.0480039
1.86589
-0.0464187
1.86652
-0.0448924
1.86713
-0.0434228
1.86773
-0.0420081
1.86831
-0.0406467
1.86887
-0.039337
1.86942
-0.0380775
1.86995
-0.0368663
1.87046
-0.0357023
1.87097
-0.0345844
1.87145
-0.0335116
1.87193
-0.0324835
1.87238
-0.0314988
1.87283
-0.0305571
1.87326
-0.0296571
1.87367
-0.0287972
1.87407
-0.0279757
1.87445
-0.0271908
1.87482
-0.0264411
1.87517
-0.0257253
1.87551
-0.0250421
1.87584
-0.0243904
1.87616
-0.0237688
1.87646
-0.0231758
1.87675
-0.0226101
1.87703
-0.0220726
1.87731
-0.0215615
1.87757
-0.0210755
1.87782
-0.0206151
1.87806
-0.0201807
1.8783
-0.0197732
1.87852
-0.0193907
1.87873
-0.0190302
1.87894
-0.0186922
1.87913
-0.0183749
1.87932
-0.018082
1.87949
-0.0178133
1.87967
-0.0175713
1.87982
-0.0173636
1.87997
-0.0171851
1.88012
-0.0170365
1.88026
-0.0169281
1.88038
-0.0168686
1.88049
-0.0168465
-0.0168836
2.0296
-0.0480986
-2.04613
2.01417
-0.066843
1.99938
-0.0834156
1.98533
-0.0977043
1.97217
-0.109628
1.95998
-0.119415
1.94874
-0.12737
1.93843
-0.133738
1.92901
-0.138714
1.92046
-0.142473
1.91271
-0.145172
1.90573
-0.146952
1.89945
-0.147935
1.89383
-0.14823
1.88883
-0.147928
1.88438
-0.147113
1.88046
-0.145856
1.87702
-0.144221
1.87401
-0.142265
1.87141
-0.140036
1.86917
-0.137579
1.86726
-0.134934
1.86566
-0.132134
1.86434
-0.129211
1.86326
-0.126191
1.86241
-0.1231
1.86176
-0.119959
1.8613
-0.116786
1.861
-0.113599
1.86084
-0.110412
1.86081
-0.107238
1.8609
-0.104089
1.86109
-0.100974
1.86136
-0.0979015
1.86171
-0.0948786
1.86212
-0.0919107
1.86259
-0.0890022
1.86311
-0.0861572
1.86366
-0.0833789
1.86425
-0.0806693
1.86486
-0.0780292
1.86549
-0.0754605
1.86614
-0.0729657
1.8668
-0.0705447
1.86747
-0.0681958
1.86814
-0.0659193
1.86881
-0.0637165
1.86947
-0.0615876
1.87014
-0.0595298
1.8708
-0.0575424
1.87145
-0.0556241
1.87208
-0.0537725
1.87271
-0.051987
1.87333
-0.0502656
1.87393
-0.0486063
1.87452
-0.0470073
1.8751
-0.0454669
1.87566
-0.043983
1.8762
-0.042554
1.87674
-0.0411785
1.87726
-0.0398547
1.87776
-0.0385813
1.87825
-0.0373567
1.87873
-0.0361797
1.8792
-0.0350492
1.87965
-0.033964
1.88009
-0.0329236
1.88052
-0.0319268
1.88093
-0.0309727
1.88134
-0.0300602
1.88173
-0.0291879
1.88211
-0.0283541
1.88248