/*--------------------------------*- C++ -*----------------------------------*\
  =========                 |
  \\      /  F ield         | OpenFOAM: The Open Source CFD Toolbox
   \\    /   O peration     | Website:  https://openfoam.org
    \\  /    A nd           | Version:  8
     \\/     M anipulation  |
\*---------------------------------------------------------------------------*/
FoamFile
{
    version     2.0;
    format      ascii;
    class       volScalarField;
    location    "3.4999919616";
    object      rho;
}
// * * * * * * * * * * * * * * * * * * * * * * * * * * * * * * * * * * * * * //

dimensions      [1 -3 0 0 0 0 0];

internalField   nonuniform List<scalar> 
6800
(
0.590166
0.590279
0.590348
0.590444
0.590611
0.590812
0.59096
0.591075
0.591155
0.591201
0.590056
0.590225
0.590295
0.59049
0.590731
0.590882
0.590994
0.591082
0.591158
0.591228
0.58964
0.590075
0.590256
0.590541
0.590725
0.590864
0.590981
0.591077
0.591164
0.591231
0.589096
0.589893
0.590194
0.590448
0.590664
0.590824
0.590944
0.591037
0.591123
0.591198
0.588519
0.589689
0.589983
0.590337
0.590576
0.590734
0.590861
0.590971
0.591075
0.591168
0.587905
0.589411
0.589779
0.590183
0.590437
0.590627
0.590777
0.59091
0.591028
0.591131
0.587338
0.589156
0.589525
0.590014
0.590304
0.59052
0.590688
0.590841
0.590978
0.591097
0.586826
0.588886
0.589312
0.589861
0.590177
0.590413
0.590616
0.590793
0.590944
0.591073
0.586432
0.588685
0.589115
0.589739
0.590062
0.590341
0.590566
0.590759
0.590922
0.591062
0.586152
0.588514
0.589005
0.589648
0.589994
0.5903
0.590544
0.590751
0.590923
0.59107
0.590479
0.590374
0.590321
0.590319
0.590336
0.590368
0.590414
0.590471
0.59054
0.590618
0.590445
0.590353
0.590306
0.590303
0.590321
0.590353
0.5904
0.59046
0.590534
0.59062
0.590377
0.59031
0.590276
0.590277
0.590296
0.590331
0.590383
0.590451
0.590537
0.590636
0.590296
0.590259
0.590244
0.590252
0.590277
0.590318
0.59038
0.590467
0.590569
0.59068
0.590217
0.590219
0.590223
0.590245
0.590281
0.590339
0.590421
0.590513
0.59062
0.590733
0.590159
0.590192
0.590227
0.590274
0.590337
0.590415
0.590496
0.590578
0.590683
0.590781
0.590115
0.590191
0.590271
0.59036
0.590445
0.590507
0.590572
0.590646
0.590741
0.590836
0.590096
0.59023
0.590354
0.59047
0.590517
0.590561
0.59062
0.590704
0.590801
0.590946
0.590069
0.590239
0.590441
0.590496
0.590532
0.590588
0.590679
0.590815
0.590947
0.591116
0.590077
0.59026
0.590415
0.590469
0.590537
0.590658
0.590828
0.590974
0.591116
0.591224
0.590715
0.590817
0.590902
0.590974
0.591037
0.591093
0.591144
0.591191
0.591233
0.59127
0.591305
0.591336
0.591364
0.59139
0.591413
0.591434
0.591455
0.591473
0.591489
0.591504
0.591517
0.591529
0.591539
0.591548
0.591557
0.591564
0.59157
0.591576
0.591581
0.591585
0.591588
0.591591
0.591594
0.591596
0.591599
0.591601
0.591603
0.591605
0.591607
0.59161
0.591613
0.591617
0.591622
0.591627
0.591633
0.591639
0.591646
0.591654
0.591661
0.59167
0.591678
0.591687
0.591695
0.591704
0.591712
0.59172
0.591728
0.591735
0.591742
0.591749
0.591755
0.591761
0.591766
0.591771
0.591776
0.591779
0.591783
0.591786
0.591788
0.59179
0.591791
0.591792
0.591792
0.591793
0.591793
0.591792
0.591792
0.591792
0.591791
0.591791
0.591791
0.59179
0.59179
0.59179
0.59179
0.591791
0.591791
0.591791
0.591793
0.591793
0.591792
0.59179
0.59179
0.591791
0.591794
0.591797
0.591801
0.591804
0.59181
0.591813
0.590714
0.59082
0.590904
0.590976
0.591039
0.591095
0.591146
0.591192
0.591233
0.59127
0.591304
0.591334
0.591362
0.591388
0.591411
0.591432
0.591453
0.591471
0.591487
0.591501
0.591515
0.591526
0.591537
0.591546
0.591554
0.591562
0.591568
0.591574
0.591579
0.591583
0.591587
0.59159
0.591593
0.591596
0.591598
0.5916
0.591603
0.591605
0.591608
0.591611
0.591615
0.591619
0.591624
0.591629
0.591635
0.591642
0.591649
0.591656
0.591664
0.591672
0.59168
0.591689
0.591697
0.591705
0.591713
0.591721
0.591728
0.591735
0.591742
0.591749
0.591755
0.59176
0.591765
0.59177
0.591774
0.591778
0.591781
0.591784
0.591786
0.591787
0.591789
0.591789
0.59179
0.59179
0.59179
0.59179
0.59179
0.591789
0.591789
0.591789
0.591789
0.591788
0.591788
0.591788
0.591788
0.591788
0.591789
0.591789
0.59179
0.59179
0.591788
0.591787
0.591788
0.59179
0.591792
0.591796
0.5918
0.591803
0.591809
0.591812
0.590724
0.590826
0.59091
0.590981
0.591044
0.591099
0.591149
0.591194
0.591234
0.591271
0.591305
0.591335
0.591362
0.591388
0.591412
0.591434
0.591454
0.591471
0.591488
0.591502
0.591515
0.591527
0.591538
0.591547
0.591555
0.591563
0.59157
0.591575
0.59158
0.591585
0.591589
0.591592
0.591595
0.591598
0.591601
0.591604
0.591607
0.59161
0.591613
0.591617
0.591621
0.591625
0.59163
0.591636
0.591641
0.591648
0.591655
0.591662
0.591669
0.591677
0.591684
0.591692
0.5917
0.591707
0.591714
0.591722
0.591728
0.591735
0.591741
0.591747
0.591753
0.591758
0.591763
0.591767
0.591771
0.591774
0.591777
0.59178
0.591782
0.591783
0.591785
0.591785
0.591786
0.591786
0.591786
0.591786
0.591786
0.591786
0.591785
0.591785
0.591786
0.591786
0.591786
0.591786
0.591785
0.591787
0.591787
0.591787
0.591786
0.591784
0.591783
0.591783
0.591785
0.591787
0.59179
0.591793
0.591798
0.591801
0.591807
0.59181
0.590741
0.590831
0.590913
0.590983
0.591045
0.5911
0.59115
0.591195
0.591236
0.591273
0.591307
0.591338
0.591366
0.591394
0.591419
0.591441
0.591463
0.59148
0.591497
0.591512
0.591525
0.591537
0.591547
0.591557
0.591565
0.591573
0.59158
0.591586
0.591591
0.591595
0.591599
0.591603
0.591606
0.591609
0.591612
0.591616
0.591619
0.591622
0.591626
0.591629
0.591634
0.591638
0.591643
0.591648
0.591654
0.59166
0.591666
0.591672
0.591679
0.591685
0.591692
0.591699
0.591705
0.591712
0.591718
0.591724
0.59173
0.591736
0.591742
0.591747
0.591752
0.591757
0.591761
0.591765
0.591768
0.591772
0.591774
0.591777
0.591779
0.59178
0.591781
0.591782
0.591782
0.591782
0.591783
0.591783
0.591783
0.591783
0.591783
0.591783
0.591783
0.591784
0.591784
0.591784
0.591784
0.591784
0.591785
0.591783
0.591783
0.591781
0.59178
0.591781
0.591782
0.591785
0.591788
0.591791
0.591795
0.591799
0.591804
0.591807
0.590754
0.590831
0.590915
0.590987
0.591049
0.591105
0.591156
0.591203
0.591245
0.591285
0.59132
0.591355
0.591387
0.591416
0.591441
0.591467
0.591488
0.591506
0.591523
0.591539
0.591555
0.591565
0.591575
0.591584
0.591593
0.591601
0.591608
0.591613
0.591618
0.591622
0.591626
0.59163
0.591633
0.591636
0.591639
0.591642
0.591646
0.591649
0.591652
0.591656
0.59166
0.591664
0.591668
0.591673
0.591678
0.591683
0.591688
0.591693
0.591698
0.591704
0.591709
0.591714
0.591719
0.591725
0.59173
0.591735
0.591739
0.591744
0.591749
0.591753
0.591757
0.591761
0.591765
0.591768
0.591771
0.591774
0.591776
0.591778
0.591779
0.59178
0.591781
0.591782
0.591782
0.591782
0.591782
0.591783
0.591783
0.591783
0.591783
0.591783
0.591784
0.591784
0.591785
0.591785
0.591785
0.591786
0.591785
0.591784
0.591783
0.59178
0.59178
0.591781
0.591783
0.591785
0.591788
0.591792
0.591795
0.591799
0.591803
0.591806
0.590774
0.590849
0.590943
0.591024
0.591088
0.591147
0.591201
0.591252
0.591298
0.59134
0.591378
0.591413
0.591447
0.591478
0.591505
0.59153
0.591552
0.59157
0.591587
0.591603
0.591617
0.591632
0.591642
0.591648
0.591657
0.591666
0.591672
0.591674
0.591677
0.59168
0.591683
0.591686
0.591688
0.591691
0.591693
0.591695
0.591697
0.5917
0.591702
0.591705
0.591707
0.59171
0.591713
0.591716
0.591719
0.591722
0.591726
0.591729
0.591732
0.591736
0.591739
0.591743
0.591746
0.59175
0.591753
0.591757
0.59176
0.591763
0.591767
0.59177
0.591773
0.591776
0.591778
0.591781
0.591783
0.591785
0.591786
0.591787
0.591788
0.591789
0.591789
0.59179
0.59179
0.59179
0.59179
0.59179
0.59179
0.59179
0.59179
0.59179
0.59179
0.591791
0.591791
0.591791
0.591791
0.591792
0.591789
0.591789
0.591787
0.591786
0.591786
0.591787
0.591789
0.591791
0.591794
0.591796
0.5918
0.591802
0.591806
0.591808
0.590812
0.590895
0.591005
0.591096
0.591171
0.591238
0.5913
0.591358
0.59141
0.591458
0.5915
0.59154
0.591575
0.591606
0.591634
0.591658
0.591679
0.591699
0.591715
0.591729
0.591741
0.591752
0.591761
0.591769
0.591775
0.59178
0.591783
0.591786
0.591788
0.59179
0.59179
0.591791
0.591791
0.59179
0.59179
0.59179
0.59179
0.59179
0.59179
0.59179
0.59179
0.59179
0.59179
0.59179
0.59179
0.59179
0.59179
0.591791
0.591792
0.591793
0.591794
0.591795
0.591796
0.591798
0.591799
0.591801
0.591802
0.591803
0.591805
0.591806
0.591807
0.591809
0.59181
0.59181
0.591811
0.591812
0.591812
0.591812
0.591812
0.591811
0.591811
0.59181
0.59181
0.591809
0.591809
0.591808
0.591808
0.591807
0.591807
0.591807
0.591807
0.591807
0.591807
0.591806
0.591806
0.591804
0.591803
0.591802
0.591802
0.591802
0.591802
0.591803
0.591805
0.591806
0.591808
0.59181
0.591813
0.591814
0.591817
0.591819
0.590922
0.590999
0.591113
0.591213
0.591297
0.59137
0.591437
0.591499
0.591555
0.591606
0.591652
0.591694
0.591731
0.591764
0.591795
0.591821
0.591843
0.591863
0.59188
0.591894
0.591907
0.591917
0.591926
0.591933
0.591939
0.591943
0.591947
0.591949
0.59195
0.59195
0.591949
0.591948
0.591946
0.591944
0.591941
0.591938
0.591935
0.591931
0.591927
0.591924
0.59192
0.591915
0.591911
0.591907
0.591902
0.591898
0.591893
0.591889
0.591888
0.591886
0.591884
0.591881
0.59188
0.591878
0.591877
0.591876
0.591875
0.591873
0.591872
0.591871
0.591869
0.591868
0.591867
0.591865
0.591864
0.591862
0.59186
0.591859
0.591857
0.591856
0.591854
0.591852
0.591851
0.59185
0.591848
0.591847
0.591845
0.591844
0.591843
0.591842
0.59184
0.59184
0.591839
0.591838
0.591836
0.591835
0.591833
0.591833
0.591833
0.591833
0.591833
0.591833
0.591834
0.591834
0.591835
0.591836
0.591837
0.591838
0.591839
0.591839
0.591093
0.591156
0.591257
0.591352
0.591434
0.591506
0.591571
0.591631
0.591685
0.591734
0.591778
0.591818
0.591853
0.591886
0.591914
0.59194
0.591962
0.591983
0.592
0.592016
0.592031
0.592042
0.592052
0.592062
0.59207
0.592077
0.592082
0.592087
0.59209
0.592092
0.592094
0.592095
0.592096
0.592096
0.592095
0.592093
0.592092
0.592088
0.592086
0.592083
0.59208
0.592077
0.592073
0.592067
0.59206
0.592055
0.592049
0.592046
0.592042
0.592037
0.592032
0.592026
0.59202
0.592014
0.592008
0.592003
0.591997
0.591992
0.591986
0.59198
0.591975
0.591969
0.591964
0.591959
0.591953
0.591948
0.591943
0.591939
0.591934
0.59193
0.591926
0.591923
0.591919
0.591916
0.591913
0.59191
0.591907
0.591904
0.591901
0.591898
0.591895
0.591892
0.59189
0.591888
0.591885
0.591884
0.591882
0.591881
0.59188
0.59188
0.591879
0.59188
0.59188
0.59188
0.59188
0.59188
0.59188
0.59188
0.591879
0.591878
0.59122
0.591276
0.591358
0.591441
0.591517
0.591585
0.591647
0.591704
0.591756
0.591803
0.591846
0.591884
0.591919
0.59195
0.591978
0.592003
0.592025
0.592045
0.592062
0.592077
0.592091
0.592103
0.592113
0.592123
0.592131
0.592139
0.592146
0.592151
0.592155
0.59216
0.592163
0.592164
0.592166
0.592167
0.592168
0.592169
0.592169
0.592169
0.592168
0.592168
0.592167
0.592166
0.592164
0.592162
0.59216
0.592157
0.592155
0.592152
0.592149
0.592146
0.592143
0.59214
0.592135
0.592132
0.59213
0.592125
0.592123
0.59212
0.592116
0.592112
0.592107
0.592102
0.592096
0.59209
0.592084
0.592077
0.59207
0.592063
0.592056
0.592049
0.592043
0.592037
0.59203
0.592025
0.592019
0.592013
0.592007
0.592001
0.591996
0.59199
0.591985
0.591981
0.591976
0.591972
0.591966
0.591962
0.591958
0.591955
0.591952
0.591948
0.591946
0.591945
0.591945
0.591948
0.591947
0.591948
0.591948
0.591945
0.591943
0.59194
0.591312
0.591375
0.591446
0.59152
0.591589
0.591653
0.591712
0.591765
0.591815
0.591859
0.5919
0.591937
0.59197
0.592
0.592027
0.59205
0.592072
0.592091
0.592107
0.592122
0.592135
0.592146
0.592157
0.592165
0.592173
0.59218
0.592186
0.59219
0.592195
0.592199
0.592201
0.592204
0.592205
0.592207
0.592207
0.592208
0.592208
0.592208
0.592207
0.592207
0.592206
0.592205
0.592203
0.592202
0.592201
0.592199
0.592197
0.592195
0.592193
0.592191
0.59219
0.592188
0.592186
0.592185
0.592183
0.592182
0.59218
0.592178
0.592177
0.592174
0.592172
0.59217
0.592168
0.592165
0.592163
0.59216
0.592157
0.592154
0.592151
0.592148
0.592144
0.592141
0.592137
0.592134
0.59213
0.592126
0.592121
0.592117
0.592112
0.592108
0.592103
0.592098
0.592093
0.592088
0.592082
0.592076
0.59207
0.592065
0.592058
0.592054
0.592045
0.592043
0.592041
0.592046
0.592041
0.592044
0.592045
0.592041
0.592038
0.592032
0.59138
0.591448
0.591519
0.591588
0.591653
0.591712
0.591767
0.591817
0.591863
0.591904
0.591942
0.591976
0.592007
0.592035
0.59206
0.592082
0.592101
0.592119
0.592134
0.592147
0.592158
0.592169
0.592178
0.592185
0.592192
0.592198
0.592203
0.592208
0.592211
0.592214
0.592217
0.592219
0.592221
0.592222
0.592222
0.592223
0.592223
0.592222
0.592222
0.592221
0.59222
0.592219
0.592218
0.592216
0.592215
0.592214
0.592212
0.592211
0.592209
0.592207
0.592206
0.592204
0.592203
0.592202
0.592201
0.5922
0.592199
0.592198
0.592197
0.592196
0.592195
0.592194
0.592193
0.592192
0.592191
0.59219
0.592189
0.592188
0.592186
0.592185
0.592184
0.592182
0.592181
0.592179
0.592178
0.592176
0.592174
0.592173
0.592172
0.59217
0.592168
0.592166
0.592164
0.592162
0.592159
0.592156
0.592153
0.592149
0.592146
0.592142
0.592139
0.592135
0.592133
0.592132
0.592134
0.592129
0.59213
0.59213
0.592129
0.592124
0.591435
0.591497
0.591564
0.591627
0.591685
0.59174
0.591791
0.591838
0.591881
0.591921
0.591957
0.59199
0.59202
0.592047
0.592072
0.592093
0.592112
0.592129
0.592144
0.592157
0.592168
0.592178
0.592187
0.592195
0.592202
0.592208
0.592213
0.592217
0.592221
0.592224
0.592227
0.592228
0.59223
0.592232
0.592232
0.592233
0.592233
0.592232
0.592232
0.592231
0.59223
0.592229
0.592228
0.592227
0.592226
0.592225
0.592224
0.592223
0.592221
0.59222
0.592217
0.592215
0.592213
0.592212
0.592211
0.59221
0.592209
0.592208
0.592207
0.592206
0.592205
0.592204
0.592203
0.592203
0.592202
0.592201
0.5922
0.592199
0.592199
0.592198
0.592197
0.592196
0.592195
0.592194
0.592193
0.592192
0.592191
0.59219
0.59219
0.592189
0.592188
0.592187
0.592186
0.592185
0.592185
0.592184
0.592183
0.592182
0.592181
0.59218
0.592178
0.592177
0.592176
0.592175
0.592174
0.592173
0.592172
0.59217
0.592169
0.592167
0.591487
0.591544
0.591607
0.591666
0.59172
0.591771
0.591819
0.591863
0.591904
0.591942
0.591976
0.592007
0.592035
0.592061
0.592084
0.592104
0.592122
0.592138
0.592152
0.592164
0.592175
0.592184
0.592193
0.5922
0.592207
0.592213
0.592218
0.592222
0.592226
0.592229
0.592231
0.592233
0.592235
0.592236
0.592237
0.592237
0.592237
0.592237
0.592237
0.592237
0.592237
0.592236
0.592234
0.592233
0.592233
0.592231
0.592229
0.592228
0.592226
0.592224
0.592223
0.592221
0.59222
0.592218
0.592217
0.592216
0.592215
0.592214
0.592213
0.592212
0.592211
0.59221
0.59221
0.592209
0.592208
0.592207
0.592206
0.592206
0.592205
0.592204
0.592203
0.592202
0.592201
0.5922
0.592199
0.592198
0.592198
0.592197
0.592196
0.592196
0.592195
0.592194
0.592193
0.592193
0.592192
0.592191
0.592191
0.59219
0.592189
0.592189
0.592188
0.592187
0.592187
0.592186
0.592186
0.592185
0.592184
0.592183
0.592182
0.592181
0.59154
0.59159
0.591649
0.591703
0.591753
0.591799
0.591842
0.591883
0.591921
0.591956
0.591989
0.592018
0.592045
0.592069
0.592091
0.59211
0.592128
0.592143
0.592157
0.592169
0.59218
0.592189
0.592198
0.592205
0.592212
0.592218
0.592223
0.592227
0.59223
0.592233
0.592236
0.592238
0.592239
0.592241
0.592241
0.592242
0.592242
0.592242
0.592241
0.592241
0.59224
0.59224
0.592239
0.592237
0.592236
0.592235
0.592234
0.592233
0.592231
0.592231
0.592228
0.592226
0.592225
0.592223
0.592222
0.592221
0.59222
0.592219
0.592218
0.592218
0.592217
0.592216
0.592215
0.592215
0.592214
0.592213
0.592212
0.592212
0.592211
0.59221
0.592209
0.592208
0.592207
0.592206
0.592205
0.592204
0.592203
0.592202
0.592202
0.592201
0.5922
0.592199
0.592199
0.592198
0.592197
0.592197
0.592196
0.592195
0.592195
0.592194
0.592193
0.592193
0.592192
0.592191
0.592191
0.59219
0.592189
0.592188
0.592188
0.592187
0.591591
0.591636
0.591689
0.591739
0.591784
0.591826
0.591866
0.591904
0.591939
0.591972
0.592002
0.59203
0.592055
0.592078
0.592099
0.592117
0.592134
0.592148
0.592161
0.592173
0.592183
0.592192
0.5922
0.592208
0.592214
0.59222
0.592224
0.592229
0.592232
0.592235
0.592237
0.592239
0.592241
0.592242
0.592243
0.592243
0.592244
0.592243
0.592243
0.592243
0.592242
0.592241
0.592241
0.592239
0.592238
0.592237
0.592236
0.592236
0.592234
0.592233
0.592231
0.592229
0.592228
0.592226
0.592225
0.592224
0.592223
0.592222
0.592221
0.592221
0.59222
0.592219
0.592219
0.592218
0.592217
0.592217
0.592216
0.592215
0.592214
0.592213
0.592212
0.592212
0.592211
0.59221
0.592209
0.592208
0.592207
0.592206
0.592206
0.592205
0.592204
0.592203
0.592203
0.592202
0.592202
0.592201
0.5922
0.5922
0.592199
0.592199
0.592198
0.592197
0.592197
0.592196
0.592195
0.592195
0.592194
0.592193
0.592193
0.592192
0.591642
0.591681
0.591729
0.591775
0.591815
0.591853
0.59189
0.591924
0.591956
0.591986
0.592014
0.59204
0.592063
0.592085
0.592104
0.592122
0.592138
0.592152
0.592164
0.592176
0.592186
0.592195
0.592203
0.59221
0.592216
0.592222
0.592226
0.59223
0.592234
0.592237
0.592239
0.592241
0.592242
0.592243
0.592244
0.592245
0.592245
0.592245
0.592245
0.592245
0.592244
0.592243
0.592242
0.592241
0.59224
0.592239
0.592237
0.592236
0.592235
0.592234
0.592233
0.592232
0.592231
0.592229
0.592227
0.592226
0.592225
0.592224
0.592223
0.592222
0.592222
0.592221
0.592221
0.59222
0.592219
0.592219
0.592218
0.592217
0.592217
0.592216
0.592215
0.592214
0.592213
0.592213
0.592212
0.592211
0.59221
0.592209
0.592209
0.592208
0.592207
0.592207
0.592206
0.592206
0.592205
0.592205
0.592204
0.592203
0.592203
0.592202
0.592202
0.592201
0.592201
0.5922
0.5922
0.592199
0.592198
0.592198
0.592197
0.592196
0.591692
0.591726
0.591769
0.59181
0.591846
0.591881
0.591913
0.591945
0.591974
0.592002
0.592027
0.592051
0.592073
0.592093
0.592111
0.592128
0.592143
0.592156
0.592168
0.592178
0.592188
0.592196
0.592204
0.592211
0.592217
0.592222
0.592226
0.59223
0.592233
0.592236
0.592239
0.59224
0.592242
0.592243
0.592244
0.592244
0.592244
0.592244
0.592244
0.592244
0.592244
0.592243
0.592243
0.592241
0.592241
0.592239
0.592238
0.592237
0.592236
0.592235
0.592234
0.592233
0.592232
0.59223
0.592228
0.592227
0.592226
0.592225
0.592224
0.592224
0.592223
0.592223
0.592222
0.592222
0.592221
0.592221
0.59222
0.592219
0.592219
0.592218
0.592217
0.592217
0.592216
0.592215
0.592214
0.592213
0.592213
0.592212
0.592211
0.592211
0.59221
0.59221
0.592209
0.592208
0.592208
0.592207
0.592207
0.592206
0.592206
0.592205
0.592205
0.592204
0.592204
0.592203
0.592203
0.592202
0.592202
0.592201
0.5922
0.5922
0.59174
0.59177
0.591808
0.591844
0.591877
0.591908
0.591938
0.591966
0.591993
0.592018
0.592041
0.592063
0.592083
0.592101
0.592118
0.592133
0.592147
0.592159
0.592171
0.592181
0.59219
0.592198
0.592205
0.592212
0.592217
0.592222
0.592227
0.59223
0.592234
0.592236
0.592239
0.59224
0.592242
0.592243
0.592243
0.592244
0.592244
0.592244
0.592244
0.592244
0.592243
0.592243
0.592242
0.592241
0.592241
0.59224
0.592239
0.592238
0.592236
0.592235
0.592234
0.592233
0.592232
0.59223
0.59223
0.592228
0.592227
0.592226
0.592225
0.592224
0.592223
0.592223
0.592222
0.592222
0.592221
0.592221
0.59222
0.59222
0.592219
0.592218
0.592218
0.592217
0.592216
0.592216
0.592215
0.592214
0.592214
0.592213
0.592213
0.592212
0.592212
0.592211
0.59221
0.59221
0.59221
0.592209
0.592209
0.592208
0.592208
0.592207
0.592207
0.592206
0.592206
0.592205
0.592205
0.592204
0.592204
0.592203
0.592203
0.592202
0.591787
0.591813
0.591847
0.591879
0.591908
0.591935
0.591962
0.591987
0.592011
0.592033
0.592055
0.592074
0.592093
0.592109
0.592125
0.592139
0.592152
0.592163
0.592174
0.592183
0.592191
0.592199
0.592206
0.592212
0.592217
0.592222
0.592226
0.592229
0.592232
0.592235
0.592237
0.592239
0.59224
0.592241
0.592242
0.592242
0.592242
0.592242
0.592242
0.592242
0.592241
0.592241
0.59224
0.592239
0.592239
0.592238
0.592237
0.592236
0.592235
0.592234
0.592233
0.592232
0.592231
0.59223
0.592229
0.592228
0.592227
0.592226
0.592225
0.592224
0.592223
0.592223
0.592222
0.592222
0.592221
0.592221
0.59222
0.59222
0.592219
0.592219
0.592218
0.592218
0.592217
0.592216
0.592216
0.592215
0.592214
0.592214
0.592213
0.592213
0.592212
0.592212
0.592211
0.592211
0.59221
0.59221
0.592209
0.592209
0.592209
0.592208
0.592208
0.592207
0.592207
0.592206
0.592206
0.592205
0.592205
0.592204
0.592204
0.592204
0.591833
0.591854
0.591884
0.591912
0.591938
0.591962
0.591986
0.592008
0.59203
0.59205
0.592069
0.592086
0.592103
0.592118
0.592132
0.592145
0.592156
0.592167
0.592176
0.592185
0.592193
0.5922
0.592206
0.592212
0.592217
0.592221
0.592225
0.592229
0.592231
0.592234
0.592236
0.592237
0.592239
0.592239
0.59224
0.59224
0.592241
0.592241
0.592241
0.59224
0.59224
0.59224
0.592239
0.592238
0.592238
0.592237
0.592236
0.592235
0.592234
0.592233
0.592232
0.592231
0.59223
0.592229
0.592228
0.592227
0.592226
0.592225
0.592224
0.592223
0.592222
0.592222
0.592221
0.592221
0.592221
0.59222
0.59222
0.592219
0.592219
0.592218
0.592218
0.592217
0.592217
0.592216
0.592215
0.592215
0.592214
0.592214
0.592213
0.592213
0.592213
0.592212
0.592212
0.592211
0.592211
0.592211
0.59221
0.59221
0.592209
0.592209
0.592208
0.592208
0.592208
0.592207
0.592207
0.592206
0.592206
0.592206
0.592205
0.592205
0.591877
0.591895
0.59192
0.591945
0.591967
0.591989
0.592009
0.592029
0.592048
0.592066
0.592082
0.592098
0.592113
0.592126
0.592139
0.59215
0.592161
0.59217
0.592179
0.592187
0.592194
0.5922
0.592206
0.592211
0.592216
0.59222
0.592223
0.592226
0.592229
0.592231
0.592233
0.592234
0.592236
0.592236
0.592237
0.592237
0.592237
0.592237
0.592237
0.592237
0.592237
0.592236
0.592236
0.592235
0.592234
0.592234
0.592233
0.592233
0.592231
0.592231
0.592229
0.592229
0.592228
0.592227
0.592226
0.592226
0.592225
0.592224
0.592223
0.592222
0.592221
0.592221
0.592221
0.59222
0.59222
0.59222
0.592219
0.592219
0.592218
0.592218
0.592217
0.592217
0.592216
0.592216
0.592215
0.592215
0.592214
0.592214
0.592214
0.592213
0.592213
0.592213
0.592212
0.592212
0.592212
0.592211
0.592211
0.59221
0.59221
0.592209
0.592209
0.592209
0.592208
0.592208
0.592208
0.592207
0.592207
0.592206
0.592206
0.592206
0.591919
0.591934
0.591956
0.591977
0.591996
0.592015
0.592032
0.59205
0.592066
0.592082
0.592096
0.59211
0.592123
0.592135
0.592146
0.592156
0.592166
0.592174
0.592182
0.592189
0.592195
0.592201
0.592206
0.592211
0.592215
0.592219
0.592222
0.592225
0.592227
0.592229
0.592231
0.592232
0.592233
0.592234
0.592234
0.592235
0.592235
0.592235
0.592234
0.592234
0.592234
0.592234
0.592233
0.592233
0.592232
0.592232
0.592231
0.59223
0.59223
0.592229
0.592228
0.592228
0.592227
0.592226
0.592225
0.592224
0.592223
0.592222
0.592221
0.592221
0.59222
0.59222
0.592219
0.592219
0.592219
0.592218
0.592218
0.592218
0.592217
0.592217
0.592216
0.592216
0.592216
0.592215
0.592215
0.592214
0.592214
0.592213
0.592213
0.592213
0.592212
0.592212
0.592212
0.592211
0.592211
0.592211
0.592211
0.59221
0.59221
0.59221
0.592209
0.592209
0.592209
0.592208
0.592208
0.592208
0.592207
0.592207
0.592207
0.592206
0.59196
0.591973
0.591991
0.592009
0.592025
0.59204
0.592056
0.59207
0.592084
0.592098
0.59211
0.592122
0.592133
0.592144
0.592153
0.592162
0.59217
0.592178
0.592184
0.592191
0.592196
0.592201
0.592206
0.59221
0.592214
0.592217
0.59222
0.592222
0.592224
0.592226
0.592227
0.592229
0.59223
0.59223
0.592231
0.592231
0.592231
0.592231
0.592231
0.592231
0.592231
0.59223
0.59223
0.59223
0.592229
0.592229
0.592228
0.592228
0.592227
0.592227
0.592225
0.592225
0.592224
0.592223
0.592223
0.592222
0.592221
0.592221
0.59222
0.592219
0.592219
0.592218
0.592218
0.592218
0.592218
0.592217
0.592217
0.592217
0.592216
0.592216
0.592216
0.592215
0.592215
0.592215
0.592214
0.592214
0.592214
0.592213
0.592213
0.592213
0.592212
0.592212
0.592212
0.592211
0.592211
0.592211
0.592211
0.59221
0.59221
0.59221
0.59221
0.592209
0.592209
0.592209
0.592208
0.592208
0.592208
0.592208
0.592207
0.592207
0.592
0.59201
0.592025
0.592039
0.592053
0.592066
0.592078
0.592091
0.592102
0.592114
0.592124
0.592134
0.592144
0.592152
0.592161
0.592168
0.592175
0.592182
0.592187
0.592193
0.592198
0.592202
0.592206
0.592209
0.592212
0.592215
0.592218
0.59222
0.592222
0.592223
0.592225
0.592226
0.592226
0.592227
0.592227
0.592228
0.592228
0.592228
0.592228
0.592228
0.592228
0.592228
0.592228
0.592227
0.592227
0.592226
0.592226
0.592226
0.592225
0.592225
0.592224
0.592223
0.592223
0.592222
0.592222
0.592221
0.59222
0.592219
0.592219
0.592218
0.592217
0.592217
0.592217
0.592216
0.592216
0.592216
0.592216
0.592215
0.592215
0.592215
0.592215
0.592214
0.592214
0.592214
0.592213
0.592213
0.592213
0.592213
0.592212
0.592212
0.592212
0.592212
0.592212
0.592211
0.592211
0.592211
0.592211
0.592211
0.59221
0.59221
0.59221
0.59221
0.592209
0.592209
0.592209
0.592208
0.592208
0.592208
0.592207
0.592207
0.592039
0.592047
0.592058
0.59207
0.592081
0.592091
0.592101
0.592111
0.592121
0.592129
0.592138
0.592146
0.592154
0.592161
0.592168
0.592174
0.592179
0.592185
0.592189
0.592194
0.592198
0.592202
0.592205
0.592208
0.592211
0.592213
0.592215
0.592217
0.592219
0.59222
0.592221
0.592222
0.592223
0.592224
0.592224
0.592224
0.592225
0.592225
0.592225
0.592225
0.592225
0.592225
0.592224
0.592224
0.592224
0.592224
0.592223
0.592223
0.592223
0.592222
0.592222
0.592221
0.592221
0.59222
0.59222
0.592219
0.592219
0.592218
0.592218
0.592217
0.592217
0.592216
0.592216
0.592216
0.592215
0.592215
0.592215
0.592215
0.592215
0.592214
0.592214
0.592214
0.592214
0.592213
0.592213
0.592213
0.592213
0.592213
0.592212
0.592212
0.592212
0.592212
0.592211
0.592211
0.592211
0.592211
0.592211
0.59221
0.59221
0.59221
0.59221
0.592209
0.592209
0.592209
0.592208
0.592208
0.592208
0.592207
0.592207
0.592207
0.592077
0.592082
0.592091
0.5921
0.592109
0.592117
0.592124
0.592132
0.592139
0.592146
0.592152
0.592158
0.592164
0.59217
0.592175
0.59218
0.592184
0.592189
0.592193
0.592196
0.5922
0.592203
0.592205
0.592208
0.59221
0.592212
0.592214
0.592216
0.592217
0.592218
0.592219
0.59222
0.592221
0.592221
0.592222
0.592222
0.592222
0.592222
0.592222
0.592222
0.592222
0.592222
0.592222
0.592222
0.592222
0.592221
0.592221
0.59222
0.59222
0.592219
0.592219
0.592219
0.592218
0.592218
0.592218
0.592217
0.592217
0.592216
0.592216
0.592216
0.592215
0.592215
0.592214
0.592214
0.592214
0.592214
0.592213
0.592213
0.592213
0.592213
0.592213
0.592213
0.592213
0.592213
0.592212
0.592212
0.592212
0.592212
0.592212
0.592211
0.592211
0.592211
0.592211
0.59221
0.59221
0.59221
0.59221
0.592209
0.592209
0.592208
0.592208
0.592208
0.592207
0.592207
0.592207
0.592206
0.592206
0.592206
0.592206
0.592206
0.592113
0.592117
0.592124
0.59213
0.592136
0.592141
0.592147
0.592152
0.592157
0.592162
0.592166
0.592171
0.592175
0.592179
0.592183
0.592187
0.59219
0.592193
0.592196
0.592199
0.592201
0.592204
0.592206
0.592208
0.592209
0.592211
0.592212
0.592213
0.592215
0.592216
0.592216
0.592217
0.592217
0.592218
0.592218
0.592218
0.592218
0.592218
0.592218
0.592218
0.592218
0.592218
0.592218
0.592218
0.592217
0.592217
0.592217
0.592216
0.592216
0.592216
0.592215
0.592215
0.592215
0.592214
0.592214
0.592214
0.592213
0.592213
0.592213
0.592213
0.592212
0.592212
0.592212
0.592212
0.592211
0.592211
0.592211
0.592211
0.592211
0.592211
0.59221
0.59221
0.59221
0.59221
0.59221
0.59221
0.59221
0.592209
0.592209
0.592209
0.592209
0.592208
0.592208
0.592208
0.592208
0.592207
0.592207
0.592207
0.592207
0.592206
0.592206
0.592206
0.592205
0.592205
0.592205
0.592205
0.592205
0.592204
0.592204
0.592204
0.592149
0.592152
0.592155
0.592159
0.592163
0.592166
0.592169
0.592173
0.592176
0.592179
0.592182
0.592185
0.592187
0.59219
0.592192
0.592194
0.592196
0.592198
0.5922
0.592201
0.592203
0.592204
0.592205
0.592207
0.592208
0.592208
0.592209
0.59221
0.59221
0.592211
0.592211
0.592211
0.592212
0.592212
0.592212
0.592212
0.592212
0.592212
0.592212
0.592212
0.592212
0.592212
0.592212
0.592212
0.592212
0.592212
0.592212
0.592212
0.592212
0.592212
0.592212
0.592211
0.592211
0.592211
0.592211
0.592211
0.592211
0.59221
0.59221
0.59221
0.59221
0.59221
0.59221
0.592209
0.592209
0.592209
0.592209
0.592209
0.592209
0.592209
0.592209
0.592209
0.592209
0.592208
0.592208
0.592208
0.592208
0.592208
0.592208
0.592208
0.592207
0.592207
0.592206
0.592206
0.592206
0.592205
0.592205
0.592205
0.592204
0.592204
0.592204
0.592204
0.592204
0.592204
0.592203
0.592203
0.592203
0.592203
0.592203
0.592203
0.592187
0.592188
0.592189
0.592191
0.592192
0.592194
0.592195
0.592196
0.592197
0.592198
0.592199
0.5922
0.5922
0.592201
0.592202
0.592202
0.592203
0.592203
0.592204
0.592204
0.592205
0.592205
0.592206
0.592206
0.592206
0.592206
0.592207
0.592207
0.592207
0.592207
0.592207
0.592207
0.592207
0.592207
0.592207
0.592208
0.592208
0.592208
0.592208
0.592208
0.592208
0.592208
0.592208
0.592208
0.592208
0.592208
0.592208
0.592208
0.592208
0.592208
0.592208
0.592208
0.592207
0.592208
0.592207
0.592207
0.592207
0.592207
0.592207
0.592207
0.592207
0.592207
0.592207
0.592207
0.592207
0.592207
0.592207
0.592207
0.592207
0.592207
0.592207
0.592207
0.592207
0.592207
0.592207
0.592207
0.592207
0.592206
0.592206
0.592206
0.592206
0.592205
0.592205
0.592204
0.592204
0.592204
0.592203
0.592203
0.592203
0.592203
0.592203
0.592203
0.592203
0.592203
0.592203
0.592202
0.592202
0.592202
0.592202
0.592202
0.591194
0.591184
0.59119
0.591209
0.591233
0.591266
0.591286
0.59131
0.591315
0.591264
0.591298
0.591284
0.591283
0.591293
0.591308
0.591332
0.591348
0.591363
0.59137
0.591336
0.591394
0.591377
0.591371
0.591373
0.591381
0.591395
0.591408
0.591416
0.591422
0.591402
0.591478
0.591459
0.59145
0.591448
0.591451
0.591458
0.591468
0.591475
0.591477
0.591464
0.591553
0.591535
0.591524
0.591519
0.591518
0.591521
0.591526
0.591531
0.591533
0.591523
0.591621
0.591603
0.591591
0.591584
0.591581
0.591581
0.591582
0.591585
0.591588
0.59158
0.591682
0.591665
0.591653
0.591645
0.591641
0.591638
0.591638
0.591639
0.59164
0.591635
0.591737
0.591721
0.591709
0.591701
0.591696
0.591693
0.591691
0.59169
0.591691
0.591688
0.591789
0.591774
0.591763
0.591754
0.591749
0.591745
0.591742
0.591741
0.59174
0.591738
0.591836
0.591822
0.591811
0.591803
0.591797
0.591793
0.591791
0.591789
0.591788
0.591786