/*--------------------------------*- C++ -*----------------------------------*\
  =========                 |
  \\      /  F ield         | OpenFOAM: The Open Source CFD Toolbox
   \\    /   O peration     | Website:  https://openfoam.org
    \\  /    A nd           | Version:  8
     \\/     M anipulation  |
\*---------------------------------------------------------------------------*/
FoamFile
{
    version     2.0;
    format      ascii;
    class       volVectorField;
    location    "3.4999919616";
    object      U;
}
// * * * * * * * * * * * * * * * * * * * * * * * * * * * * * * * * * * * * * //

dimensions      [0 1 -1 0 0 0 0];

internalField   nonuniform List<vector> 
6800
(
(0.342815 4.20047 -1.06731e-14)
(20.8809 -3.22975 2.916e-15)
(31.7173 -4.50725 2.85294e-15)
(38.738 -4.44701 -2.88215e-15)
(43.4789 -4.05367 1.94281e-15)
(46.6826 -3.5671 2.581e-15)
(48.8547 -3.08581 -4.08447e-15)
(50.3376 -2.64669 3.69829e-15)
(51.3696 -2.2366 -2.64496e-15)
(52.0632 -1.89998 5.19481e-16)
(10.5889 1.50947 1.53922e-14)
(27.9401 -5.40293 -4.07664e-15)
(37.9038 -5.29373 -9.45529e-16)
(43.897 -4.64889 2.01429e-15)
(47.6591 -3.929 -1.92718e-15)
(50.0448 -3.23164 -4.63416e-17)
(51.5598 -2.6322 5.82049e-18)
(52.512 -2.14679 -1.1302e-15)
(53.1098 -1.76181 1.97709e-16)
(53.4389 -1.54326 2.62444e-15)
(17.8817 -0.65503 2.67638e-15)
(34.3117 -7.48312 -7.30223e-16)
(43.2802 -5.79773 1.96081e-15)
(48.2039 -4.63601 -4.52341e-15)
(51.0167 -3.63774 9.22385e-16)
(52.6524 -2.77963 -2.88152e-15)
(53.5779 -2.09936 2.63703e-15)
(54.0661 -1.58795 -3.16078e-16)
(54.2979 -1.20517 3.43973e-15)
(54.349 -0.976817 -5.42878e-15)
(25.5885 -2.16324 4.35522e-15)
(40.5607 -9.08372 -9.95492e-16)
(48.1444 -5.86246 -1.87896e-16)
(51.8823 -4.36883 6.0204e-16)
(53.7759 -3.15532 -1.89901e-15)
(54.7176 -2.18828 1.8433e-15)
(55.1182 -1.47105 -3.11895e-15)
(55.2238 -0.951734 4.58165e-15)
(55.1787 -0.569481 -3.22602e-15)
(55.0332 -0.327114 3.99918e-15)
(33.2619 -2.54252 4.22346e-18)
(46.5484 -9.92216 1.94671e-15)
(52.5277 -5.35253 7.83173e-16)
(55.0531 -3.77846 3.59222e-15)
(56.0744 -2.43043 -1.94018e-15)
(56.3837 -1.42834 6.20362e-16)
(56.3415 -0.71559 7.83822e-16)
(56.1449 -0.207035 2.42917e-15)
(55.8904 0.163731 -3.36012e-15)
(55.5987 0.406592 1.45837e-15)
(40.5294 -1.75886 -1.97608e-15)
(52.1182 -9.88264 -9.6237e-16)
(56.4135 -4.2134 -4.99898e-17)
(57.7821 -2.82366 -1.31504e-15)
(57.9927 -1.41871 -1.70956e-16)
(57.7539 -0.463147 9.99864e-16)
(57.3496 0.205475 -1.37727e-15)
(56.914 0.678622 1.60078e-15)
(56.4943 1.01858 -1.80581e-15)
(56.0833 1.24638 -3.72131e-16)
(47.1137 0.119237 2.80416e-16)
(57.1365 -8.94333 1.04447e-15)
(59.7549 -2.44348 7.76154e-16)
(60.0815 -1.48577 -1.14121e-15)
(59.5724 -0.0956368 -1.5966e-16)
(58.8807 0.73211 1.4955e-15)
(58.185 1.31769 -6.25785e-16)
(57.5563 1.72764 9.75939e-16)
(56.9998 2.011 -2.00392e-15)
(56.4844 2.20689 3.6911e-20)
(52.799 2.93894 7.02884e-16)
(61.4787 -7.13371 -1.78815e-16)
(62.4956 -0.107021 -8.40208e-16)
(61.9366 0.230195 -1.4343e-15)
(60.8219 1.53947 2.51731e-15)
(59.7733 2.16335 -1.76891e-15)
(58.8444 2.63038 3.57863e-16)
(58.059 2.94384 -1.40061e-15)
(57.3884 3.14014 -6.18746e-16)
(56.7799 3.28854 -7.97039e-16)
(57.434 6.50444 8.4629e-17)
(65.0323 -4.53129 1.32775e-16)
(64.5827 2.70322 -7.04466e-16)
(63.3217 2.2917 5.47697e-16)
(61.7293 3.46044 4.52233e-16)
(60.4104 3.81645 -6.32479e-16)
(59.3004 4.1293 3.02064e-16)
(58.3898 4.31261 5.17105e-16)
(57.6284 4.39093 5.31296e-16)
(56.9384 4.4795 6.2402e-16)
(60.9346 10.6098 -2.33645e-16)
(67.7135 -1.24767 -7.31726e-17)
(65.9769 5.85432 -1.65942e-16)
(64.2074 4.64785 1.67015e-16)
(62.2635 5.61991 -5.1591e-16)
(60.757 5.65466 -9.84899e-17)
(59.5135 5.78244 -4.55324e-17)
(58.5119 5.80227 4.53439e-16)
(57.6874 5.73764 2.14707e-16)
(56.9302 5.75525 -9.85441e-16)
(-3.34984 1.69533 1.72885e-15)
(-5.34029 1.19282 -4.90273e-16)
(-7.21035 0.88134 -2.28831e-16)
(-8.63185 0.648495 3.66724e-16)
(-9.53732 0.429079 -7.64758e-17)
(-9.99983 0.201844 5.20531e-16)
(-10.0566 -0.0372289 1.75481e-16)
(-9.73891 -0.276844 -2.85407e-16)
(-9.08613 -0.495079 5.7093e-16)
(-8.14965 -0.650706 -1.95463e-16)
(-3.36739 4.30898 -8.83593e-16)
(-5.00417 3.29119 8.04569e-16)
(-6.56287 2.48362 1.63722e-16)
(-7.67288 1.83662 8.56629e-16)
(-8.2753 1.21623 -3.32927e-16)
(-8.42336 0.558738 -9.9722e-17)
(-8.13133 -0.156149 -1.02135e-15)
(-7.40403 -0.884892 7.16505e-16)
(-6.31203 -1.53011 2.3158e-16)
(-4.93743 -1.95806 1.04192e-15)
(-3.49684 6.56165 -2.09473e-15)
(-4.56909 5.09399 -1.01621e-16)
(-5.52755 3.85587 1.74473e-15)
(-6.01311 2.82477 -2.77762e-15)
(-5.97126 1.82836 7.12293e-18)
(-5.41411 0.758863 -3.47528e-16)
(-4.28199 -0.432258 2.92683e-15)
(-2.62812 -1.65078 -1.87495e-15)
(-0.801242 -2.66402 4.53159e-15)
(1.35814 -3.26749 -1.9373e-15)
(-3.74189 8.21061 -2.32746e-15)
(-4.11534 6.39622 2.23068e-15)
(-4.23143 4.81129 -3.75697e-15)
(-3.78821 3.44059 4.46567e-15)
(-2.68074 2.09256 1.06904e-15)
(-0.791748 0.584198 -5.48362e-16)
(1.98368 -1.09975 -2.00814e-15)
(4.58512 -2.5154 1.34749e-15)
(7.0683 -3.58466 9.82469e-16)
(9.75484 -4.08097 -3.83349e-15)
(-4.0509 9.13425 9.19717e-15)
(-3.66939 7.05553 5.89794e-17)
(-2.67597 5.17419 1.71713e-15)
(-0.804478 3.39967 -9.75003e-15)
(2.19051 1.57831 5.44696e-15)
(6.10383 -0.30373 9.99311e-16)
(9.78809 -1.91484 7.75698e-16)
(13.1067 -3.14777 1.22933e-15)
(16.0737 -4.06307 3.06535e-16)
(19.2109 -4.36928 5.48014e-15)
(-4.3761 9.37753 7.0169e-15)
(-3.13513 6.94085 2.31077e-15)
(-0.521028 4.68481 2.18266e-15)
(3.60809 2.4772 -8.76569e-15)
(8.96148 0.309477 7.41667e-15)
(13.9171 -1.4162 -4.74666e-15)
(18.2974 -2.73817 -7.24961e-15)
(22.1227 -3.66138 1.84001e-15)
(25.3659 -4.24922 -4.85403e-15)
(28.5897 -4.28231 1.73108e-15)
(-4.70755 9.02151 5.82909e-15)
(-2.27844 5.98589 4.57327e-15)
(2.91674 3.30304 -6.85251e-15)
(10.1297 0.66939 1.51609e-14)
(16.6274 -1.23221 2.71847e-15)
(22.1945 -2.55025 -7.49355e-15)
(26.8448 -3.39138 4.33498e-15)
(30.6521 -3.89463 -6.62761e-16)
(33.6839 -4.15463 2.68879e-15)
(36.5135 -3.9635 1.24395e-15)
(-5.14867 8.27721 -9.78621e-15)
(-0.554634 4.37176 -2.08791e-14)
(9.28742 0.854027 6.19532e-15)
(17.7844 -1.3161 5.21111e-16)
(24.6829 -2.58954 -3.2504e-15)
(30.155 -3.31499 -2.70221e-15)
(34.4041 -3.70419 4.16476e-16)
(37.6989 -3.85115 -1.6574e-15)
(40.2369 -3.84438 -1.75869e-15)
(42.5012 -3.50671 5.00033e-15)
(-5.22017 6.95927 1.09768e-14)
(5.69816 1.35457 6.82335e-15)
(17.0172 -1.56186 2.90037e-15)
(25.6254 -2.8901 -1.13457e-15)
(32.0816 -3.48999 2.99679e-17)
(36.8884 -3.69705 2.05675e-15)
(40.4678 -3.69084 4.62529e-15)
(43.1426 -3.56061 -2.86995e-15)
(45.1362 -3.36814 -3.12398e-15)
(46.8262 -2.95635 3.31078e-15)
(-4.13937 5.46268 -8.81973e-15)
(13.5669 -1.14752 -3.06168e-16)
(24.7406 -3.3326 -3.69599e-15)
(32.6578 -3.91255 -9.74191e-17)
(38.3142 -3.94049 4.87934e-16)
(42.3444 -3.74661 -3.33639e-16)
(45.2178 -3.4594 -2.2785e-16)
(47.2739 -3.13739 -2.16824e-15)
(48.738 -2.80854 -3.20514e-15)
(49.8685 -2.37901 9.39348e-16)
(-6.93333 -0.711552 1.24885e-16)
(-5.39127 -0.681342 2.0148e-17)
(-3.96109 -0.625063 -1.97842e-16)
(-2.64924 -0.574801 1.48276e-16)
(-1.43061 -0.53776 6.65876e-17)
(-0.280883 -0.509844 -3.19485e-16)
(0.82889 -0.480072 -1.64805e-16)
(1.85337 -0.451239 2.4432e-16)
(2.83494 -0.428622 -1.48259e-16)
(3.77395 -0.409939 -4.39214e-17)
(4.67608 -0.393704 1.50262e-16)
(5.54561 -0.379137 -6.07062e-17)
(6.38547 -0.365775 3.72726e-16)
(7.19776 -0.353318 -1.90556e-16)
(7.98411 -0.341571 -4.35705e-16)
(8.74584 -0.330395 5.76421e-16)
(9.48399 -0.31968 -2.45295e-16)
(10.1994 -0.309349 -1.28909e-16)
(10.8928 -0.299353 1.32195e-16)
(11.5648 -0.289653 -3.09966e-17)
(12.2159 -0.280218 -3.20908e-17)
(12.8467 -0.271025 9.14068e-17)
(13.4576 -0.262061 -1.5435e-16)
(14.049 -0.253326 4.12084e-16)
(14.6214 -0.244825 2.04393e-17)
(15.1754 -0.236563 -4.39478e-16)
(15.7113 -0.228545 3.2205e-16)
(16.2297 -0.220777 7.17579e-17)
(16.7312 -0.213272 -1.51973e-18)
(17.2162 -0.206041 -2.47559e-16)
(17.6854 -0.199089 1.50869e-16)
(18.1393 -0.192409 -2.46345e-16)
(18.5786 -0.185991 2.23929e-16)
(19.0038 -0.179821 -2.94654e-16)
(19.4154 -0.173889 4.29428e-16)
(19.8139 -0.168188 -2.6694e-16)
(20.1997 -0.162713 -1.16398e-16)
(20.5735 -0.157458 3.79142e-16)
(20.9356 -0.152419 -9.37675e-17)
(21.2865 -0.147593 -7.63121e-18)
(21.6268 -0.142973 -1.84417e-16)
(21.9567 -0.138549 6.75569e-17)
(22.2769 -0.13431 -3.59946e-17)
(22.5875 -0.130247 -1.91849e-17)
(22.8892 -0.126351 2.30661e-16)
(23.1821 -0.122615 -9.91927e-17)
(23.4668 -0.119031 1.56388e-16)
(23.7434 -0.115589 -2.70204e-16)
(24.0124 -0.112281 4.0695e-17)
(24.274 -0.109095 3.11157e-17)
(24.5285 -0.106026 -1.78738e-18)
(24.7761 -0.103063 -6.75745e-17)
(25.0172 -0.100202 8.0039e-17)
(25.2518 -0.0974367 3.3612e-17)
(25.4803 -0.094763 -1.69576e-17)
(25.7028 -0.0921787 -6.8161e-17)
(25.9195 -0.0896813 1.34167e-17)
(26.1307 -0.0872693 -7.01774e-17)
(26.3364 -0.0849412 4.41243e-17)
(26.537 -0.0826951 1.07287e-16)
(26.7325 -0.0805295 -9.76849e-17)
(26.9232 -0.0784439 3.52458e-18)
(27.1092 -0.0764386 -3.44305e-17)
(27.2907 -0.074514 1.00653e-17)
(27.4679 -0.0726696 6.20046e-17)
(27.6409 -0.0709037 5.83843e-17)
(27.8101 -0.0692137 -1.46686e-16)
(27.9754 -0.0675966 4.34978e-17)
(28.1371 -0.066049 1.10612e-17)
(28.2953 -0.064567 -3.70746e-17)
(28.4502 -0.0631461 -6.90393e-17)
(28.6019 -0.0617817 1.46109e-16)
(28.7506 -0.0604684 -4.263e-17)
(28.8962 -0.0592016 3.22621e-17)
(29.0391 -0.057979 -2.91628e-17)
(29.1791 -0.0567987 -4.53359e-17)
(29.3165 -0.0556584 1.30857e-17)
(29.4513 -0.0545566 4.51763e-17)
(29.5836 -0.0534928 -6.74556e-17)
(29.7135 -0.052467 8.39743e-17)
(29.841 -0.0514789 2.39643e-18)
(29.9662 -0.0505284 -1.33402e-17)
(30.0893 -0.0496166 -3.1724e-17)
(30.2104 -0.0487401 4.85733e-17)
(30.3294 -0.0478958 -4.03927e-17)
(30.4465 -0.0470838 3.46788e-17)
(30.5618 -0.0463014 -5.05776e-17)
(30.6753 -0.0455437 -6.08236e-18)
(30.7872 -0.0447993 3.3206e-17)
(30.8974 -0.0440712 2.10806e-18)
(31.006 -0.0433613 -1.22506e-17)
(31.1129 -0.0426683 -5.24592e-19)
(31.2183 -0.0419826 -1.92172e-18)
(31.3221 -0.0412894 -4.46393e-18)
(31.4241 -0.0405712 2.50706e-18)
(31.5245 -0.0398125 -1.57299e-18)
(31.623 -0.0389876 5.84697e-18)
(31.7193 -0.038071 4.06485e-18)
(31.8135 -0.0370268 -7.49395e-19)
(31.9269 -0.0349147 1.21323e-18)
(-3.57898 -2.05648 -4.99783e-16)
(-2.30337 -1.92181 -3.54358e-16)
(-1.06073 -1.76515 -1.56096e-15)
(0.103782 -1.63121 1.2988e-15)
(1.19941 -1.52435 -1.86917e-15)
(2.2178 -1.44143 1.36121e-15)
(3.19424 -1.36522 -9.04793e-16)
(4.12932 -1.29393 -6.49231e-16)
(5.03274 -1.23434 1.42787e-15)
(5.90424 -1.18335 4.88417e-16)
(6.74547 -1.13828 2.66618e-16)
(7.5587 -1.09751 -1.01183e-15)
(8.34573 -1.05993 3.65588e-16)
(9.10801 -1.0248 -4.06596e-16)
(9.84666 -0.991568 -1.04302e-15)
(10.5625 -0.959832 2.39353e-15)
(11.2564 -0.92932 1.64023e-16)
(11.9288 -0.899845 -1.53102e-16)
(12.5805 -0.871277 -4.94895e-16)
(13.212 -0.843515 -1.54377e-16)
(13.8238 -0.816472 -1.03114e-15)
(14.4163 -0.790079 1.00191e-15)
(14.99 -0.764301 -1.26304e-15)
(15.5453 -0.739144 2.40864e-15)
(16.0826 -0.714632 -1.12791e-15)
(16.6024 -0.690789 3.27572e-16)
(17.1052 -0.667623 -4.08074e-16)
(17.5916 -0.645145 4.5335e-16)
(18.0619 -0.623396 4.16366e-16)
(18.5168 -0.602421 -9.61159e-17)
(18.9569 -0.582236 -8.4902e-16)
(19.3826 -0.562828 -1.20324e-16)
(19.7945 -0.544166 4.12113e-16)
(20.1932 -0.526212 1.55492e-16)
(20.5791 -0.508932 -9.07523e-16)
(20.9526 -0.492302 7.57603e-16)
(21.3143 -0.476308 2.06645e-16)
(21.6646 -0.460946 -3.15673e-16)
(22.0039 -0.446209 1.45811e-16)
(22.3327 -0.432087 -2.31334e-16)
(22.6514 -0.418563 -2.2773e-16)
(22.9605 -0.405615 7.37952e-16)
(23.2602 -0.393212 -3.82419e-16)
(23.551 -0.381326 1.36993e-16)
(23.8333 -0.369934 -8.02257e-16)
(24.1074 -0.359018 6.00924e-16)
(24.3737 -0.348558 2.41353e-16)
(24.6324 -0.338529 -5.31355e-16)
(24.8839 -0.328899 -3.34226e-16)
(25.1285 -0.31964 2.88567e-16)
(25.3664 -0.310723 1.82254e-16)
(25.598 -0.302123 1.16646e-18)
(25.8233 -0.29382 5.58773e-16)
(26.0428 -0.285796 -7.65336e-16)
(26.2565 -0.278037 5.20233e-16)
(26.4646 -0.270535 -3.9639e-16)
(26.6674 -0.263281 -1.96312e-16)
(26.865 -0.256272 8.57389e-16)
(27.0576 -0.249503 -1.46061e-16)
(27.2454 -0.242967 -2.34814e-16)
(27.4286 -0.236663 2.07156e-16)
(27.6073 -0.230588 -2.81586e-16)
(27.7817 -0.22474 -2.11449e-16)
(27.952 -0.219119 1.98043e-16)
(28.1183 -0.213727 -1.05351e-16)
(28.2808 -0.208559 -2.3583e-16)
(28.4396 -0.203607 4.44004e-16)
(28.5948 -0.198865 -8.09907e-17)
(28.7467 -0.194327 -1.42658e-16)
(28.8954 -0.189987 -1.98492e-16)
(29.041 -0.185833 2.70867e-17)
(29.1836 -0.181844 1.79676e-16)
(29.3234 -0.178004 1.52829e-16)
(29.4604 -0.1743 7.37495e-17)
(29.5948 -0.17072 -2.09598e-17)
(29.7265 -0.167257 -3.22658e-16)
(29.8558 -0.163908 2.59525e-16)
(29.9826 -0.160668 1.86462e-16)
(30.1071 -0.157536 -1.61892e-16)
(30.2293 -0.154514 -2.3546e-16)
(30.3493 -0.151601 1.00695e-17)
(30.4672 -0.148797 7.97304e-17)
(30.5831 -0.146107 -3.93442e-17)
(30.6969 -0.143525 5.65699e-18)
(30.8089 -0.14105 -9.37415e-18)
(30.9192 -0.138685 9.82575e-18)
(31.0276 -0.136421 -9.09965e-17)
(31.1345 -0.134247 2.09325e-16)
(31.2398 -0.132102 -9.29962e-17)
(31.3436 -0.129975 -7.25655e-17)
(31.4459 -0.127896 4.1436e-17)
(31.5467 -0.12589 2.29829e-17)
(31.6461 -0.123932 1.79181e-17)
(31.744 -0.121961 -2.39909e-17)
(31.8403 -0.11992 1.37586e-17)
(31.9352 -0.117758 -8.6293e-17)
(32.0284 -0.115394 3.68914e-17)
(32.1195 -0.112699 -1.24158e-17)
(32.2094 -0.109504 2.48141e-18)
(32.3165 -0.104636 -1.92909e-17)
(2.54078 -3.19568 -4.94287e-15)
(3.3279 -2.9223 1.05403e-15)
(4.2087 -2.70999 2.00605e-15)
(5.08199 -2.53562 1.9645e-15)
(5.93305 -2.38364 -1.44167e-15)
(6.75922 -2.25693 -4.09593e-15)
(7.56506 -2.14924 4.23751e-15)
(8.35203 -2.05332 7.16872e-16)
(9.1211 -1.96852 -1.27773e-15)
(9.87046 -1.89278 -6.41803e-16)
(10.5992 -1.824 7.5542e-16)
(11.3074 -1.76069 3.16746e-15)
(11.9954 -1.70165 -1.21143e-15)
(12.6636 -1.64588 -2.51798e-15)
(13.3123 -1.59281 3.41151e-15)
(13.9418 -1.54195 -1.50875e-15)
(14.5524 -1.49293 -1.18068e-15)
(15.1445 -1.4455 3.98516e-16)
(15.7185 -1.39948 -6.06004e-16)
(16.2746 -1.35472 1.40477e-15)
(16.8133 -1.3111 -2.01862e-15)
(17.3349 -1.26852 1.97216e-16)
(17.8396 -1.22692 -7.48315e-16)
(18.3279 -1.18634 1.65492e-15)
(18.8002 -1.14683 -3.92874e-16)
(19.2571 -1.10844 1.18678e-15)
(19.6988 -1.07117 -4.38657e-16)
(20.126 -1.03502 -1.12209e-15)
(20.5392 -1.00006 -5.49029e-16)
(20.9387 -0.966321 -8.47828e-17)
(21.3251 -0.933851 5.68413e-16)
(21.6989 -0.902638 7.95634e-16)
(22.0606 -0.872641 -1.37364e-15)
(22.4106 -0.843796 9.85799e-16)
(22.7493 -0.816046 3.83659e-16)
(23.0772 -0.789347 -7.55117e-16)
(23.3947 -0.763676 1.56985e-15)
(23.7021 -0.739018 -1.36917e-15)
(24 -0.715359 2.53323e-16)
(24.2886 -0.692687 -5.07951e-16)
(24.5683 -0.670975 2.39366e-16)
(24.8396 -0.65018 -2.2943e-16)
(25.1027 -0.630253 3.60698e-16)
(25.358 -0.611147 1.62605e-16)
(25.6058 -0.592831 -2.98847e-16)
(25.8464 -0.575282 8.99739e-16)
(26.0801 -0.558472 -5.60908e-16)
(26.3071 -0.542362 -5.57062e-16)
(26.5278 -0.526897 8.47225e-16)
(26.7424 -0.512033 -9.15923e-16)
(26.9512 -0.497728 -1.50106e-17)
(27.1543 -0.483946 1.57871e-15)
(27.3519 -0.470652 -2.06137e-15)
(27.5443 -0.457821 1.68786e-15)
(27.7317 -0.445433 -1.13528e-15)
(27.9143 -0.433471 1.54818e-16)
(28.0922 -0.42192 7.1855e-16)
(28.2656 -0.410771 -3.78491e-16)
(28.4348 -0.400015 -1.7903e-16)
(28.5998 -0.389647 2.5659e-16)
(28.7608 -0.379654 -8.38446e-18)
(28.918 -0.370027 -2.11068e-16)
(29.0715 -0.360757 -2.43626e-16)
(29.2215 -0.351846 3.03523e-17)
(29.3681 -0.343294 2.93117e-16)
(29.5115 -0.335093 -1.46957e-16)
(29.6517 -0.327225 3.86268e-16)
(29.7889 -0.319676 -1.93371e-16)
(29.9232 -0.312445 -2.2404e-17)
(30.0547 -0.305525 -4.67495e-16)
(30.1835 -0.298898 4.34601e-16)
(30.3097 -0.292531 2.25422e-16)
(30.4333 -0.286397 5.65106e-17)
(30.5546 -0.280471 -2.99662e-16)
(30.6735 -0.274741 2.3548e-16)
(30.79 -0.269198 -8.7109e-17)
(30.9044 -0.263833 -2.00446e-17)
(31.0166 -0.258642 -3.21425e-16)
(31.1267 -0.253622 2.52443e-16)
(31.2348 -0.248772 7.27314e-17)
(31.3409 -0.244094 -2.37219e-16)
(31.4451 -0.239591 8.38137e-17)
(31.5476 -0.235266 8.20555e-17)
(31.6484 -0.231123 -1.76496e-16)
(31.7475 -0.227156 -3.4365e-18)
(31.845 -0.223359 3.22103e-16)
(31.9411 -0.219723 6.67039e-17)
(32.0357 -0.216218 -6.62397e-17)
(32.129 -0.2128 -1.73716e-16)
(32.221 -0.209456 -2.39616e-17)
(32.3117 -0.206194 -6.91771e-17)
(32.4011 -0.203032 3.35018e-17)
(32.4893 -0.199916 1.26475e-16)
(32.5762 -0.196797 -5.06662e-17)
(32.6619 -0.193582 4.33472e-17)
(32.7463 -0.190188 -7.13023e-17)
(32.8293 -0.186476 7.2917e-17)
(32.9106 -0.182198 -2.97701e-17)
(32.9911 -0.177105 -1.32372e-17)
(33.0868 -0.171078 1.46405e-17)
(10.5268 -3.8424 1.82094e-15)
(10.8028 -3.53604 -4.70181e-16)
(11.2241 -3.34378 3.79694e-15)
(11.7575 -3.18561 -3.14161e-15)
(12.3304 -3.03361 2.58061e-15)
(12.9162 -2.89743 1.12674e-15)
(13.5077 -2.77872 2.5228e-16)
(14.1009 -2.67208 3.74967e-16)
(14.6915 -2.5744 -8.34767e-16)
(15.2756 -2.48406 -9.55899e-16)
(15.8503 -2.39994 -2.54532e-15)
(16.4139 -2.321 3.26984e-15)
(16.9654 -2.24635 -3.34632e-15)
(17.5037 -2.17501 2.28754e-15)
(18.0284 -2.10636 -1.05481e-15)
(18.5392 -2.03999 -2.79275e-16)
(19.0358 -1.97566 1.17726e-15)
(19.5182 -1.91313 -2.56592e-16)
(19.9864 -1.85226 -4.52903e-16)
(20.4402 -1.79292 -8.59147e-16)
(20.8798 -1.73501 2.36205e-15)
(21.3055 -1.67844 -5.65195e-16)
(21.7174 -1.62316 1.51807e-16)
(22.1158 -1.56926 1.50624e-15)
(22.5012 -1.51685 -4.00675e-15)
(22.874 -1.46599 2.86201e-15)
(23.2347 -1.41667 -3.1582e-15)
(23.5835 -1.36886 4.37245e-15)
(23.921 -1.32269 -2.45324e-15)
(24.2476 -1.27821 1.60583e-15)
(24.5636 -1.23539 1.24605e-15)
(24.8694 -1.19417 -3.43784e-15)
(25.1653 -1.15453 8.70768e-16)
(25.4517 -1.11639 -5.74969e-16)
(25.7288 -1.07968 1.12577e-15)
(25.9971 -1.04437 -1.30044e-16)
(26.2569 -1.01043 -2.29916e-15)
(26.5085 -0.977847 2.01632e-15)
(26.7522 -0.946587 -2.70288e-16)
(26.9884 -0.916627 3.0593e-16)
(27.2174 -0.887928 4.52303e-16)
(27.4394 -0.860435 3.89436e-16)
(27.6548 -0.83408 4.20651e-17)
(27.8637 -0.808796 -9.32407e-16)
(28.0664 -0.784548 2.62613e-17)
(28.2631 -0.761316 -1.28314e-16)
(28.4542 -0.739068 -3.95087e-16)
(28.6398 -0.717744 1.73296e-15)
(28.8201 -0.697263 -7.2426e-16)
(28.9954 -0.677574 2.59697e-16)
(29.1657 -0.658629 3.48972e-16)
(29.3314 -0.640386 -5.28141e-16)
(29.4927 -0.622805 -6.04448e-16)
(29.6496 -0.605856 1.27398e-15)
(29.8023 -0.589509 -1.20487e-15)
(29.9512 -0.573746 -1.17333e-16)
(30.0962 -0.558549 1.25785e-15)
(30.2377 -0.543908 -8.27046e-16)
(30.3757 -0.529802 2.83586e-16)
(30.5105 -0.516213 1.57929e-16)
(30.6421 -0.503128 -6.14232e-16)
(30.7707 -0.490531 7.92524e-16)
(30.8963 -0.478405 -2.69309e-16)
(31.0192 -0.466749 -7.526e-16)
(31.1394 -0.455569 4.23687e-16)
(31.2571 -0.444842 -5.5994e-17)
(31.3722 -0.434529 9.10439e-16)
(31.485 -0.424611 -1.55758e-15)
(31.5954 -0.415095 1.39757e-15)
(31.7035 -0.405983 -6.55056e-17)
(31.8095 -0.397247 -5.54088e-16)
(31.9133 -0.388839 7.40593e-16)
(32.0151 -0.380722 -4.938e-16)
(32.1149 -0.372871 2.42108e-16)
(32.2126 -0.365274 -4.14406e-16)
(32.3085 -0.357922 -6.36997e-17)
(32.4025 -0.350811 2.31869e-16)
(32.4948 -0.343933 -8.65018e-17)
(32.5853 -0.337287 -2.90307e-16)
(32.6741 -0.330868 2.80167e-16)
(32.7614 -0.324678 4.09761e-16)
(32.8471 -0.318722 -7.08206e-17)
(32.9314 -0.313006 2.39908e-16)
(33.0143 -0.30754 -2.93617e-16)
(33.0958 -0.302309 -2.11589e-16)
(33.1761 -0.297305 -7.77797e-17)
(33.2552 -0.292507 1.79064e-17)
(33.3332 -0.287888 1.19254e-16)
(33.41 -0.2834 2.15679e-16)
(33.4858 -0.279023 -4.40083e-16)
(33.5606 -0.274771 3.29649e-16)
(33.6343 -0.270651 -1.72209e-16)
(33.707 -0.2666 3.56256e-17)
(33.7788 -0.262555 1.41859e-16)
(33.8497 -0.258399 -1.27912e-17)
(33.9196 -0.254022 -1.17748e-16)
(33.9885 -0.24924 9.12925e-17)
(34.0561 -0.243725 -3.76398e-17)
(34.1233 -0.237185 -2.59887e-18)
(34.2034 -0.229816 -1.37239e-17)
(19.7135 -4.02465 -6.50291e-15)
(19.6127 -3.77453 -2.69957e-15)
(19.6173 -3.65589 3.80217e-15)
(19.8044 -3.55185 -9.94445e-16)
(20.0753 -3.4346 -1.09847e-15)
(20.3803 -3.31757 2.72498e-15)
(20.7106 -3.20907 -2.77361e-15)
(21.0626 -3.10766 -1.19389e-15)
(21.4297 -3.01125 1.16306e-15)
(21.8059 -2.91897 1.21705e-15)
(22.1866 -2.83048 -2.51348e-15)
(22.5682 -2.74538 3.83657e-15)
(22.9481 -2.66314 -2.82641e-15)
(23.3241 -2.58312 3.89857e-15)
(23.6947 -2.5051 -2.95921e-15)
(24.0584 -2.42885 -2.00148e-15)
(24.4145 -2.35424 1.03634e-15)
(24.762 -2.28113 2.62133e-15)
(25.1005 -2.20944 1.04365e-15)
(25.4294 -2.13919 -2.37169e-15)
(25.7487 -2.07038 2.15301e-15)
(26.0585 -2.00305 6.82051e-17)
(26.3588 -1.93719 -1.53842e-16)
(26.65 -1.87301 -1.56642e-15)
(26.9322 -1.81067 1.42393e-15)
(27.2059 -1.75022 -3.28131e-16)
(27.4712 -1.69165 -3.32003e-15)
(27.7284 -1.63493 2.04023e-15)
(27.9779 -1.58012 3.85084e-16)
(28.2197 -1.52719 9.4711e-16)
(28.454 -1.47614 -3.55623e-15)
(28.6808 -1.42698 2.3705e-16)
(28.9003 -1.37967 3.11584e-15)
(29.1129 -1.33416 -1.68634e-16)
(29.3187 -1.29037 -2.4665e-15)
(29.518 -1.24825 -6.97739e-16)
(29.7111 -1.20779 3.48545e-15)
(29.8982 -1.16896 -9.33055e-16)
(30.0795 -1.13172 -9.80093e-16)
(30.2552 -1.09601 9.18822e-16)
(30.4256 -1.06179 7.92286e-16)
(30.5907 -1.02899 1.27929e-15)
(30.7507 -0.997528 -3.53617e-15)
(30.9059 -0.967318 2.30129e-15)
(31.0563 -0.938334 2.96155e-16)
(31.2023 -0.910551 -1.78947e-15)
(31.3439 -0.883936 6.20248e-17)
(31.4814 -0.858413 -3.63314e-16)
(31.6148 -0.833871 1.32316e-15)
(31.7444 -0.810276 8.39157e-16)
(31.8702 -0.787579 -4.92862e-16)
(31.9925 -0.765741 -6.80113e-16)
(32.1114 -0.74472 -3.2437e-17)
(32.2272 -0.72449 3.04017e-16)
(32.3399 -0.705013 -2.45058e-16)
(32.4497 -0.686263 9.5523e-17)
(32.5568 -0.668216 -6.09136e-16)
(32.6613 -0.650854 1.26027e-15)
(32.7633 -0.634161 -1.04469e-15)
(32.863 -0.618111 1.26933e-15)
(32.9604 -0.602665 -1.81703e-15)
(33.0557 -0.587798 2.76888e-16)
(33.149 -0.573471 6.23259e-16)
(33.2402 -0.559692 -1.10725e-16)
(33.3296 -0.546475 4.89677e-16)
(33.4171 -0.533776 -1.27528e-15)
(33.5028 -0.521549 7.87243e-16)
(33.5867 -0.50977 -5.61041e-16)
(33.669 -0.498458 -2.58897e-16)
(33.7497 -0.487614 1.68324e-15)
(33.8287 -0.477197 -1.38242e-15)
(33.9062 -0.467138 6.46666e-16)
(33.9821 -0.457404 -2.97609e-16)
(34.0564 -0.447979 7.78952e-18)
(34.1293 -0.438858 6.92928e-16)
(34.2007 -0.430037 -4.73245e-16)
(34.2708 -0.421515 -2.17925e-16)
(34.3396 -0.413284 1.90474e-16)
(34.4071 -0.405336 3.98628e-16)
(34.4733 -0.397666 -3.50172e-16)
(34.5384 -0.390271 -3.34112e-16)
(34.6024 -0.383153 7.29063e-16)
(34.6653 -0.376327 -5.07425e-16)
(34.7272 -0.369799 9.6419e-17)
(34.7881 -0.363552 -2.19336e-16)
(34.848 -0.357577 1.88798e-16)
(34.907 -0.351841 2.26486e-16)
(34.9651 -0.346326 -8.38873e-17)
(35.0224 -0.340982 1.32727e-16)
(35.0789 -0.335782 3.02236e-16)
(35.1345 -0.330768 -3.18613e-16)
(35.1894 -0.325934 4.12367e-16)
(35.2436 -0.321202 -3.34243e-16)
(35.2972 -0.316505 1.74511e-16)
(35.3502 -0.311691 1.16322e-16)
(35.4027 -0.306643 -3.69764e-17)
(35.4546 -0.301138 4.48384e-17)
(35.5059 -0.294799 -6.69573e-17)
(35.557 -0.28729 7.97116e-17)
(35.6185 -0.27888 3.82525e-17)
(29.0281 -3.90965 7.20025e-16)
(28.7834 -3.76608 -2.40918e-15)
(28.5584 -3.72773 -7.18142e-16)
(28.5047 -3.67911 7.17859e-15)
(28.5403 -3.60748 2.62793e-18)
(28.6096 -3.52518 -3.38861e-15)
(28.7049 -3.43981 1.80745e-15)
(28.8271 -3.3538 -2.09292e-15)
(28.9719 -3.26775 5.18679e-16)
(29.1346 -3.18209 3.82426e-15)
(29.3096 -3.09733 -7.44853e-16)
(29.4939 -3.01362 -9.12424e-15)
(29.6835 -2.93089 2.82251e-15)
(29.8766 -2.84889 6.38264e-15)
(30.0713 -2.76777 -1.12145e-16)
(30.2659 -2.68753 -3.30901e-15)
(30.4597 -2.60816 -2.38757e-15)
(30.6514 -2.52987 -4.11287e-16)
(30.8407 -2.45283 1.34598e-15)
(31.027 -2.37709 2.72896e-16)
(31.2102 -2.30265 2.25172e-15)
(31.3897 -2.22953 -2.67088e-16)
(31.5656 -2.15785 -2.76406e-15)
(31.7379 -2.08793 6.99031e-16)
(31.9063 -2.01993 -6.5305e-16)
(32.0708 -1.95385 3.48651e-16)
(32.2313 -1.88963 -2.92865e-16)
(32.3877 -1.82719 -7.63541e-16)
(32.5399 -1.76671 2.49429e-15)
(32.6877 -1.70832 -2.09505e-15)
(32.8312 -1.65189 1.84482e-15)
(32.9705 -1.59741 2.95868e-16)
(33.1057 -1.54486 1.08876e-15)
(33.2368 -1.49416 -1.48129e-15)
(33.3639 -1.44531 -5.35752e-16)
(33.4871 -1.39829 -1.11616e-15)
(33.6066 -1.3531 2.07272e-15)
(33.7225 -1.3097 -1.8289e-15)
(33.835 -1.268 -7.48498e-16)
(33.9439 -1.22792 1.7203e-15)
(34.0494 -1.1894 5.01895e-16)
(34.1515 -1.15242 4.21269e-16)
(34.2503 -1.11693 -1.62255e-16)
(34.3459 -1.08289 -1.33287e-16)
(34.4388 -1.05023 -9.5314e-16)
(34.5287 -1.01892 -2.08821e-15)
(34.616 -0.988885 3.91406e-15)
(34.7004 -0.96008 -2.66509e-15)
(34.7823 -0.932437 -1.17593e-15)
(34.8617 -0.905926 1.97625e-15)
(34.9388 -0.880478 -1.2931e-15)
(35.0137 -0.85604 1.55648e-15)
(35.0866 -0.832557 -1.41263e-16)
(35.1576 -0.810009 4.91837e-17)
(35.2268 -0.788343 -1.32995e-15)
(35.2942 -0.767526 3.03963e-16)
(35.3601 -0.747519 -6.33889e-16)
(35.4245 -0.728302 4.15501e-16)
(35.4875 -0.70984 2.56983e-16)
(35.5491 -0.692105 -3.99509e-16)
(35.6094 -0.675051 6.48618e-16)
(35.6685 -0.658649 -1.18102e-16)
(35.7264 -0.642839 8.85001e-16)
(35.7832 -0.627601 2.77336e-16)
(35.8387 -0.612949 7.36954e-18)
(35.8932 -0.598847 -2.75521e-17)
(35.9464 -0.58528 -8.38413e-16)
(35.9988 -0.572219 1.86675e-16)
(36.0501 -0.559654 -8.52048e-17)
(36.1006 -0.547563 -3.68339e-16)
(36.15 -0.535893 -2.76858e-16)
(36.1984 -0.524589 4.73298e-16)
(36.2458 -0.513656 -7.48403e-16)
(36.2922 -0.503082 -1.50126e-16)
(36.3378 -0.492869 8.1603e-16)
(36.3824 -0.483017 -6.45422e-17)
(36.4263 -0.473522 -5.76112e-16)
(36.4694 -0.464368 -5.70213e-16)
(36.5119 -0.455533 1.42173e-15)
(36.5536 -0.447015 -4.40779e-16)
(36.5947 -0.438804 -8.36753e-18)
(36.6351 -0.430892 -8.42466e-17)
(36.6749 -0.423287 -2.28359e-16)
(36.7141 -0.415994 3.27015e-16)
(36.7526 -0.408999 -4.02791e-16)
(36.7904 -0.402274 4.036e-16)
(36.8275 -0.395813 -5.53015e-17)
(36.864 -0.389582 3.30238e-16)
(36.8998 -0.383531 -5.93686e-16)
(36.9349 -0.377675 3.63264e-18)
(36.9693 -0.372082 3.62045e-17)
(37.0033 -0.366754 -5.1993e-17)
(37.037 -0.361594 -8.86983e-17)
(37.0704 -0.356528 -1.66637e-16)
(37.1037 -0.351356 1.9519e-16)
(37.1369 -0.345991 -2.04725e-17)
(37.17 -0.340169 5.79683e-17)
(37.2031 -0.333498 -1.2032e-16)
(37.2366 -0.325568 -4.93298e-17)
(37.2776 -0.316649 4.2795e-18)
(36.8843 -3.66473 -1.064e-15)
(36.5711 -3.64912 2.9329e-16)
(36.2302 -3.68046 -4.65356e-15)
(36.0442 -3.66953 2.22847e-15)
(35.9535 -3.62989 3.89396e-15)
(35.901 -3.57846 2.12882e-15)
(35.8734 -3.51944 -5.33191e-16)
(35.8706 -3.4541 -8.42276e-15)
(35.891 -3.3836 1.88106e-16)
(35.9293 -3.30944 5.48851e-15)
(35.9814 -3.23264 -2.76984e-16)
(36.0434 -3.15405 -1.60907e-16)
(36.1128 -3.07454 4.33132e-15)
(36.1876 -2.99391 -9.09197e-16)
(36.266 -2.91287 -5.20368e-16)
(36.3469 -2.83165 -6.94369e-16)
(36.429 -2.75062 -1.62868e-15)
(36.5115 -2.66994 -2.33199e-15)
(36.5939 -2.5898 -9.91371e-16)
(36.6756 -2.5106 6.23085e-15)
(36.7563 -2.4327 7.6806e-16)
(36.8356 -2.3563 -4.6384e-15)
(36.9134 -2.28133 -1.47546e-15)
(36.9899 -2.20818 -3.5878e-15)
(37.064 -2.13685 6.21411e-15)
(37.1358 -2.06741 -2.54717e-15)
(37.2051 -1.99994 2.31131e-15)
(37.2722 -1.93452 1.34828e-15)
(37.3365 -1.87097 -3.13351e-15)
(37.3984 -1.80937 1.24345e-15)
(37.4581 -1.74987 1.86419e-16)
(37.5156 -1.69245 -1.19005e-15)
(37.571 -1.63717 2.68328e-15)
(37.6242 -1.58398 -3.13691e-15)
(37.6754 -1.53277 5.17375e-16)
(37.7246 -1.48348 7.29076e-16)
(37.7719 -1.43609 -1.18813e-16)
(37.8172 -1.39049 7.87966e-16)
(37.8607 -1.34665 -1.08012e-15)
(37.9023 -1.30454 1.16173e-15)
(37.9424 -1.26413 -1.53399e-15)
(37.981 -1.22538 1.66427e-15)
(38.0183 -1.18819 -1.48594e-15)
(38.0543 -1.15232 7.95418e-16)
(38.0891 -1.11783 1.16146e-15)
(38.1224 -1.08468 5.43639e-16)
(38.1546 -1.05285 -1.16884e-15)
(38.1853 -1.02234 1.34216e-15)
(38.215 -0.992924 -2.44677e-15)
(38.2435 -0.964662 1.49264e-15)
(38.2709 -0.93751 -4.32494e-16)
(38.2974 -0.911426 2.35236e-16)
(38.323 -0.886372 -1.30571e-15)
(38.3477 -0.862341 2.72858e-15)
(38.3718 -0.839272 -1.36572e-15)
(38.3952 -0.817133 -2.18211e-15)
(38.418 -0.795864 1.64044e-15)
(38.4403 -0.775419 -5.20775e-17)
(38.4621 -0.755742 -1.15244e-15)
(38.4834 -0.736832 -1.11027e-15)
(38.5042 -0.718654 3.05151e-15)
(38.5246 -0.701228 -1.95693e-15)
(38.5447 -0.684417 1.95094e-15)
(38.5645 -0.668272 -9.82061e-16)
(38.584 -0.652827 9.55761e-17)
(38.6032 -0.637994 4.36092e-16)
(38.6222 -0.62368 -1.14635e-15)
(38.6409 -0.609789 -1.40971e-16)
(38.6593 -0.596412 8.68745e-16)
(38.6772 -0.583559 -6.10395e-16)
(38.6948 -0.571234 5.11964e-16)
(38.712 -0.559317 5.61282e-17)
(38.729 -0.547793 -6.82813e-16)
(38.7457 -0.536669 -7.75916e-17)
(38.7623 -0.525939 1.34506e-15)
(38.7786 -0.515586 -4.98654e-16)
(38.7949 -0.5056 -3.424e-16)
(38.811 -0.495978 4.88408e-16)
(38.8271 -0.486689 -2.43882e-16)
(38.8431 -0.477716 3.89462e-16)
(38.8589 -0.469079 4.03291e-16)
(38.8747 -0.46072 -1.09338e-15)
(38.8904 -0.452595 9.83434e-17)
(38.9058 -0.444754 4.33085e-16)
(38.9209 -0.43719 -7.00545e-16)
(38.9357 -0.42983 8.83609e-16)
(38.9501 -0.42269 -3.2071e-16)
(38.9637 -0.415775 -4.64248e-16)
(38.9769 -0.409163 7.65061e-17)
(38.9895 -0.402842 5.26446e-17)
(39.0019 -0.396901 1.04968e-16)
(39.014 -0.391324 -1.27256e-16)
(39.0262 -0.38601 8.6675e-17)
(39.0385 -0.380874 4.17716e-18)
(39.051 -0.375662 5.77611e-17)
(39.064 -0.370412 -2.04179e-17)
(39.0775 -0.364784 3.55964e-17)
(39.0918 -0.358408 -2.6774e-17)
(39.1071 -0.350758 -4.7308e-17)
(39.1272 -0.342044 -4.05326e-17)
(42.7141 -3.31868 1.77107e-15)
(42.3317 -3.42106 -2.66194e-15)
(41.8965 -3.51999 4.3775e-15)
(41.5951 -3.55098 -3.02147e-15)
(41.3957 -3.5481 -4.87289e-15)
(41.2488 -3.5317 4.17644e-15)
(41.1364 -3.50412 1.80724e-15)
(41.0547 -3.4652 5.3165e-17)
(41.0014 -3.41646 -7.51786e-17)
(40.9715 -3.35976 2.83006e-15)
(40.9613 -3.29668 -2.89465e-15)
(40.9664 -3.22858 -1.92742e-15)
(40.9845 -3.15681 -4.42162e-15)
(41.0129 -3.08216 3.42408e-15)
(41.049 -3.00523 -5.4292e-16)
(41.0913 -2.92666 -1.3342e-15)
(41.1377 -2.84704 5.46069e-16)
(41.1873 -2.76701 6.80772e-15)
(41.2386 -2.68693 -6.24513e-15)
(41.2911 -2.60708 -1.13873e-15)
(41.3435 -2.52786 2.17532e-15)