/*--------------------------------*- C++ -*----------------------------------*\
  =========                 |
  \\      /  F ield         | OpenFOAM: The Open Source CFD Toolbox
   \\    /   O peration     | Website:  https://openfoam.org
    \\  /    A nd           | Version:  8
     \\/     M anipulation  |
\*---------------------------------------------------------------------------*/
FoamFile
{
    version     2.0;
    format      ascii;
    class       volScalarField;
    location    "1";
    object      N;
}
// * * * * * * * * * * * * * * * * * * * * * * * * * * * * * * * * * * * * * //

dimensions      [0 -3 0 0 0 0 0];

internalField   nonuniform List<scalar> 
200
(
35641145
0.10158085
0.10072767
0.10029294
0.10010356
0.10003233
0.10000896
0.10000221
0.10000048
0.10000008
0.1
0.099999985
0.099999983
0.099999982
0.099999982
0.099999982
0.099999982
0.099999982
0.099999982
0.099999982
0.099999982
0.099999982
0.099999982
0.099999982
0.099999982
0.099999982
0.099999982
0.099999982
0.099999982
0.099999982
0.099999982
0.099999982
0.099999982
0.099999982
0.099999982
0.099999982
0.099999982
0.099999982
0.099999982
0.099999982
0.099999982
0.099999982
0.099999982
0.099999982
0.099999982
0.099999982
0.099999982
0.099999982
0.099999982
0.099999982
0.099999982
0.099999982
0.099999982
0.099999982
0.099999982
0.099999982
0.099999982
0.099999982
0.099999982
0.099999982
0.099999982
0.099999982
0.099999982
0.099999982
0.099999982
0.099999982
0.099999982
0.099999982
0.099999982
0.099999982
0.099999982
0.099999982
0.099999982
0.099999982
0.099999982
0.099999982
0.099999982
0.099999982
0.099999982
0.099999982
0.099999982
0.099999982
0.099999982
0.099999982
0.099999982
0.099999982
0.099999982
0.099999982
0.099999982
0.099999982
0.099999982
0.099999982
0.099999982
0.099999982
0.099999982
0.099999982
0.099999982
0.099999982
0.099999982
0.099999982
0.099999982
0.099999982
0.099999982
0.099999982
0.099999982
0.099999982
0.099999982
0.099999982
0.099999982
0.099999982
0.099999982
0.099999982
0.099999982
0.099999982
0.099999982
0.099999982
0.099999982
0.099999982
0.099999982
0.099999982
0.099999982
0.099999982
0.099999982
0.099999982
0.099999982
0.099999982
0.099999982
0.099999982
0.099999982
0.099999982
0.099999983
0.099999982
0.099999983
0.099999982
0.099999983
0.099999982
0.099999983
0.099999982
0.099999983
0.099999981
0.099999984
0.099999981
0.099999984
0.09999998
0.099999985
0.09999998
0.099999986
0.099999979
0.099999987
0.099999977
0.099999989
0.099999976
0.099999991
0.099999974
0.099999993
0.099999971
0.099999996
0.099999969
0.099999999
0.099999965
0.1
0.099999961
0.10000001
0.099999956
0.10000001
0.099999951
0.10000002
0.099999944
0.10000003
0.099999937
0.10000003
0.099999929
0.10000004
0.09999992
0.10000005
0.099999909
0.10000007
0.099999896
0.10000008
0.099999882
0.10000009
0.099999866
0.10000011
0.099999848
0.10000013
0.099999827
0.10000015
0.099999804
0.10000018
0.099999777
0.10000021
0.099999746
0.10000023
0.09999972
0.10000028
0.099999669
0.10000031
0.099999638
0.10000036
0.09999957
)
;

boundaryField
{
    left
    {
        type            zeroGradient;
    }
    right
    {
        type            zeroGradient;
    }
    walls
    {
        type            zeroGradient;
    }
    centreline
    {
        type            zeroGradient;
    }
    frontAndBack
    {
        type            zeroGradient;
    }
}


// ************************************************************************* //
