/*--------------------------------*- C++ -*----------------------------------*\
  =========                 |
  \\      /  F ield         | OpenFOAM: The Open Source CFD Toolbox
   \\    /   O peration     | Website:  https://openfoam.org
    \\  /    A nd           | Version:  8
     \\/     M anipulation  |
\*---------------------------------------------------------------------------*/
FoamFile
{
    version     2.0;
    format      ascii;
    class       volScalarField;
    location    "1";
    object      p;
}
// * * * * * * * * * * * * * * * * * * * * * * * * * * * * * * * * * * * * * //

dimensions      [1 -1 -2 0 0 0 0];

internalField   nonuniform List<scalar> 
200
(
4246.9991
4246.9991
4246.9991
4246.9991
4246.9991
4246.9991
4246.9991
4246.9991
4246.9991
4246.9991
4246.9991
4246.9991
4246.9991
4246.9991
4246.9991
4246.9991
4246.9991
4246.9991
4246.9991
4246.9991
4246.9991
4246.9991
4246.9991
4246.9991
4246.9991
4246.9991
4246.9991
4246.9991
4246.9991
4246.9991
4246.9991
4246.9991
4246.9991
4246.9991
4246.9991
4246.9991
4246.9991
4246.9991
4246.9991
4246.9991
4246.9991
4246.9991
4246.9991
4246.9991
4246.9991
4246.9991
4246.9991
4246.9991
4246.9991
4246.9991
4246.9991
4246.9991
4246.9991
4246.9991
4246.9991
4246.9991
4246.9991
4246.9991
4246.9991
4246.9991
4246.9991
4246.9991
4246.9991
4246.9991
4246.9991
4246.9991
4246.9991
4246.9991
4246.9991
4246.9991
4246.9991
4246.9991
4246.9991
4246.9991
4246.9991
4246.9991
4246.9991
4246.9991
4246.9991
4246.9991
4246.9991
4246.9991
4246.9991
4246.9991
4246.9991
4246.9991
4246.9991
4246.9991
4246.9991
4246.9991
4246.9991
4246.9991
4246.9991
4246.9991
4246.9991
4246.9991
4246.9991
4246.9991
4246.9991
4246.9991
4246.9991
4246.9991
4246.9991
4246.9991
4246.9991
4246.9991
4246.9991
4246.9991
4246.9991
4246.9991
4246.9991
4246.9991
4246.9991
4246.9991
4246.9991
4246.9991
4246.9991
4246.9991
4246.9991
4246.9991
4246.9991
4246.9991
4246.9991
4246.9991
4246.9992
4246.9991
4246.9992
4246.9991
4246.9992
4246.9991
4246.9992
4246.9991
4246.9992
4246.9991
4246.9992
4246.9991
4246.9992
4246.9991
4246.9992
4246.9991
4246.9992
4246.9991
4246.9993
4246.9991
4246.9993
4246.999
4246.9993
4246.999
4246.9994
4246.9989
4246.9995
4246.9988
4246.9996
4246.9987
4246.9997
4246.9986
4246.9998
4246.9985
4247
4246.9983
4247.0002
4246.9981
4247.0004
4246.9979
4247.0007
4246.9976
4247.001
4246.9973
4247.0013
4246.997
4247.0017
4246.9966
4247.0021
4246.9961
4247.0026
4246.9956
4247.0032
4246.995
4247.0039
4246.9943
4247.0046
4246.9935
4247.0054
4246.9926
4247.0064
4246.9916
4247.0075
4246.9904
4247.0088
4246.9891
4247.0102
4246.9876
4247.012
4246.9857
4247.0134
4246.9843
4247.0157
4246.9819
4247.0177
4246.9798
)
;

boundaryField
{
    left
    {
        type            zeroGradient;
    }
    right
    {
        type            zeroGradient;
    }
    walls
    {
        type            zeroGradient;
    }
    centreline
    {
        type            fixedValue;
        value           uniform 4247;
    }
    frontAndBack
    {
        type            zeroGradient;
    }
}


// ************************************************************************* //
