/*--------------------------------*- C++ -*----------------------------------*\
  =========                 |
  \\      /  F ield         | OpenFOAM: The Open Source CFD Toolbox
   \\    /   O peration     | Website:  https://openfoam.org
    \\  /    A nd           | Version:  8
     \\/     M anipulation  |
\*---------------------------------------------------------------------------*/
FoamFile
{
    version     2.0;
    format      ascii;
    class       surfaceScalarField;
    location    "1";
    object      phi;
}
// * * * * * * * * * * * * * * * * * * * * * * * * * * * * * * * * * * * * * //

dimensions      [1 0 -1 0 0 0 0];

internalField   nonuniform List<scalar> 
199
(
-4.1428442e-05
-8.3060058e-05
-0.00011406837
-0.00013228654
-0.00014106073
-0.00014462436
-0.00014588202
-0.0001462891
-0.0001464282
-0.00014649404
-0.00014654243
-0.00014658732
-0.00014663171
-0.00014667618
-0.00014672079
-0.00014676554
-0.00014681045
-0.00014685555
-0.00014690088
-0.00014694649
-0.00014699242
-0.0001470387
-0.00014708534
-0.00014713236
-0.00014717974
-0.00014722747
-0.00014727554
-0.00014732392
-0.0001473726
-0.00014742157
-0.00014747083
-0.00014752038
-0.00014757023
-0.00014762038
-0.00014767085
-0.00014772162
-0.00014777271
-0.00014782411
-0.00014787582
-0.00014792784
-0.00014798016
-0.00014803278
-0.0001480857
-0.00014813893
-0.00014819247
-0.00014824632
-0.00014830049
-0.00014835498
-0.00014840981
-0.00014846496
-0.00014852045
-0.00014857627
-0.00014863242
-0.0001486889
-0.00014874571
-0.00014880285
-0.00014886031
-0.0001489181
-0.00014897622
-0.00014903466
-0.00014909342
-0.0001491525
-0.0001492119
-0.00014927161
-0.00014933164
-0.00014939198
-0.00014945262
-0.00014951358
-0.00014957483
-0.00014963639
-0.00014969824
-0.00014976038
-0.00014982282
-0.00014988554
-0.00014994855
-0.00015001185
-0.00015007543
-0.0001501393
-0.00015020345
-0.00015026787
-0.00015033257
-0.00015039755
-0.0001504628
-0.00015052832
-0.0001505941
-0.00015066015
-0.00015072645
-0.00015079302
-0.00015085983
-0.0001509269
-0.00015099423
-0.0001510618
-0.00015112962
-0.00015119769
-0.00015126601
-0.00015133459
-0.00015140343
-0.00015147253
-0.0001515419
-0.00015161155
-0.00015168148
-0.00015175171
-0.00015182223
-0.00015189306
-0.00015196421
-0.00015203567
-0.00015210746
-0.00015217957
-0.000152252
-0.00015232475
-0.00015239781
-0.00015247117
-0.00015254481
-0.00015261872
-0.00015269288
-0.00015276725
-0.00015284181
-0.00015291654
-0.00015299139
-0.00015306633
-0.00015314133
-0.00015321636
-0.00015329138
-0.00015336637
-0.00015344129
-0.00015351613
-0.00015359087
-0.00015366549
-0.00015373999
-0.00015381438
-0.00015388863
-0.0001539628
-0.00015403685
-0.00015411085
-0.00015418476
-0.00015425869
-0.00015433255
-0.0001544065
-0.0001544804
-0.00015455447
-0.00015462848
-0.00015470274
-0.0001547769
-0.00015485141
-0.00015492569
-0.00015500048
-0.00015507479
-0.00015514989
-0.00015522408
-0.00015529949
-0.00015537332
-0.00015544908
-0.00015552227
-0.00015559839
-0.00015567061
-0.0001557471
-0.00015581798
-0.00015589486
-0.00015596404
-0.00015604126
-0.0001561084
-0.00015618583
-0.00015625071
-0.00015632811
-0.00015639063
-0.0001564676
-0.00015652787
-0.00015660382
-0.00015666218
-0.00015673627
-0.00015679337
-0.00015686447
-0.00015692129
-0.00015698796
-0.00015704585
-0.00015710629
-0.00015716692
-0.000157219
-0.00015728439
-0.0001573257
-0.00015739805
-0.00015742596
-0.00015750758
-0.0001575194
-0.00015761241
-0.00015760555
-0.0001577113
-0.000157684
-0.00015781403
-0.00015769086
-0.00015707803
-0.00015871916
-0.00017471581
-0.00015796226
-0.0001429775
-0.00015769684
-0.00016955425
-0.00015834114
-0.00015285721
)
;

boundaryField
{
    left
    {
        type            calculated;
        value           uniform 0;
    }
    right
    {
        type            calculated;
        value           uniform 0;
    }
    walls
    {
        type            calculated;
        value           uniform 0;
    }
    centreline
    {
        type            calculated;
        value           uniform -0.00015745219;
    }
    frontAndBack
    {
        type            calculated;
        value           uniform 0;
    }
}


// ************************************************************************* //
