/*--------------------------------*- C++ -*----------------------------------*\
  =========                 |
  \\      /  F ield         | OpenFOAM: The Open Source CFD Toolbox
   \\    /   O peration     | Website:  https://openfoam.org
    \\  /    A nd           | Version:  8
     \\/     M anipulation  |
\*---------------------------------------------------------------------------*/
FoamFile
{
    version     2.0;
    format      ascii;
    class       volVectorField;
    location    "1";
    object      U;
}
// * * * * * * * * * * * * * * * * * * * * * * * * * * * * * * * * * * * * * //

dimensions      [0 1 -1 0 0 0 0];

internalField   nonuniform List<vector> 
200
(
(0 -0.00013845388 0)
(0 -0.00050000667 0)
(0 -0.000835485 0)
(0 -0.0010308461 0)
(0 -0.0011407981 0)
(0 -0.00118132 0)
(0 -0.0011993514 0)
(0 -0.0012031679 0)
(0 -0.0012056221 0)
(0 -0.0012057762 0)
(0 -0.0012065161 0)
(0 -0.0012066909 0)
(0 -0.0012071811 0)
(0 -0.0012074676 0)
(0 -0.001207884 0)
(0 -0.00120822 0)
(0 -0.0012086091 0)
(0 -0.0012089666 0)
(0 -0.0012093471 0)
(0 -0.0012097161 0)
(0 -0.0012100965 0)
(0 -0.0012104739 0)
(0 -0.001210858 0)
(0 -0.0012112428 0)
(0 -0.0012116321 0)
(0 -0.0012120233 0)
(0 -0.001212418 0)
(0 -0.001212815 0)
(0 -0.0012132147 0)
(0 -0.0012136166 0)
(0 -0.0012140211 0)
(0 -0.0012144278 0)
(0 -0.0012148371 0)
(0 -0.0012152488 0)
(0 -0.001215663 0)
(0 -0.0012160798 0)
(0 -0.0012164992 0)
(0 -0.0012169212 0)
(0 -0.0012173457 0)
(0 -0.0012177727 0)
(0 -0.0012182023 0)
(0 -0.0012186343 0)
(0 -0.0012190688 0)
(0 -0.0012195058 0)
(0 -0.0012199453 0)
(0 -0.0012203874 0)
(0 -0.0012208321 0)
(0 -0.0012212795 0)
(0 -0.0012217296 0)
(0 -0.0012221824 0)
(0 -0.0012226379 0)
(0 -0.0012230962 0)
(0 -0.0012235572 0)
(0 -0.0012240209 0)
(0 -0.0012244873 0)
(0 -0.0012249565 0)
(0 -0.0012254283 0)
(0 -0.0012259028 0)
(0 -0.00122638 0)
(0 -0.0012268599 0)
(0 -0.0012273424 0)
(0 -0.0012278276 0)
(0 -0.0012283153 0)
(0 -0.0012288057 0)
(0 -0.0012292987 0)
(0 -0.0012297943 0)
(0 -0.0012302924 0)
(0 -0.001230793 0)
(0 -0.0012312961 0)
(0 -0.0012318017 0)
(0 -0.0012323098 0)
(0 -0.0012328203 0)
(0 -0.0012333331 0)
(0 -0.0012338484 0)
(0 -0.001234366 0)
(0 -0.0012348861 0)
(0 -0.0012354084 0)
(0 -0.0012359332 0)
(0 -0.00123646 0)
(0 -0.0012369896 0)
(0 -0.0012375208 0)
(0 -0.0012380552 0)
(0 -0.0012385906 0)
(0 -0.00123913 0)
(0 -0.0012396691 0)
(0 -0.0012402138 0)
(0 -0.001240756 0)
(0 -0.0012413067 0)
(0 -0.0012418508 0)
(0 -0.0012424087 0)
(0 -0.001242953 0)
(0 -0.0012435203 0)
(0 -0.0012440618 0)
(0 -0.0012446424 0)
(0 -0.0012451758 0)
(0 -0.0012457767 0)
(0 -0.0012462931 0)
(0 -0.001246926 0)
(0 -0.0012474105 0)
(0 -0.0012480952 0)
(0 -0.0012485226 0)
(0 -0.001249292 0)
(0 -0.0012496206 0)
(0 -0.0012505289 0)
(0 -0.0012506898 0)
(0 -0.0012518256 0)
(0 -0.0012517062 0)
(0 -0.0012532132 0)
(0 -0.0012526313 0)
(0 -0.0012547403 0)
(0 -0.0012534042 0)
(0 -0.001256483 0)
(0 -0.0012539292 0)
(0 -0.0012585588 0)
(0 -0.0012540581 0)
(0 -0.0012611491 0)
(0 -0.0012535639 0)
(0 -0.0012645306 0)
(0 -0.0012521021 0)
(0 -0.0012691215 0)
(0 -0.0012491563 0)
(0 -0.0012755474 0)
(0 -0.001243961 0)
(0 -0.0012847304 0)
(0 -0.0012353986 0)
(0 -0.0012980088 0)
(0 -0.0012218659 0)
(0 -0.0013172846 0)
(0 -0.0012011128 0)
(0 -0.001345196 0)
(0 -0.0011700642 0)
(0 -0.0013852978 0)
(0 -0.0011246444 0)
(0 -0.0014422236 0)
(0 -0.0010596356 0)
(0 -0.0015217988 0)
(0 -0.00096859999 0)
(0 -0.0016310763 0)
(0 -0.00084389085 0)
(0 -0.0017782752 0)
(0 -0.00067676282 0)
(0 -0.0019726214 0)
(0 -0.00045757594 0)
(0 -0.0022241042 0)
(0 -0.00017606972 0)
(0 -0.0025431801 0)
(0 0.00017833087 0)
(0 -0.0029404677 0)
(0 0.00061622144 0)
(0 -0.0034264746 0)
(0 0.0011479732 0)
(0 -0.0040113867 0)
(0 0.0017835604 0)
(0 -0.004704935 0)
(0 0.0025324655 0)
(0 -0.005516338 0)
(0 0.0034036565 0)
(0 -0.0064543126 0)
(0 0.004405627 0)
(0 -0.007527139 0)
(0 0.0055464837 0)
(0 -0.0087427683 0)
(0 0.0068340707 0)
(0 -0.010108962 0)
(0 0.008276121 0)
(0 -0.011633453 0)
(0 0.0098804229 0)
(0 -0.013324118 0)
(0 0.011654997 0)
(0 -0.015189152 0)
(0 0.013608267 0)
(0 -0.017237239 0)
(0 0.015749225 0)
(0 -0.019477707 0)
(0 0.018087573 0)
(0 -0.021920652 0)
(0 0.020633834 0)
(0 -0.024577037 0)
(0 0.02339943 0)
(0 -0.027458742 0)
(0 0.026396706 0)
(0 -0.030578571 0)
(0 0.029638916 0)
(0 -0.033950196 0)
(0 0.033140136 0)
(0 -0.037588058 0)
(0 0.036915144 0)
(0 -0.041507201 0)
(0 0.040979249 0)
(0 -0.045722937 0)
(0 0.045347806 0)
(0 -0.050252455 0)
(0 0.050038007 0)
(0 -0.055044365 0)
(0 0.054996556 0)
(0 -0.060234504 0)
(0 0.060360071 0)
(0 -0.065798193 0)
(0 0.066104149 0)
(0 -0.071737034 0)
)
;

boundaryField
{
    left
    {
        type            noSlip;
    }
    right
    {
        type            noSlip;
    }
    walls
    {
        type            noSlip;
    }
    centreline
    {
        type            noSlip;
    }
    frontAndBack
    {
        type            noSlip;
    }
}


// ************************************************************************* //
