/*--------------------------------*- C++ -*----------------------------------*\
  =========                 |
  \\      /  F ield         | OpenFOAM: The Open Source CFD Toolbox
   \\    /   O peration     | Website:  https://openfoam.org
    \\  /    A nd           | Version:  8
     \\/     M anipulation  |
\*---------------------------------------------------------------------------*/
FoamFile
{
    version     2.0;
    format      ascii;
    class       volScalarField;
    location    "2.50002999";
    object      alphat;
}
// * * * * * * * * * * * * * * * * * * * * * * * * * * * * * * * * * * * * * //

dimensions      [1 -1 -1 0 0 0 0];

internalField   nonuniform List<scalar> 
6800
(
0.0456439
0.0650155
0.0660955
0.0641529
0.0641227
0.0550422
0.0442699
0.0331458
0.0271288
0.0277761
0.0345938
0.057005
0.0612036
0.0620337
0.0577026
0.0450222
0.0332968
0.0288911
0.0267221
0.0225195
0.0347522
0.0549612
0.060699
0.0577483
0.0476017
0.0353151
0.0298449
0.0263178
0.0205297
0.0186203
0.0351864
0.0541754
0.0578251
0.0532812
0.0404143
0.0329537
0.0271968
0.0220671
0.0191277
0.0179037
0.0349318
0.0532965
0.0562836
0.0482578
0.035551
0.0282693
0.0230365
0.0206406
0.0181634
0.0155108
0.034952
0.0543519
0.0543356
0.0417559
0.0318223
0.0270919
0.0229962
0.0192327
0.016049
0.0147131
0.0346244
0.055289
0.0522818
0.0387375
0.0311895
0.0244441
0.0199788
0.0169423
0.0153353
0.0143175
0.034571
0.0571308
0.0488959
0.033529
0.0267337
0.0234178
0.0191801
0.0170221
0.0145582
0.0134685
0.0343853
0.0583685
0.0439617
0.0351412
0.0286524
0.0216387
0.0175558
0.0153826
0.0138319
0.0132122
0.0344846
0.0596676
0.041782
0.0305665
0.0232524
0.0209399
0.0171385
0.0152775
0.0136093
0.0126862
0.342552
0.487116
0.557368
0.582108
0.584979
0.592551
0.603863
0.61732
0.626392
0.630371
0.288945
0.447248
0.524129
0.555857
0.556224
0.55961
0.565416
0.569616
0.56749
0.56478
0.0456341
0.274715
0.448002
0.503321
0.508531
0.508387
0.505708
0.504002
0.503364
0.495777
0.0401716
0.20345
0.387494
0.442443
0.448041
0.437768
0.430608
0.420115
0.399071
0.35736
0.193161
0.254166
0.356404
0.380321
0.370394
0.357536
0.339575
0.300849
0.270063
0.207106
0.212059
0.258967
0.309914
0.306566
0.299926
0.267368
0.227014
0.17164
0.139356
0.0997178
0.0430483
0.188295
0.248962
0.243629
0.208992
0.155291
0.114903
0.0887658
0.0810156
0.0628603
0.220904
0.194772
0.176501
0.16219
0.113148
0.0900886
0.0770468
0.0643799
0.0616858
0.0500355
0.196158
0.164908
0.139619
0.0946925
0.0785729
0.0710129
0.0628061
0.0561614
0.0538953
0.0391899
0.12641
0.0908194
0.0788657
0.0706503
0.0678022
0.0637882
0.0553829
0.0487581
0.035167
0.0283338
0.63286
0.626201
0.615507
0.603863
0.592824
0.582907
0.574165
0.566742
0.560494
0.555117
0.550421
0.546295
0.542644
0.5394
0.536499
0.533881
0.531498
0.529312
0.527292
0.52541
0.523646
0.521984
0.520407
0.518911
0.517483
0.516104
0.514769
0.513479
0.512233
0.511019
0.509841
0.508702
0.507606
0.506555
0.505552
0.504595
0.503686
0.502823
0.502008
0.501239
0.500516
0.49984
0.499214
0.498638
0.498112
0.497635
0.497204
0.496816
0.496472
0.496166
0.495894
0.495652
0.495433
0.495232
0.495046
0.494871
0.494702
0.494538
0.494377
0.494218
0.494059
0.493902
0.493747
0.493594
0.493444
0.493299
0.493159
0.493027
0.492902
0.492785
0.492678
0.492581
0.492493
0.492417
0.49235
0.492293
0.492245
0.492207
0.492175
0.492153
0.492134
0.492123
0.492113
0.492113
0.492107
0.492117
0.49211
0.492133
0.492119
0.492161
0.49213
0.492205
0.492143
0.492266
0.492176
0.492347
0.492205
0.492491
0.49192
0.493241
0.566814
0.565292
0.558995
0.551666
0.544491
0.537845
0.531879
0.526851
0.522572
0.518878
0.51567
0.512883
0.510459
0.508358
0.50652
0.50489
0.50343
0.50211
0.500904
0.499788
0.498746
0.497766
0.496836
0.495961
0.495097
0.494225
0.493369
0.492546
0.491736
0.490925
0.490145
0.489408
0.488716
0.488071
0.48747
0.486911
0.486392
0.485909
0.485465
0.485054
0.484681
0.484352
0.484069
0.483829
0.48363
0.483471
0.483344
0.483257
0.483207
0.483187
0.483188
0.483205
0.483234
0.48327
0.48331
0.483349
0.483387
0.483421
0.48345
0.483473
0.483491
0.483503
0.48351
0.483513
0.483512
0.483512
0.483511
0.483511
0.483514
0.483522
0.483535
0.483556
0.483585
0.483623
0.483669
0.483723
0.483785
0.483855
0.48393
0.484013
0.484098
0.48419
0.484281
0.484381
0.484471
0.484578
0.484663
0.48478
0.484853
0.484987
0.485038
0.485202
0.485218
0.485432
0.485412
0.485675
0.485602
0.485989
0.485455
0.486919
0.499051
0.5004
0.495509
0.490091
0.484945
0.480293
0.476269
0.472346
0.468798
0.465788
0.46327
0.461201
0.459522
0.458212
0.457161
0.456311
0.45564
0.45512
0.454718
0.454407
0.454168
0.453983
0.453847
0.453743
0.453697
0.453719
0.453799
0.453899
0.45409
0.454379
0.454723
0.455099
0.455491
0.455892
0.456292
0.45669
0.457082
0.457467
0.457849
0.458216
0.458616
0.459048
0.459496
0.459953
0.460413
0.460875
0.461339
0.461797
0.462243
0.46268
0.463107
0.463525
0.463933
0.464329
0.464712
0.46508
0.465433
0.465768
0.466088
0.466389
0.466678
0.466946
0.467194
0.467428
0.46765
0.467869
0.468073
0.46827
0.468465
0.468663
0.468865
0.469073
0.469288
0.469509
0.469736
0.469969
0.470208
0.470453
0.470701
0.470955
0.471207
0.471464
0.471714
0.471972
0.472215
0.472473
0.472702
0.472965
0.473173
0.473448
0.473626
0.47393
0.474067
0.47442
0.474514
0.474921
0.474941
0.47549
0.475022
0.476729
0.356
0.35811
0.35864
0.358945
0.359579
0.360587
0.361914
0.363751
0.365963
0.368471
0.371025
0.373617
0.376238
0.378992
0.381579
0.384098
0.386537
0.388956
0.391276
0.393483
0.395578
0.397565
0.399457
0.40126
0.402989
0.404658
0.406275
0.407857
0.409375
0.410835
0.412262
0.413658
0.415022
0.416352
0.41764
0.41889
0.420098
0.421275
0.422406
0.423536
0.424587
0.425571
0.426513
0.427431
0.428332
0.429229
0.430115
0.431003
0.431884
0.432753
0.43361
0.434456
0.435289
0.436105
0.436903
0.43768
0.438435
0.439166
0.439873
0.440557
0.441218
0.441863
0.442498
0.44312
0.443734
0.444333
0.444942
0.445556
0.44617
0.446784
0.447394
0.448003
0.448607
0.449209
0.449802
0.450398
0.450992
0.451585
0.452169
0.452747
0.453311
0.45387
0.454408
0.454947
0.455455
0.455976
0.456451
0.456959
0.457396
0.457903
0.458294
0.458818
0.459145
0.459706
0.459975
0.460583
0.460768
0.461518
0.461148
0.463168
0.200325
0.19785
0.197441
0.198928
0.201953
0.206329
0.21156
0.217377
0.223669
0.230446
0.236846
0.243217
0.249806
0.256782
0.262373
0.268466
0.274112
0.280002
0.285436
0.290614
0.295572
0.300327
0.304909
0.309325
0.313603
0.317739
0.32176
0.325655
0.329454
0.333125
0.336709
0.340161
0.34348
0.346652
0.349679
0.352584
0.355378
0.358073
0.360688
0.363219
0.365708
0.368155
0.370555
0.372916
0.375225
0.377506
0.379719
0.381922
0.38404
0.386095
0.388107
0.390073
0.391985
0.393841
0.395634
0.397365
0.399031
0.400635
0.402178
0.403665
0.405098
0.406484
0.407827
0.409134
0.410408
0.411655
0.412871
0.414063
0.415233
0.416387
0.417522
0.418641
0.419743
0.420828
0.421898
0.422942
0.423953
0.424941
0.4259
0.426844
0.427758
0.428662
0.429531
0.430399
0.431223
0.43206
0.432836
0.433652
0.434376
0.435185
0.435851
0.436671
0.437266
0.43812
0.438649
0.439552
0.439976
0.44104
0.440874
0.44329
0.0982956
0.0976711
0.097389
0.097679
0.0984437
0.0998415
0.101672
0.104041
0.106986
0.110463
0.11395
0.117721
0.122314
0.126677
0.132116
0.137784
0.144003
0.150455
0.156992
0.163605
0.170288
0.176974
0.18365
0.190255
0.196817
0.203257
0.209642
0.215872
0.222034
0.228002
0.233909
0.239373
0.244558
0.249425
0.254105
0.258754
0.263289
0.267735
0.272097
0.27639
0.280615
0.284781
0.288887
0.292942
0.296919
0.300874
0.304664
0.30857
0.312063
0.315578
0.319137
0.322568
0.325868
0.329059
0.332127
0.335093
0.337947
0.34071
0.343373
0.345949
0.348449
0.350881
0.35325
0.355564
0.357825
0.360041
0.362209
0.364338
0.366422
0.36847
0.370472
0.372441
0.374361
0.37625
0.378085
0.379895
0.381652
0.383377
0.385059
0.386711
0.388309
0.389884
0.391399
0.392904
0.394336
0.39578
0.397131
0.398526
0.399794
0.401158
0.402341
0.403696
0.404781
0.406152
0.407141
0.408554
0.409397
0.410963
0.411192
0.414162
0.0621062
0.0613245
0.0606382
0.0601683
0.0597928
0.0595715
0.0594463
0.0595006
0.059685
0.0600274
0.0605495
0.0611315
0.0620332
0.062888
0.0639548
0.0649699
0.066339
0.0676601
0.0696393
0.071545
0.0739102
0.0764249
0.0792138
0.0822251
0.0855308
0.089082
0.0929191
0.0969586
0.101281
0.105802
0.110571
0.115719
0.121363
0.127266
0.133293
0.139437
0.145644
0.151906
0.158178
0.16445
0.170687
0.176881
0.183006
0.189057
0.195003
0.200863
0.206578
0.2122
0.217677
0.222875
0.227822
0.232556
0.237132
0.241619
0.245954
0.250218
0.25435
0.258435
0.262339
0.266202
0.270016
0.273765
0.277442
0.281057
0.284599
0.288084
0.291493
0.294849
0.298123
0.301339
0.304463
0.307531
0.310498
0.31342
0.316232
0.319022
0.321658
0.324314
0.326905
0.329427
0.331853
0.33426
0.336576
0.338881
0.341079
0.3433
0.345388
0.347541
0.34952
0.351623
0.353487
0.355563
0.357298
0.359372
0.360969
0.363077
0.364492
0.366738
0.36753
0.371138
0.0494514
0.0487492
0.0480463
0.0473848
0.0466396
0.0459658
0.0452113
0.0444896
0.0436403
0.0428642
0.0419269
0.0411182
0.0402117
0.039465
0.0388539
0.0382753
0.0378458
0.0374459
0.0372202
0.0370313
0.0370119
0.0370139
0.0372004
0.0373832
0.0377758
0.0382753
0.0387458
0.0394086
0.0403093
0.041312
0.0424544
0.0437523
0.0452338
0.0469368
0.0488471
0.051017
0.0534049
0.0560653
0.0589533
0.0621298
0.0655497
0.0692566
0.0731965
0.0774114
0.08183
0.0865012
0.0913277
0.0963778
0.10152
0.106973
0.112613
0.118482
0.124381
0.130321
0.136236
0.142144
0.147983
0.153769
0.159454
0.16505
0.170533
0.175922
0.181187
0.186356
0.191395
0.196341
0.201152
0.205882
0.210402
0.214807
0.219015
0.223147
0.22714
0.231102
0.234921
0.238739
0.242399
0.246086
0.249598
0.25319
0.256546
0.260034
0.263303
0.266579
0.269721
0.272934
0.27594
0.279062
0.281921
0.284966
0.28766
0.290646
0.293154
0.296107
0.298412
0.301392
0.303424
0.306516
0.30815
0.312321
0.0380607
0.0369965
0.0359773
0.0349238
0.0338971
0.0329021
0.0319831
0.0311119
0.0303518
0.0296168
0.0290242
0.028393
0.0277588
0.0271056
0.0265462
0.0260498
0.025622
0.0252344
0.0249013
0.024595
0.0243368
0.0240959
0.0239002
0.0237167
0.0235756
0.0234447
0.02336
0.0232759
0.023242
0.0232102
0.0232371
0.023259
0.0233507
0.02343
0.0236358
0.023883
0.0240179
0.0242728
0.0246038
0.0250207
0.0255329
0.0261295
0.0267829
0.0275759
0.0284412
0.0294635
0.0305806
0.031888
0.0333019
0.0349232
0.0366641
0.0386516
0.0407812
0.0431823
0.0457317
0.0485607
0.0515386
0.0547933
0.0581904
0.0618545
0.0656457
0.0696905
0.0738404
0.0782229
0.0826826
0.0873468
0.0920556
0.0969345
0.101898
0.107059
0.112241
0.117567
0.122786
0.128094
0.133245
0.138466
0.143486
0.148569
0.153413
0.158325
0.162968
0.16769
0.172118
0.176657
0.180849
0.18522
0.189182
0.193411
0.197144
0.201191
0.20463
0.20855
0.211705
0.215579
0.218457
0.222367
0.225023
0.228954
0.231505
0.236114
0.0278371
0.0269506
0.0260667
0.0253364
0.0247091
0.0241532
0.0236485
0.0231834
0.0227549
0.0223522
0.0219724
0.0216186
0.0212847
0.020972
0.0206773
0.0204043
0.0201495
0.0199151
0.0196972
0.019498
0.0193128
0.019144
0.0189864
0.0188435
0.0187092
0.0185887
0.0184737
0.0183734
0.018275
0.0181928
0.0181091
0.0180446
0.0179718
0.0179254
0.0178612
0.0178245
0.0177872
0.0177624
0.0177229
0.0177089
0.0176837
0.0176928
0.0176895
0.0177236
0.0177537
0.0178047
0.0178856
0.0179883
0.0181055
0.018173
0.0183365
0.0184831
0.0186965
0.0189729
0.0192011
0.0195684
0.0198465
0.0203258
0.0207319
0.021328
0.0218782
0.0226458
0.0233693
0.0243467
0.0252788
0.0265053
0.0276785
0.0291885
0.0306333
0.0324618
0.0342112
0.0363898
0.0384652
0.0410064
0.0434076
0.0463097
0.049024
0.0522744
0.055277
0.0588544
0.0621099
0.0659864
0.0694491
0.0735918
0.0772086
0.081581
0.0852935
0.089862
0.0936074
0.0984264
0.102214
0.107244
0.110987
0.116196
0.119708
0.125024
0.128231
0.133568
0.137711
0.142254
0.0225611
0.0220669
0.0215879
0.0211317
0.020704
0.0203055
0.0199304
0.0195837
0.0192565
0.018957
0.0186844
0.0184382
0.0182105
0.018004
0.0178103
0.0176342
0.0174662
0.0173133
0.0171665
0.0170338
0.0169042
0.0167873
0.0166714
0.0165676
0.016463
0.0163702
0.0162753
0.0161916
0.0161047
0.0160286
0.0159481
0.0158784
0.0158031
0.0157393
0.0156681
0.0156099
0.0155419
0.0154883
0.0154276
0.0153813
0.0153267
0.0152874
0.0152384
0.0152059
0.0151626
0.0151363
0.0150985
0.0150788
0.0150462
0.0150332
0.0150054
0.0149988
0.0149778
0.0149781
0.0149655
0.0149724
0.014969
0.0149833
0.0149908
0.0150154
0.0150356
0.0150753
0.0151128
0.0151717
0.0152474
0.0153132
0.0153856
0.0155144
0.0156076
0.0157817
0.0159008
0.0161391
0.0162953
0.0166112
0.0168194
0.0172303
0.017505
0.018037
0.0183898
0.019074
0.0195147
0.0203932
0.0209355
0.0220408
0.0227063
0.0240656
0.0248804
0.0265149
0.0274945
0.0294327
0.0305848
0.0328611
0.0341882
0.0368255
0.0383369
0.0413245
0.0428571
0.046229
0.0477397
0.0531458
0.0187
0.0184701
0.018244
0.0180214
0.0177964
0.0175692
0.0173502
0.0171372
0.0169373
0.0167466
0.0165698
0.016402
0.0162468
0.0160997
0.0159635
0.0158342
0.0157137
0.0155994
0.01549
0.0153848
0.0152837
0.015187
0.015094
0.0150059
0.014921
0.0148413
0.0147642
0.0146924
0.0146223
0.0145575
0.0144935
0.0144348
0.0143761
0.0143228
0.014269
0.0142208
0.0141712
0.0141278
0.0140821
0.014043
0.0140006
0.0139651
0.0139252
0.0138928
0.0138551
0.0138255
0.0137898
0.0137629
0.0137292
0.013705
0.0136734
0.0136517
0.0136226
0.0136034
0.0135767
0.0135599
0.0135354
0.0135208
0.013498
0.0134855
0.0134641
0.0134526
0.0134307
0.0134207
0.0133984
0.0133924
0.0133714
0.0133716
0.013353
0.0133602
0.0133447
0.0133584
0.0133474
0.0133663
0.0133615
0.0133848
0.0133887
0.0134151
0.013431
0.0134588
0.0134924
0.0135274
0.0135823
0.013634
0.0137004
0.0137711
0.0138229
0.0139406
0.0140134
0.0141716
0.0142923
0.0145081
0.0146337
0.0149737
0.0150783
0.015575
0.0156201
0.0166358
0.0164526
0.0179849
0.0161454
0.0160172
0.0158857
0.0157457
0.0156038
0.0154582
0.0153157
0.0151726
0.0150354
0.0148993
0.0147703
0.0146431
0.0145238
0.0144063
0.0142969
0.0141891
0.0140894
0.013991
0.0139005
0.0138113
0.0137295
0.0136487
0.0135749
0.0135018
0.0134352
0.0133692
0.013309
0.0132493
0.013195
0.0131413
0.0130923
0.0130439
0.0129999
0.0129564
0.0129168
0.0128778
0.012842
0.0128069
0.0127745
0.012743
0.0127136
0.0126852
0.0126584
0.0126329
0.0126083
0.0125854
0.0125628
0.0125423
0.0125213
0.0125031
0.0124835
0.0124673
0.0124489
0.0124346
0.0124173
0.0124047
0.0123882
0.0123773
0.0123615
0.0123521
0.0123369
0.012329
0.0123143
0.0123078
0.0122935
0.0122884
0.0122742
0.0122705
0.0122565
0.0122542
0.0122403
0.0122393
0.0122253
0.0122258
0.0122116
0.0122136
0.0121991
0.0122028
0.0121879
0.0121932
0.012178
0.0121852
0.0121698
0.0121798
0.0121642
0.012177
0.0121617
0.0121771
0.0121628
0.012181
0.0121689
0.0121904
0.0121822
0.0122072
0.0122046
0.0122339
0.0122416
0.0122721
0.0122899
0.0123578
0.0143901
0.0143169
0.0142391
0.0141513
0.0140603
0.0139636
0.0138685
0.0137709
0.0136777
0.0135836
0.0134954
0.0134072
0.0133257
0.0132442
0.0131699
0.0130953
0.013028
0.0129599
0.0128993
0.0128374
0.0127828
0.0127266
0.0126775
0.0126262
0.0125819
0.0125349
0.0124948
0.0124515
0.0124152
0.0123751
0.0123421
0.0123051
0.0122751
0.0122409
0.0122138
0.0121821
0.0121575
0.0121282
0.0121059
0.0120785
0.0120582
0.0120327
0.0120142
0.0119903
0.0119735
0.0119511
0.0119358
0.0119148
0.0119008
0.0118811
0.0118683
0.0118497
0.0118381
0.0118205
0.0118099
0.0117931
0.0117834
0.0117674
0.0117586
0.0117433
0.0117352
0.0117206
0.0117132
0.0116992
0.0116924
0.011679
0.0116729
0.01166
0.0116543
0.011642
0.0116368
0.011625
0.0116203
0.0116088
0.0116045
0.0115934
0.0115895
0.0115788
0.0115752
0.0115647
0.0115615
0.0115512
0.0115483
0.0115381
0.0115355
0.0115255
0.0115231
0.0115133
0.0115109
0.0115013
0.011499
0.0114894
0.0114872
0.0114779
0.011475
0.0114646
0.011459
0.0114443
0.0114729
0.0114068
0.0131123
0.0130729
0.0130296
0.0129766
0.0129201
0.0128576
0.0127955
0.0127299
0.0126668
0.0126016
0.0125402
0.0124773
0.012419
0.0123596
0.0123052
0.0122496
0.0121994
0.0121479
0.0121019
0.0120543
0.0120122
0.0119683
0.01193
0.0118896
0.0118548
0.0118175
0.0117859
0.0117516
0.0117229
0.0116912
0.0116652
0.0116358
0.0116123
0.0115849
0.0115636
0.0115381
0.0115187
0.011495
0.0114774
0.0114552
0.0114393
0.0114185
0.011404
0.0113845
0.0113715
0.0113531
0.0113413
0.0113239
0.0113133
0.0112968
0.0112872
0.0112716
0.0112629
0.011248
0.0112402
0.011226
0.0112189
0.0112053
0.0111988
0.0111858
0.0111799
0.0111674
0.0111621
0.01115
0.0111452
0.0111335
0.0111291
0.0111178
0.0111139
0.011103
0.0110994
0.0110888
0.0110855
0.0110753
0.0110723
0.0110624
0.0110596
0.01105
0.0110475
0.0110382
0.0110358
0.0110269
0.0110246
0.0110159
0.0110137
0.0110054
0.0110032
0.0109952
0.010993
0.0109854
0.010983
0.0109759
0.0109733
0.0109665
0.0109638
0.0109574
0.0109545
0.0109485
0.0109449
0.0109379
0.0122279
0.0122099
0.0121896
0.0121596
0.0121268
0.0120872
0.0120481
0.0120044
0.0119629
0.011918
0.0118765
0.0118322
0.0117921
0.0117495
0.0117116
0.0116714
0.0116361
0.0115984
0.0115657
0.0115305
0.0115005
0.0114678
0.0114403
0.0114098
0.0113846
0.0113562
0.0113332
0.0113067
0.0112856
0.0112609
0.0112416
0.0112185
0.0112008
0.0111791
0.011163
0.0111425
0.0111277
0.0111084
0.0110949
0.0110767
0.0110643
0.011047
0.0110357
0.0110193
0.0110089
0.0109933
0.0109838
0.0109688
0.0109602
0.0109458
0.0109378
0.010924
0.0109167
0.0109034
0.0108967
0.0108838
0.0108776
0.0108651
0.0108594
0.0108473
0.010842
0.0108303
0.0108254
0.010814
0.0108094
0.0107983
0.0107941
0.0107833
0.0107794
0.0107689
0.0107652
0.010755
0.0107516
0.0107416
0.0107385
0.0107288
0.0107258
0.0107163
0.0107135
0.0107043
0.0107016
0.0106927
0.01069
0.0106814
0.0106788
0.0106705
0.0106678
0.0106599
0.0106572
0.0106495
0.0106467
0.0106395
0.0106366
0.0106296
0.0106266
0.01062
0.0106167
0.0106105
0.0106082
0.0105993
0.0116201
0.0116138
0.0116062
0.0115897
0.0115708
0.0115452
0.0115201
0.0114899
0.0114618
0.0114295
0.0114003
0.0113674
0.0113385
0.0113062
0.0112782
0.011247
0.0112204
0.0111906
0.0111657
0.0111375
0.0111143
0.0110877
0.0110662
0.011041
0.0110212
0.0109975
0.0109792
0.0109569
0.01094
0.0109189
0.0109033
0.0108834
0.0108691
0.0108502
0.010837
0.0108191
0.0108069
0.0107899
0.0107787
0.0107625
0.0107522
0.0107367
0.0107272
0.0107124
0.0107037
0.0106895
0.0106815
0.0106679
0.0106605
0.0106474
0.0106406
0.010628
0.0106217
0.0106095
0.0106038
0.0105919
0.0105866
0.0105751
0.0105702
0.010559
0.0105545
0.0105436
0.0105394
0.0105288
0.010525
0.0105147
0.010511
0.010501
0.0104976
0.0104878
0.0104847
0.0104751
0.0104722
0.0104629
0.0104601
0.010451
0.0104483
0.0104395
0.0104369
0.0104283
0.0104258
0.0104175
0.0104149
0.0104069
0.0104043
0.0103965
0.010394
0.0103865
0.0103838
0.0103766
0.0103738
0.010367
0.010364
0.0103574
0.010354
0.0103484
0.0103485
0.0103428
0.0103079
0.0103544
0.0111855
0.0111859
0.0111855
0.0111768
0.0111662
0.011149
0.0111325
0.0111108
0.011091
0.0110668
0.0110455
0.0110202
0.0109986
0.0109732
0.010952
0.010927
0.0109067
0.0108825
0.0108633
0.0108401
0.010822
0.0107999
0.0107831
0.010762
0.0107464
0.0107263
0.0107119
0.0106927
0.0106794
0.0106612
0.0106489
0.0106315
0.0106201
0.0106035
0.010593
0.0105771
0.0105675
0.0105522
0.0105433
0.0105287
0.0105205
0.0105064
0.0104988
0.0104852
0.0104783
0.0104651
0.0104587
0.0104459
0.0104401
0.0104277
0.0104223
0.0104102
0.0104053
0.0103935
0.0103889
0.0103775
0.0103733
0.0103621
0.0103582
0.0103473
0.0103437
0.010333
0.0103297
0.0103192
0.0103161
0.0103059
0.010303
0.010293
0.0102903
0.0102806
0.010278
0.0102685
0.0102661
0.0102568
0.0102545
0.0102454
0.0102432
0.0102343
0.0102321
0.0102235
0.0102213
0.0102129
0.0102107
0.0102026
0.0102004
0.0101925
0.0101902
0.0101826
0.0101802
0.010173
0.0101703
0.0101634
0.0101606
0.0101542
0.0101513
0.0101448
0.0101379
0.0101325
0.0101602
0.0100987
0.010871
0.0108755
0.0108791
0.0108749
0.0108692
0.0108573
0.0108461
0.0108299
0.0108155
0.0107967
0.0107806
0.0107605
0.0107437
0.0107231
0.0107064
0.0106859
0.0106697
0.0106496
0.0106342
0.0106146
0.0106001
0.0105812
0.0105675
0.0105494
0.0105367
0.0105192
0.0105074
0.0104906
0.0104796
0.0104634
0.0104533
0.0104377
0.0104284
0.0104133
0.0104047
0.01039
0.0103822
0.010368
0.0103608
0.010347
0.0103404
0.010327
0.010321
0.0103079
0.0103024
0.0102896
0.0102847
0.0102721
0.0102677
0.0102554
0.0102514
0.0102393
0.0102358
0.0102239
0.0102207
0.010209
0.0102062
0.0101946
0.0101922
0.0101808
0.0101787
0.0101673
0.0101656
0.0101543
0.0101528
0.0101417
0.0101405
0.0101295
0.0101285
0.0101176
0.0101168
0.010106
0.0101055
0.0100947
0.0100944
0.0100837
0.0100835
0.0100729
0.0100729
0.0100624
0.0100626
0.0100521
0.0100524
0.010042
0.0100424
0.0100321
0.0100326
0.0100223
0.0100229
0.0100128
0.0100134
0.0100033
0.010004
0.0099943
0.00999415
0.00998471
0.00998877
0.00997662
0.0099727
0.00996355
0.0106351
0.0106425
0.0106479
0.0106464
0.0106434
0.010635
0.0106269
0.0106146
0.0106035
0.0105886
0.0105758
0.0105595
0.010546
0.010529
0.0105152
0.0104981
0.0104846
0.0104677
0.0104547
0.0104381
0.0104257
0.0104096
0.0103979
0.0103823
0.0103714
0.0103562
0.010346
0.0103313
0.0103218
0.0103076
0.0102988
0.010285
0.0102768
0.0102634
0.0102558
0.0102428
0.0102358
0.0102231
0.0102167
0.0102042
0.0101983
0.0101862
0.0101808
0.0101688
0.0101639
0.0101522
0.0101477
0.0101362
0.0101321
0.0101208
0.0101171
0.010106
0.0101027
0.0100916
0.0100887
0.0100778
0.0100751
0.0100643
0.010062
0.0100513
0.0100493
0.0100386
0.0100369
0.0100263
0.0100249
0.0100144
0.0100132
0.0100027
0.0100018
0.00999134
0.00999062
0.00998024
0.00997972
0.00996939
0.00996907
0.00995879
0.00995864
0.0099484
0.00994842
0.00993821
0.00993838
0.00992822
0.00992851
0.00991841
0.00991881
0.00990876
0.00990925
0.00989926
0.00989984
0.00988994
0.00989054
0.00988065
0.00988142
0.00987194
0.00987218
0.00986223
0.00986329
0.00985135
0.0098761
0.00981763
0.0104603
0.0104673
0.0104733
0.0104733
0.010472
0.0104658
0.0104599
0.01045
0.0104413
0.010429
0.0104186
0.0104049
0.0103936
0.0103792
0.0103677
0.0103531
0.0103416
0.0103271
0.0103159
0.0103016
0.0102909
0.0102769
0.0102667
0.0102531
0.0102435
0.0102302
0.0102212
0.0102083
0.0101998
0.0101873
0.0101793
0.0101671
0.0101596
0.0101477
0.0101408
0.0101292
0.0101226
0.0101113
0.0101052
0.0100942
0.0100885
0.0100776
0.0100724
0.0100617
0.0100568
0.0100464
0.0100419
0.0100316
0.0100274
0.0100172
0.0100133
0.0100034
0.00999977
0.00998993
0.0099866
0.00997689
0.0099738
0.00996421
0.00996135
0.00995187
0.00994922
0.00993986
0.00993739
0.00992814
0.00992585
0.00991672
0.00991458
0.00990556
0.00990355
0.00989466
0.00989277
0.009884
0.0098822
0.00987356
0.00987184
0.00986334
0.00986166
0.00985332
0.00985166
0.00984349
0.00984183
0.00983384
0.00983214
0.00982436
0.00982259
0.00981503
0.00981317
0.00980585
0.00980386
0.00979682
0.00979469
0.00978801
0.00978542
0.00977875
0.00977731
0.00977189
0.00976775
0.00976782
0.00973755
0.00977913
0.0103255
0.010332
0.0103383
0.0103391
0.0103389
0.0103342
0.0103298
0.0103216
0.0103146
0.0103042
0.0102955
0.0102838
0.0102742
0.0102618
0.0102518
0.0102391
0.0102292
0.0102165
0.0102067
0.0101942
0.0101848
0.0101724
0.0101634
0.0101514
0.0101428
0.0101311
0.0101229
0.0101115
0.0101038
0.0100926
0.0100853
0.0100744
0.0100675
0.0100568
0.0100503
0.0100399
0.0100338
0.0100236
0.0100178
0.0100078
0.0100024
0.00999249
0.00998741
0.00997772
0.00997295
0.00996341
0.00995894
0.00994955
0.00994535
0.00993609
0.00993215
0.00992302
0.00991933
0.00991031
0.00990685
0.00989794
0.00989468
0.00988587
0.00988281
0.0098741
0.00987121
0.0098626
0.00985988
0.00985136
0.00984879
0.00984037
0.00983793
0.00982961
0.00982729
0.00981908
0.00981686
0.00980876
0.00980662
0.00979863
0.00979656
0.0097887
0.00978668
0.00977894
0.00977695
0.00976935
0.00976736
0.00975992
0.00975791
0.00975063
0.00974859
0.00974149
0.00973938
0.00973249
0.00973028
0.00972361
0.00972133
0.00971495
0.00971227
0.00970583
0.00970438
0.00969915
0.00969508
0.00969537
0.00966559
0.0097065
0.0102243
0.0102302
0.0102364
0.0102374
0.010238
0.010234
0.0102307
0.0102236
0.0102179
0.0102087
0.0102014
0.010191
0.0101828
0.0101717
0.0101631
0.0101517
0.010143
0.0101316
0.010123
0.0101117
0.0101033
0.0100922
0.0100841
0.0100732
0.0100654
0.0100548
0.0100473
0.0100369
0.0100297
0.0100196
0.0100127
0.0100028
0.00999628
0.00998659
0.00998034
0.00997087
0.00996489
0.00995563
0.00994991
0.00994084
0.00993538
0.00992649
0.00992126
0.00991256
0.00990755
0.00989902
0.00989422
0.00988585
0.00988125
0.00987304
0.00986861
0.00986056
0.00985629
0.00984839
0.00984426
0.00983651
0.0098325
0.0098249
0.009821
0.00981356
0.00980974
0.00980246
0.00979872
0.00979159
0.0097879
0.00978095
0.00977729
0.00977052
0.00976688
0.0097603
0.00975665
0.00975027
0.0097466
0.00974043
0.0097367
0.00973076
0.00972696
0.00972126
0.00971735
0.00971192
0.00970788
0.00970274
0.00969852
0.00969369
0.00968928
0.00968479
0.00968015
0.00967602
0.00967111
0.00966737
0.00966216
0.00965892
0.00965324
0.00965026
0.00964501
0.00964249
0.00963277
0.00963371
0.00963304
0.00962502
0.0101491
0.0101544
0.0101604
0.0101611
0.0101621
0.0101582
0.0101556
0.0101489
0.010144
0.0101354
0.010129
0.0101192
0.010112
0.0101015
0.0100939
0.0100831
0.0100754
0.0100645
0.0100569
0.0100461
0.0100386
0.010028
0.0100207
0.0100103
0.0100033
0.00999308
0.00998637
0.00997637
0.00996992
0.00996015
0.00995396
0.0099444
0.00993846
0.00992911
0.00992341
0.00991426
0.00990878
0.00989982
0.00989456
0.00988578
0.00988073
0.00987213
0.00986727
0.00985884
0.00985416
0.0098459
0.00984138
0.00983328
0.00982892
0.00982098
0.00981676
0.00980897
0.00980487
0.00979723
0.00979324
0.00978576
0.00978186
0.00977453
0.0097707
0.00976353
0.00975976
0.00975275
0.00974902
0.00974218
0.00973848
0.00973182
0.00972812
0.00972164
0.00971794
0.00971166
0.00970792
0.00970185
0.00969806
0.00969221
0.00968835
0.00968274
0.00967878
0.00967342
0.00966933
0.00966424
0.00966
0.00965521
0.00965079
0.00964632
0.00964168
0.00963755
0.00963267
0.00962891
0.00962375
0.00962038
0.00961491
0.00961206
0.00960611
0.0096034
0.00959757
0.00959601
0.00958912
0.00959008
0.00956016
0.00960228
0.0100884
0.0100931
0.0100988
0.0100991
0.0101001
0.0100962
0.010094
0.0100874
0.0100831
0.0100747
0.010069
0.0100595
0.0100531
0.0100429
0.0100362
0.0100258
0.0100189
0.0100084
0.0100017
0.00999123
0.00998465
0.00997433
0.00996797
0.00995781
0.00995169
0.00994172
0.00993584
0.00992606
0.00992041
0.00991082
0.00990539
0.00989599
0.00989077
0.00988154
0.00987653
0.00986747
0.00986265
0.00985375
0.00984911
0.00984037
0.0098359
0.00982732
0.009823
0.00981457
0.00981039
0.00980211
0.00979807
0.00978994
0.00978602
0.00977804
0.00977423
0.00976638
0.00976267
0.00975497
0.00975134
0.00974378
0.00974022
0.00973281
0.0097293
0.00972204
0.00971857
0.00971147
0.00970802
0.00970109
0.00969765
0.0096909
0.00968745
0.00968088
0.00967741
0.00967103
0.00966752
0.00966135
0.00965777
0.00965182
0.00964817
0.00964245
0.00963869
0.00963322
0.00962933
0.00962414
0.00962008
0.00961518
0.00961095
0.00960636
0.00960191
0.00959766
0.00959296
0.00958908
0.00958411
0.00958061
0.00957531
0.00957227
0.00956675
0.00956415
0.00955746
0.00955515
0.0095499
0.00954558
0.00954143
0.00953694
0.010041
0.010045
0.0100502
0.0100501
0.0100511
0.0100472
0.0100453
0.0100388
0.010035
0.0100268
0.0100217
0.0100125
0.0100068
0.00999694
0.00999096
0.0099808
0.00997477
0.00996449
0.00995856
0.00994828
0.00994252
0.00993231
0.00992676
0.00991664
0.00991131
0.0099013
0.00989619
0.00988629
0.0098814
0.00987161
0.00986694
0.00985726
0.00985279
0.00984322
0.00983894
0.00982948
0.00982538
0.00981603
0.00981211
0.00980287
0.00979911
0.00978999
0.00978639
0.00977738
0.00977393
0.00976503
0.00976172
0.00975294
0.00974976
0.00974109
0.00973802
0.00972948
0.00972651
0.00971809
0.00971521
0.00970692
0.00970411
0.00969595
0.0096932
0.00968518
0.00968248
0.00967461
0.00967193
0.00966423
0.00966156
0.00965403
0.00965135
0.00964401
0.0096413
0.00963416
0.0096314
0.00962448
0.00962164
0.00961496
0.00961203
0.00960559
0.00960254
0.00959638
0.00959317
0.00958731
0.00958391
0.00957837
0.00957475
0.00956958
0.0095657
0.00956091
0.00955674
0.00955238
0.00954786
0.00954396
0.00953903
0.00953564
0.00953039
0.00952765
0.00952138
0.00951837
0.00950987
0.0095055
0.00953028
0.009476
0.0100072
0.0100107
0.0100153
0.0100148
0.0100155
0.0100115
0.0100095
0.0100031
0.00999924
0.00999125
0.00998625
0.0099772
0.00997156
0.00996187
0.00995595
0.0099459
0.00993992
0.00992968
0.00992378
0.00991345
0.0099077
0.00989734
0.00989177
0.00988141
0.00987607
0.00986572
0.00986062
0.00985031
0.00984547
0.00983521
0.00983064
0.00982043
0.00981613
0.00980599
0.00980196
0.00979187
0.00978813
0.0097781
0.00977462
0.00976465
0.00976145
0.00975153
0.00974861
0.00973869
0.00973601
0.00972611
0.00972368
0.00971379
0.00971161
0.00970175
0.00969981
0.00968997
0.00968826
0.00967844
0.00967697
0.00966716
0.00966592
0.00965612
0.0096551
0.00964531
0.0096445
0.00963472
0.0096341
0.00962433
0.00962391
0.00961414
0.00961391
0.00960415
0.00960409
0.00959433
0.00959444
0.0095847
0.00958496
0.00957522
0.00957563
0.0095659
0.00956644
0.00955673
0.00955739
0.00954771
0.00954847
0.00953881
0.00953966
0.00953005
0.00953097
0.00952141
0.00952239
0.00951288
0.0095139
0.00950449
0.00950551
0.00949613
0.00949728
0.00948817
0.00948848
0.00947961
0.00948383
0.00947241
0.00946873
0.0094608
0.00998174
0.00998472
0.00998857
0.00998764
0.00998774
0.00998342
0.00998075
0.00997399
0.00996937
0.00996087
0.00995496
0.00994533
0.00993868
0.00992838
0.00992137
0.00991073
0.00990365
0.00989289
0.00988585
0.00987481
0.0098678
0.00985675
0.00984998
0.00983907
0.00983266
0.00982198
0.00981598
0.00980555
0.00979999
0.00978981
0.00978467
0.00977472
0.00977
0.00976026
0.00975591
0.00974635
0.00974236
0.00973295
0.0097293
0.00972002
0.00971668
0.00970751
0.00970445
0.00969541
0.00969264
0.0096837
0.0096812
0.00967234
0.00967008
0.00966127
0.00965924
0.00965047
0.00964865
0.0096399
0.00963828
0.00962956
0.00962812
0.0096194
0.00961815
0.00960944
0.00960835
0.00959964
0.00959871
0.00959001
0.00958924
0.00958053
0.00957991
0.00957121
0.00957072
0.00956202
0.00956167
0.00955297
0.00955275
0.00954405
0.00954395
0.00953526
0.00953526
0.00952658
0.00952669
0.00951802
0.00951821
0.00950956
0.00950984
0.00950121