/*--------------------------------*- C++ -*----------------------------------*\
  =========                 |
  \\      /  F ield         | OpenFOAM: The Open Source CFD Toolbox
   \\    /   O peration     | Website:  https://openfoam.org
    \\  /    A nd           | Version:  8
     \\/     M anipulation  |
\*---------------------------------------------------------------------------*/
FoamFile
{
    version     2.0;
    format      ascii;
    class       volScalarField;
    location    "2.50002999";
    object      k;
}
// * * * * * * * * * * * * * * * * * * * * * * * * * * * * * * * * * * * * * //

dimensions      [0 2 -2 0 0 0 0];

internalField   nonuniform List<scalar> 
6800
(
56.2557
123.251
115.079
100.829
88.126
67.462
46.8501
28.7453
19.0171
15.0484
43.4704
95.0061
97.1435
91.6033
73.8165
48.4284
29.2024
19.8389
14.302
10.8128
43.9811
86.8594
90.7144
81.3875
56.0664
33.4956
22.0886
15.1757
10.253
7.71135
45.2853
81.4749
85.3558
72.0267
42.7178
26.1912
16.2043
10.9016
8.001
6.57548
45.6605
79.5375
81.8308
59.1879
32.3949
18.9558
12.5557
9.32394
7.0698
5.58034
46.4191
80.6561
78.5992
47.3949
25.6713
16.3621
11.0181
7.72329
5.80932
4.95149
46.6561
84.4923
73.6002
37.0215
21.1272
12.9744
8.85841
6.6958
5.40227
4.72675
47.1636
88.5812
64.8932
31.2236
17.9481
11.8815
8.2193
6.19107
4.86568
4.31757
47.3463
92.9271
56.232
27.2654
15.8245
9.99432
7.03295
5.49742
4.61994
4.20004
47.7633
96.0764
48.4518
23.7659
13.5844
9.4706
6.71744
5.30364
4.36951
3.94829
344.067
447.926
466.137
477.937
498.51
527.132
557.611
583.802
598.135
602.277
313.416
430.01
455.535
478.967
512.49
554.268
596.019
629.844
649.869
655.867
267.985
386.211
436.373
481.261
535.699
591.335
632.388
656.361
667.133
660.97
248.887
352.154
424.87
495.852
568.531
613.703
629.917
620.547
598.622
543.692
262.652
356.653
448.236
543.263
594.547
593.217
569.501
510.019
457.381
346.059
275.081
388.07
520.861
586.124
573.317
517.633
436.621
320.541
248.511
158.565
266.124
454.827
572.697
546.956
461.483
326.137
218.79
148.263
119.246
81.0083
272.574
503.86
477.392
379.03
231.201
159.055
118.533
87.8957
74.7478
52.1094
248.866
387.674
306.228
188.161
134.779
105.047
82.2039
64.8996
55.1434
35.4711
159.35
184.444
151.259
118.654
100.097
83.3828
65.1866
50.6359
32.6154
20.6967
593.199
561.938
528.367
496.5
468.197
443.636
422.304
403.758
387.532
373.19
360.397
348.896
338.478
328.979
320.262
312.212
304.736
297.756
291.21
285.044
279.215
273.686
268.427
263.413
258.624
254.041
249.648
245.434
241.387
237.494
233.746
230.135
226.655
223.299
220.061
216.934
213.914
210.994
208.17
205.438
202.794
200.234
197.755
195.355
193.03
190.777
188.594
186.475
184.419
182.422
180.48
178.589
176.746
174.946
173.187
171.466
169.781
168.129
166.509
164.919
163.359
161.828
160.326
158.852
157.407
155.99
154.601
153.241
151.908
150.603
149.326
148.075
146.85
145.65
144.475
143.324
142.195
141.089
140.003
138.937
137.891
136.862
135.852
134.858
133.88
132.917
131.97
131.037
130.12
129.213
128.327
127.443
126.591
125.723
124.916
124.044
123.312
122.391
121.786
120.638
647.831
614.069
576.607
542.094
511.571
484.755
461.323
440.808
422.747
406.752
392.477
379.639
368.009
357.407
347.675
338.682
330.323
322.513
315.181
308.269
301.73
295.523
289.617
283.985
278.605
273.458
268.527
263.8
259.257
254.884
250.678
246.633
242.739
238.989
235.375
231.887
228.52
225.266
222.12
219.076
216.13
213.279
210.518
207.844
205.254
202.744
200.309
197.948
195.657
193.432
191.266
189.157
187.101
185.093
183.131
181.212
179.334
177.494
175.691
173.923
172.189
170.49
168.824
167.191
165.591
164.023
162.488
160.984
159.512
158.071
156.66
155.28
153.929
152.607
151.313
150.045
148.803
147.586
146.392
145.221
144.071
142.942
141.833
140.743
139.671
138.616
137.579
136.558
135.555
134.564
133.596
132.632
131.702
130.755
129.877
128.927
128.132
127.13
126.475
125.226
655.109
628.085
592.449
559.555
530.272
504.276
481.337
461.086
443.179
427.277
413.052
400.239
388.62
378.026
368.283
359.252
350.834
342.945
335.514
328.483
321.807
315.446
309.374
303.566
298.003
292.67
287.555
282.636
277.927
273.419
269.089
264.92
260.898
257.013
253.255
249.615
246.088
242.666
239.346
236.123
232.994
229.956
227.007
224.142
221.36
218.656
216.027
213.468
210.976
208.545
206.174
203.859
201.598
199.386
197.222
195.102
193.024
190.988
188.99
187.03
185.108
183.222
181.372
179.559
177.782
176.041
174.334
172.662
171.024
169.421
167.852
166.317
164.814
163.343
161.903
160.492
159.109
157.753
156.423
155.118
153.836
152.578
151.34
150.124
148.928
147.751
146.594
145.454
144.334
143.228
142.147
141.071
140.035
138.979
138.001
136.941
136.057
134.942
134.215
132.824
531.612
512.669
490.653
469.87
451.336
434.837
420.115
407.053
395.51
385.268
376.024
367.623
359.941
352.925
346.355
340.172
334.308
328.74
323.398
318.247
313.268
308.445
303.771
299.239
294.846
290.587
286.459
282.461
278.574
274.798
271.133
267.574
264.117
260.753
257.477
254.283
251.166
248.126
245.156
242.258
239.43
236.668
233.971
231.34
228.771
226.265
223.816
221.426
219.089
216.8
214.558
212.36
210.203
208.085
206.004
203.957
201.942
199.959
198.006
196.084
194.191
192.329
190.497
188.696
186.927
185.188
183.484
181.814
180.177
178.571
176.996
175.45
173.934
172.445
170.983
169.547
168.135
166.747
165.382
164.039
162.717
161.414
160.131
158.867
157.621
156.393
155.183
153.989
152.814
151.652
150.514
149.379
148.285
147.167
146.134
145.008
144.075
142.889
142.117
140.641
322.82
301.732
285.323
273.5
265.322
259.958
256.48
254.296
253.113
252.69
252.351
252.225
252.376
252.837
252.684
252.641
252.305
252.002
251.432
250.705
249.849
248.886
247.839
246.72
245.547
244.326
243.07
241.782
240.47
239.131
237.774
236.391
234.977
233.532
232.052
230.542
229.004
227.447
225.875
224.295
222.712
221.132
219.557
217.993
216.436
214.895
213.358
211.841
210.324
208.81
207.304
205.806
204.314
202.824
201.337
199.85
198.364
196.88
195.398
193.92
192.448
190.983
189.528
188.084
186.653
185.238
183.835
182.45
181.08
179.729
178.394
177.077
175.777
174.493
173.225
171.972
170.733
169.508
168.295
167.096
165.908
164.733
163.569
162.418
161.276
160.147
159.029
157.923
156.829
155.743
154.678
153.611
152.582
151.522
150.548
149.475
148.593
147.46
146.722
145.316
147.022
136.542
128.36
122.259
117.699
114.504
112.278
110.938
110.379
110.485
110.892
111.674
113.078
114.582
116.623
119.045
121.833
124.881
128.099
131.402
134.744
138.064
141.341
144.53
147.628
150.596
153.445
156.14
158.697
161.083
163.325
165.316
167.073
168.609
169.945
171.112
172.129
173.016
173.787
174.46
175.041
175.545
175.975
176.342
176.64
176.894
177.058
177.224
177.235
177.218
177.185
177.086
176.924
176.701
176.419
176.08
175.688
175.247
174.762
174.237
173.677
173.086
172.468
171.829
171.17
170.495
169.806
169.106
168.395
167.675
166.946
166.211
165.467
164.717
163.959
163.196
162.425
161.649
160.867
160.081
159.289
158.494
157.693
156.89
156.083
155.276
154.465
153.655
152.845
152.035
151.231
150.419
149.631
148.811
148.056
147.213
146.522
145.622
145.032
143.912
76.4309
71.3791
66.9992
63.353
60.2387
57.6131
55.3563
53.4616
51.8721
50.5581
49.5202
48.6645
48.0938
47.6411
47.3937
47.2553
47.3506
47.5852
48.0949
48.766
49.6566
50.7123
51.972
53.3894
54.991
56.7502
58.672
60.7319
62.932
65.2575
67.6899
70.2972
73.0615
75.965
78.9629
82.0367
85.1487
88.2833
91.4088
94.5107
97.5646
100.558
103.472
106.298
109.021
111.639
114.131
116.508
118.755
120.83
122.742
124.503
126.115
127.597
128.949
130.189
131.318
132.353
133.295
134.154
134.938
135.654
136.305
136.897
137.432
137.917
138.349
138.736
139.074
139.37
139.616
139.825
139.985
140.11
140.187
140.235
140.23
140.205
140.15
140.058
139.932
139.783
139.601
139.403
139.173
138.931
138.66
138.38
138.075
137.764
137.43
137.091
136.739
136.37
136.012
135.608
135.266
134.814
134.502
133.92
49.3156
46.0873
43.1389
40.5154
38.1086
35.9289
33.9064
32.0874
30.3881
28.8667
27.4354
26.1513
24.9432
23.8814
22.9608
22.1286
21.4274
20.7997
20.2942
19.8511
19.5231
19.2434
19.0765
18.9463
18.93
18.9748
19.073
19.2625
19.5389
19.8986
20.3423
20.8734
21.4965
22.2255
23.0557
24.0067
25.0666
26.256
27.5599
28.9991
30.557
32.2499
34.0583
35.9944
38.0327
40.1841
42.4154
44.7393
47.1144
49.5847
52.1153
54.7052
57.3207
59.9572
62.5838
65.1974
67.7728
70.3077
72.7818
75.1949
77.5316
79.7957
81.9729
84.071
86.0763
88.0004
89.8294
91.5787
93.2177
94.7688
96.2158
97.5839
98.8559
100.061
101.179
102.241
103.222
104.156
105.017
105.841
106.594
107.316
107.972
108.603
109.166
109.715
110.195
110.67
111.072
111.481
111.81
112.159
112.42
112.714
112.912
113.16
113.302
113.509
113.614
113.797
33.1744
30.6271
28.2466
26.0494
24.0521
22.2503
20.6384
19.2008
17.9237
16.7878
15.7779
14.8774
14.075
13.3481
12.714
12.1514
11.6554
11.2092
10.8137
10.4542
10.1354
9.84336
9.58548
9.34848
9.14094
8.95067
8.78783
8.63801
8.51485
8.40332
8.31884
8.24424
8.19832
8.161
8.16235
8.18231
8.20888
8.27055
8.34743
8.46938
8.61413
8.80814
9.02954
9.30812
9.61966
9.99566
10.4113
10.9007
11.435
12.0504
12.7153
13.4728
14.2851
15.1996
16.1717
17.2518
18.3897
19.6374
20.9403
22.351
23.8108
25.3735
26.9764
28.6739
30.3998
32.2089
34.032
35.9246
37.8288
39.8001
41.7607
43.7708
45.747
47.755
49.7066
51.6758
53.5685
55.469
57.2757
59.0854
60.7867
62.4912
64.0741
65.6669
67.1231
68.6036
69.9315
71.3047
72.5053
73.7668
74.8303
75.9945
76.9268
78.0129
78.8138
79.8422
80.5213
81.5082
82.1041
83.1847
19.0314
17.2821
15.7857
14.5552
13.5249
12.6461
11.8836
11.2143
10.6213
10.091
9.61299
9.18126
8.78909
8.43228
8.10634
7.80885
7.53618
7.28644
7.05652
6.84515
6.64956
6.46913
6.30125
6.14605
6.00078
5.86647
5.73994
5.6233
5.51251
5.41102
5.31376
5.22556
5.13977
5.06357
4.98738
4.92151
4.85572
4.79894
4.74053
4.69197
4.64135
4.6027
4.56156
4.53438
4.5061
4.49092
4.48012
4.48196
4.48984
4.50085
4.52789
4.5608
4.60441
4.67307
4.73615
4.8408
4.92569
5.07048
5.18923
5.37812
5.54034
5.78433
6.00067
6.3115
6.59329
6.98322
7.34125
7.82164
8.26554
8.84707
9.3865
10.0784
10.7198
11.5274
12.2726
13.1972
14.0437
15.0828
16.0243
17.1724
18.1986
19.4473
20.5442
21.8831
23.0341
24.451
25.6369
27.1194
28.319
29.8679
31.0705
32.6728
33.8522
35.4983
36.6221
38.2974
39.3387
41.0282
42.0733
43.9972
10.8058
10.3388
9.87698
9.42866
8.99839
8.59096
8.20811
7.85218
7.52148
7.21693
6.93717
6.68061
6.44424
6.22706
6.02607
5.84082
5.66838
5.5089
5.35958
5.22108
5.09066
4.96945
4.85468
4.74787
4.64617
4.55146
4.46073
4.37622
4.29474
4.21886
4.14521
4.0767
4.00968
3.94758
3.88625
3.82976
3.77335
3.72182
3.67021
3.62345
3.57603
3.53357
3.48989
3.45134
3.41113
3.37616
3.33918
3.30766
3.2737
3.24553
3.21441
3.18952
3.16135
3.1398
3.11486
3.09663
3.07522
3.06045
3.04302
3.03217
3.01937
3.01315
3.00596
3.00539
3.00679
3.01151
3.01953
3.03559
3.05135
3.08147
3.10639
3.15464
3.19088
3.26168
3.31221
3.41057
3.47854
3.61094
3.69979
3.87322
3.98629
4.20953
4.35091
4.63168
4.80605
5.15253
5.36502
5.78434
6.03891
6.5389
6.83816
7.427
7.77243
8.45647
8.84917
9.62435
10.0642
10.9222
11.3106
12.7534
7.76211
7.46628
7.17741
6.89802
6.63288
6.38256
6.14913
5.93124
5.72942
5.54173
5.36808
5.2064
5.05652
4.91659
4.78643
4.66451
4.55061
4.44354
4.34306
4.2483
4.15898
4.07452
3.99462
3.91893
3.84708
3.77892
3.71398
3.65229
3.59327
3.53717
3.48322
3.43192
3.38238
3.33526
3.28955
3.24613
3.2038
3.16367
3.12433
3.08713
3.05041
3.01578
2.98137
2.94901
2.91663
2.88633
2.85578
2.82734
2.79846
2.77173
2.74438
2.71923
2.6933
2.66964
2.64502
2.62274
2.59929
2.5783
2.55588
2.53607
2.51457
2.49589
2.47518
2.45765
2.43774
2.42162
2.40272
2.38817
2.37044
2.35757
2.34124
2.33011
2.3155
2.30611
2.29351
2.28583
2.27567
2.26967
2.26235
2.258
2.25425
2.25209
2.25256
2.25401
2.25817
2.26437
2.27199
2.2848
2.29657
2.31836
2.3371
2.36975
2.39533
2.445
2.48252
2.54902
2.58643
2.69492
2.74031
2.94345
5.91714
5.74851
5.5825
5.41914
5.26108
5.10841
4.96295
4.82376
4.69216
4.56677
4.4487
4.33634
4.23073
4.13019
4.03576
3.94572
3.86115
3.78034
3.7044
3.63166
3.56324
3.49752
3.43564
3.37604
3.31984
3.26555
3.2143
3.16467
3.11776
3.07223
3.02915
2.98723
2.94753
2.90882
2.87213
2.83625
2.80222
2.76887
2.7372
2.70609
2.67651
2.64741
2.6197
2.59239
2.56635
2.54066
2.51612
2.49188
2.4687
2.44578
2.42382
2.40209
2.38124
2.3606
2.34076
2.32111
2.30218
2.28345
2.26536
2.24746
2.23014
2.21301
2.19641
2.17999
2.16406
2.14829
2.13298
2.11782
2.10309
2.0885
2.07432
2.06026
2.04661
2.03304
2.01988
2.0068
1.99411
1.98149
1.96925
1.95708
1.94528
1.93356
1.92224
1.91108
1.90031
1.88971
1.87953
1.86949
1.86
1.85054
1.84189
1.83304
1.82543
1.81728
1.811
1.80369
1.79878
1.79234
1.78952
1.78448
4.7418
4.63792
4.53297
4.42651
4.32107
4.21697
4.11628
4.01848
3.92512
3.83523
3.7501
3.66844
3.59146
3.51766
3.44826
3.38164
3.31908
3.25886
3.20235
3.14778
3.09661
3.04699
3.00048
2.95518
2.91273
2.87119
2.83229
2.79403
2.75823
2.72284
2.68977
2.65691
2.62627
2.59565
2.56716
2.53854
2.51196
2.48511
2.46023
2.43494
2.41158
2.38769
2.36569
2.34305
2.32228
2.30076
2.2811
2.26059
2.24195
2.22236
2.20464
2.18588
2.16902
2.15102
2.13493
2.11762
2.10225
2.08556
2.07087
2.05475
2.04068
2.02509
2.01161
1.99651
1.98358
1.96892
1.95651
1.94226
1.93034
1.91647
1.90503
1.89151
1.8805
1.8673
1.85673
1.84382
1.83366
1.82102
1.81126
1.79886
1.78949
1.77732
1.76832
1.75635
1.74771
1.73592
1.72763
1.71599
1.70804
1.69654
1.68892
1.67753
1.67024
1.65895
1.65202
1.64084
1.63417
1.62295
1.61802
1.60179
3.97226
3.90577
3.83748
3.7668
3.69586
3.62482
3.55545
3.48724
3.42158
3.35762
3.29656
3.23735
3.18112
3.12667
3.07511
3.02515
2.97793
2.93208
2.8888
2.84665
2.80689
2.76802
2.73139
2.69544
2.66157
2.62819
2.59679
2.56568
2.53646
2.50737
2.48008
2.45278
2.42722
2.40151
2.3775
2.35322
2.3306
2.3076
2.28624
2.26439
2.24418
2.22338
2.20422
2.18437
2.16617
2.14719
2.12987
2.11167
2.09516
2.07769
2.06193
2.04511
2.03004
2.01383
1.9994
1.98374
1.9699
1.95476
1.94148
1.9268
1.91405
1.8998
1.88755
1.87371
1.86192
1.84845
1.83711
1.82399
1.81308
1.80028
1.78977
1.77728
1.76716
1.75495
1.74519
1.73324
1.72385
1.71214
1.70309
1.6916
1.68289
1.67161
1.66321
1.65212
1.64404
1.63312
1.62534
1.61459
1.6071
1.5965
1.5893
1.57883
1.57192
1.56154
1.5549
1.5447
1.53847
1.52841
1.52158
1.51015
3.47433
3.42941
3.38275
3.33333
3.28312
3.23191
3.18146
3.13106
3.08219
3.03389
2.98754
2.94199
2.89856
2.85598
2.81554
2.77589
2.73834
2.70145
2.66658
2.63224
2.59982
2.56779
2.53759
2.50764
2.47943
2.45135
2.42495
2.39855
2.37376
2.34887
2.32554
2.302
2.27999
2.25767
2.23686
2.21564
2.19591
2.17569
2.15695
2.13764
2.11981
2.10132
2.08433
2.06661
2.05039
2.03337
2.01786
2.00147
1.98664
1.97083
1.95661
1.94134
1.92769
1.91292
1.8998
1.88548
1.87287
1.85897
1.84683
1.83332
1.82162
1.80848
1.79721
1.78441
1.77353
1.76105
1.75056
1.73838
1.72825
1.71635
1.70658
1.69493
1.6855
1.6741
1.665
1.65382
1.64503
1.63406
1.62558
1.61481
1.60663
1.59603
1.58814
1.57771
1.57009
1.55982
1.55248
1.54234
1.53527
1.52527
1.51846
1.50858
1.50203
1.49224
1.48595
1.47628
1.47011
1.46062
1.45641
1.44173
3.15275
3.11986
3.08549
3.04844
3.01051
2.97126
2.93237
2.89302
2.85468
2.81632
2.77935
2.74259
2.70742
2.67254
2.63933
2.60641
2.57516
2.54415
2.5148
2.48559
2.458
2.43048
2.40452
2.37853
2.35408
2.32949
2.3064
2.28309
2.26125
2.2391
2.21839
2.1973
2.17763
2.1575
2.13879
2.11954
2.1017
2.08327
2.06624
2.04854
2.03226
2.01525
1.99967
1.98328
1.96835
1.95255
1.93821
1.92295
1.90918
1.89442
1.88118
1.86688
1.85413
1.84026
1.82798
1.81451
1.80268
1.78958
1.77817
1.76541
1.7544
1.74197
1.73134
1.71922
1.70895
1.69711
1.68719
1.67562
1.66604
1.65472
1.64546
1.63438
1.62542
1.61456
1.60591
1.59525
1.58689
1.57642
1.56834
1.55805
1.55025
1.54012
1.53258
1.52261
1.51533
1.5055
1.49848
1.48878
1.482
1.47243
1.4659
1.45644
1.45015
1.44076
1.43471
1.42548
1.4198
1.41069
1.40444
1.39409
2.93915
2.91297
2.88556
2.85566
2.82494
2.7928
2.76086
2.7282
2.69628
2.66402
2.63285
2.60155
2.57155
2.54151
2.51289
2.48424
2.45705
2.4298
2.40404
2.37816
2.35376
2.32918
2.30606
2.28268
2.26075
2.2385
2.21767
2.19645
2.17664
2.15637
2.1375
2.1181
2.1001
2.0815
2.0643
2.04645
2.03
2.01282
1.99706
1.98052
1.96541
1.94946
1.93495
1.91954
1.90559
1.89069
1.87728
1.86284
1.84993
1.83593
1.82348
1.80989
1.7979
1.78469
1.77311
1.76026
1.74908
1.73656
1.72576
1.71355
1.70311
1.69121
1.68111
1.66948
1.65972
1.64835
1.63891
1.62779
1.61866
1.60776
1.59893
1.58825
1.5797
1.56923
1.56096
1.55067
1.54267
1.53257
1.52483
1.51489
1.50741
1.49762
1.49039
1.48075
1.47375
1.46425
1.45749
1.44812
1.44159
1.43233
1.42604
1.41689
1.41081
1.40175
1.39591
1.38696
1.38121
1.37243
1.36852
1.35483
2.79205
2.76974
2.74633
2.7207
2.6943
2.66656
2.63892
2.6105
2.58265
2.55435
2.52693
2.49925
2.47266
2.44589
2.42033
2.39461
2.37018
2.34555
2.32225
2.29872
2.27653
2.25404
2.2329
2.2114
2.19126
2.17068
2.15147
2.13175
2.1134
2.09448
2.07694
2.05876
2.04197
2.02447
2.00838
1.99152
1.97609
1.95982
1.945
1.92927
1.91503
1.89982
1.88612
1.87139
1.8582
1.84391
1.83121
1.81733
1.80509
1.7916
1.77979
1.76667
1.75527
1.7425
1.73149
1.71903
1.7084
1.69624
1.68596
1.67409
1.66415
1.65255
1.64294
1.63158
1.6223
1.61117
1.60219
1.59129
1.58261
1.57191
1.56352
1.55302
1.5449
1.53458
1.52674
1.51659
1.50901
1.49902
1.4917
1.48186
1.47479
1.46509
1.45826
1.44869
1.4421
1.43265
1.4263
1.41695
1.41085
1.4016
1.39572
1.38656
1.38092
1.37184
1.36638
1.3574
1.35234
1.34331
1.33939
1.3261
2.68652
2.6666
2.64559
2.62259
2.59892
2.57402
2.54916
2.52357
2.49841
2.4728
2.4479
2.42272
2.39845
2.37397
2.35052
2.32688
2.30434
2.28161
2.26002
2.23819
2.21754
2.19659
2.17684
2.15674
2.13785
2.11854
2.10046
2.0819
2.06458
2.04671
2.0301
2.01288
1.99694
1.98033
1.96501
1.94896
1.93424
1.91871
1.90455
1.88951
1.87587
1.86129
1.84815
1.834
1.82133
1.80759
1.79536
1.782
1.77019
1.75719
1.74579
1.73312
1.7221
1.70975
1.6991
1.68704
1.67674
1.66496
1.655
1.64348
1.63385
1.62258
1.61326
1.60222
1.5932
1.58238
1.57365
1.56304
1.5546
1.54418
1.53601
1.52577
1.51788
1.50781
1.50018
1.49027
1.48289
1.47313
1.466
1.45638
1.44949
1.44
1.43335
1.42399
1.41757
1.40832
1.40213
1.39298
1.38702
1.37796
1.37223
1.36326
1.35775
1.34886
1.34353
1.33474
1.32979
1.32095
1.31711
1.3041
2.60947
2.59078
2.57123
2.54993
2.52805
2.50506
2.48208
2.4584
2.4351
2.41135
2.38822
2.36479
2.34216
2.31931
2.29737
2.27523
2.25407
2.23271
2.21237
2.1918
2.17228
2.15249
2.13376
2.11471
2.09675
2.0784
2.06116
2.04347
2.02692
2.00986
1.99394
1.97746
1.96215
1.94622
1.93148
1.91607
1.90187
1.88693
1.87324
1.85875
1.84555
1.83149
1.81875
1.80508
1.79277
1.77948
1.7676
1.75466
1.74317
1.73056
1.71945
1.70716
1.69641
1.68441
1.67401
1.66229
1.65222
1.64076
1.63102
1.61981
1.61037
1.59939
1.59026
1.5795
1.57066
1.56011
1.55154
1.54119
1.5329
1.52273
1.51471
1.50472
1.49695
1.48712
1.47961
1.46993
1.46267
1.45313
1.44611
1.43671
1.42992
1.42064
1.41409
1.40493
1.3986
1.38955
1.38345
1.37449
1.36861
1.35975
1.35409
1.34531
1.33987
1.33114
1.32596
1.31738
1.31242
1.30412
1.29849
1.28903
2.55133
2.5334
2.51478
2.49461
2.47395
2.45226
2.4306
2.40826
2.38628
2.36385
2.34199
2.31984
2.29841
2.27675
2.25592
2.2349
2.21477
2.19444
2.17504
2.15542
2.13675
2.11783
2.09988
2.08164
2.06438
2.04678
2.03018
2.01319
1.99721
1.98079
1.96541
1.94952
1.93469
1.91931
1.90502
1.89011
1.87631
1.86185
1.84853
1.83449
1.82163
1.80798
1.79555
1.78228
1.77026
1.75733
1.74571
1.73312
1.72187
1.70959
1.69871
1.68673
1.67618
1.66448
1.65427
1.64284
1.63295
1.62176
1.61218
1.60122
1.59194
1.58121
1.57222
1.5617
1.55299
1.54266
1.53422
1.52409
1.51592
1.50596
1.49804
1.48825
1.48059
1.47095
1.46354
1.45405
1.44688
1.43752
1.43059
1.42136
1.41466
1.40555
1.39908
1.39008
1.38383
1.37493
1.36891
1.3601
1.3543
1.34557
1.33999
1.33135
1.32598
1.31738
1.31227
1.30382
1.29893
1.29076
1.28522
1.27587
2.50698
2.48951
2.4715
2.45205
2.43224
2.41144
2.39073
2.36936
2.34835
2.32688
2.30598
2.28476
2.26424
2.24348
2.22351
2.20332
2.18398
2.16443
2.14576
2.12687
2.10888
2.09063
2.0733
2.05568
2.03898
2.02196
2.00586
1.98941
1.97389
1.95797
1.94301
1.92759
1.91314
1.8982
1.88424
1.86975
1.85626
1.84219
1.82915
1.81548
1.80287
1.78957
1.77736
1.76442
1.7526
1.74
1.72855
1.71627
1.70518
1.6932
1.68245
1.67076
1.66033
1.64891
1.6388
1.62764
1.61784
1.60692
1.59741
1.58672
1.57749
1.56702
1.55807
1.54781
1.53913
1.52906
1.52064
1.51076
1.50259
1.49289
1.48496
1.47543
1.46775
1.45837
1.45092
1.4417
1.43448
1.42539
1.41839
1.40944
1.40266
1.39383
1.38727
1.37856
1.37221
1.3636
1.35746
1.34895
1.34303
1.33461
1.32889
1.32055
1.31503
1.30677
1.30146
1.29329
1.28807
1.28004
1.27648
1.26404
2.47282
2.45561
2.438
2.419
2.3998
2.3796
2.3596
2.33888
2.31861
2.29782
2.27766
2.2571
2.2373
2.21717
2.19788
2.1783
2.1596
2.14062
2.12255
2.10418
2.08674
2.06899
2.05217
2.035
2.01878
2.00217
1.98652
1.97045
1.95534
1.93978
1.92519
1.9101
1.896
1.88136
1.86773
1.85352
1.84032
1.82652
1.81375
1.80032
1.78796
1.77489
1.76291
1.75019
1.73858
1.72619
1.71493
1.70285
1.69193
1.68014
1.66955
1.65804
1.64777
1.63651
1.62654
1.61554
1.60587
1.5951
1.58571
1.57517
1.56605
1.55572
1.54687
1.53675
1.52816
1.51822
1.50989
1.50014
1.49205
1.48247
1.47462
1.46521
1.45759
1.44834
1.44095
1.43184
1.42468
1.4157
1.40876
1.39991
1.39319
1.38446
1.37795
1.36934
1.36304
1.35453
1.34843
1.34002
1.33413
1.32581
1.32012
1.31189
1.3064
1.29822
1.29293
1.28488
1.2799
1.27193
1.26646
1.25744
2.44592
2.42885
2.41149
2.3928
2.37403
2.35427
2.33479
2.31458
2.29487
2.2746
2.25502
2.23499
2.21576
2.19614
2.17741
2.15831
2.14014
2.12161
2.10404
2.08609
2.06912
2.05175
2.03536
2.01855
2.00273
1.98646
1.97118
1.95541
1.94064
1.92535
1.91108
1.89624
1.88243
1.86802
1.85465
1.84065
1.82771
1.81409
1.80155
1.7883
1.77614
1.76324
1.75146
1.73888
1.72745
1.71519
1.70411
1.69214
1.68139
1.66971
1.65927
1.64786
1.63772
1.62657
1.61672
1.60581
1.59626
1.58558
1.5763
1.56584
1.55683
1.54658
1.53783
1.52778
1.51928
1.50942
1.50117
1.49149
1.48348
1.47397
1.46619
1.45685
1.4493
1.44011
1.43279
1.42374
1.41664
1.40773
1.40085
1.39206
1.38539
1.37672
1.37027
1.36171
1.35546
1.34701
1.34097
1.3326
1.32677
1.31849
1.31286
1.30467
1.29924
1.2911
1.28586
1.27785
1.27293
1.26501
1.2596
1.2506
2.42562
2.40858
2.39135
2.37285
2.35437
2.33494
2.31584
2.296
2.27673
2.25686
2.23772
2.21808
2.1993
2.18006
2.16175
2.143
2.12524
2.10703
2.08984
2.07218
2.05556
2.03844
2.02238
2.0058
1.99028
1.97419
1.95919
1.94358
1.92907
1.91392
1.89987
1.88516
1.87156
1.85725
1.84408
1.83016
1.8174
1.80386
1.79149
1.7783
1.7663
1.75345
1.74182
1.72929
1.718
1.70578
1.69483
1.6829
1.67227
1.66062
1.6503
1.63891
1.6289
1.61776
1.60804
1.59714
1.5877
1.57704
1.56787
1.55742
1.54852
1.53828
1.52963
1.51959
1.51119
1.50135
1.49319
1.48352
1.47561
1.46611
1.45843
1.44909
1.44164
1.43246
1.42522
1.41619
1.40917
1.40028
1.39347
1.3847
1.37811
1.36946
1.36307
1.35454
1.34836
1.33993
1.33394
1.32562
1.31983
1.3116
1.306
1.29786
1.29246
1.28438
1.27918
1.2712
1.26608
1.25823
1.25474
1.24252
2.41091
2.39383
2.37658
2.35817
2.33982
2.32057
2.30167
2.28206
2.26301
2.24338
2.22447
2.20506
2.18648
2.16746
2.14933
2.13077
2.11317
2.09511
2.07806
2.06052
2.04402
2.02699
2.01103
1.9945
1.97906
1.96301
1.94808
1.93249
1.91805
1.90291
1.88894
1.87422
1.8607
1.8464
1.83331
1.81939
1.80673
1.79318
1.78092
1.76772
1.75584
1.74298
1.73148
1.71893
1.70777
1.69552
1.6847
1.67274
1.66225
1.65057
1.6404
1.62897
1.61912
1.60794
1.59839
1.58745
1.57819
1.56747
1.55849
1.54799
1.53928
1.52899
1.52054
1.51044
1.50225
1.49234
1.4844
1.47466
1.46697
1.45739
1.44993
1.44051
1.43329
1.42402
1.41703
1.40789
1.40112
1.39211
1.38556
1.37668
1.37034
1.36157
1.35545
1.34678
1.34087
1.3323
1.32659
1.31812
1.31261
1.30422
1.29892
1.2906
1.28551
1.27726
1.27232
1.26417
1.25959
1.25138
1.24782
1.23575
2.39897
2.38183
2.36452
2.34613
2.32778
2.30858
2.28967
2.27008
2.25097
2.23132
2.21229
2.19282
2.17409
2.15497
2.13668
2.11802
2.10025
2.08212
2.0649
2.04721
2.03049
2.01331
1.99716
1.98052
1.96494
1.94884
1.93382
1.91825
1.90379
1.88871
1.87477
1.86017
1.84673
1.83257
1.81959
1.80585
1.79332
1.77997
1.76785
1.75486
1.74314
1.7305
1.71916
1.70685
1.69588
1.68387
1.67325
1.66154
1.65124
1.6398
1.62982
1.61863
1.60895
1.598
1.58862
1.5779
1.56879
1.55828
1.54945
1.53915
1.53057
1.52046
1.51214
1.50222
1.49415
1.4844
1.47657
1.46699
1.4594
1.44997
1.44261
1.43333
1.4262
1.41705
1.41014
1.40113
1.39444
1.38555
1.37908
1.3703
1.36404
1.35537
1.34932
1.34075
1.3349
1.32643
1.32078
1.3124
1.30695
1.29865
1.29339
1.28517
1.28012
1.27196
1.26707
1.25899
1.25445
1.24632
1.2428
1.23084
2.39031
2.37268
2.35473
2.33546
2.31616
2.29587
2.2759
2.25522
2.23514
2.21455
2.19479
2.17463
2.15543
2.13591
2.11743
2.09862
2.0809
2.06283
2.04589
2.02864
2.0125
1.99598
1.98054
1.96464
1.94981
1.93446
1.92019
1.90533
1.89155
1.87714
1.86381
1.8498
1.83691
1.82328
1.81078
1.7975
1.78538
1.77243
1.76068
1.74804
1.73663
1.7243
1.71322
1.70117
1.69042
1.67864
1.66819
1.65667
1.64653
1.63525
1.6254
1.61436
1.60479
1.59397
1.58468
1.57407
1.56504
1.55465
1.54588
1.53567
1.52716
1.51714
1.50887
1.49903
1.491
1.48133
1.47353
1.46402
1.45646
1.4471
1.43977
1.43055
1.42344
1.41436
1.40747
1.39852
1.39184
1.38301
1.37654
1.36783
1.36157
1.35296
1.3469
1.3384
1.33255
1.32413
1.31848
1.31015
1.3047
1.29645
1.2912
1.28302
1.27796
1.26982
1.265
1.25701
1.25238
1.24464
1.23939
1.23056
2.36068
2.34175
2.3232
2.30403
2.28536
2.26617
2.24762
2.22862
2.21036
2.1917
2.17385
2.15562
2.13826
2.12052
2.10368
2.08643
2.07011
2.05335
2.03754
2.02127
2.00595
1.99014
1.9753
1.95992
1.94554
1.93057
1.91662
1.90205
1.88852
1.87432
1.86119
1.84735
1.8346
1.82111
1.80873
1.79556
1.78353
1.77068
1.759
1.74644
1.7351
1.72283
1.71181
1.69982
1.68911
1.67738
1.66698
1.6555
1.64539
1.63416
1.62434
1.61333
1.60379
1.593
1.58373
1.57316
1.56415
1.55377
1.54502
1.53484
1.52634
1.51634
1.50809
1.49827
1.49025
1.48059
1.47281
1.46332
1.45576
1.44642
1.43909
1.42989
1.42278
1.41372
1.40683
1.39789
1.39122
1.3824
1.37593
1.36723
1.36097
1.35237
1.34632
1.33782
1.33198
1.32357
1.31792
1.3096
1.30415
1.2959
1.29066
1.28249
1.27743
1.2693
1.26449
1.25651
1.2519
1.24419
1.23896
1.23012
3.5491
3.67099
3.88085
4.04421
4.41906
4.64626
5.28118
5.99067
7.06845
11.0223
3.26654
3.31286
3.47522
3.6009
3.81779
4.11996
4.3705
5.00181
5.48215
7.96175
3.05448
3.1254
3.17184
3.30731
3.39345
3.65172
3.80305
4.25379
4.5394
6.02425
2.93493
2.98773
3.01308
3.10093
3.15001
3.31068
3.40833
3.70807
3.89401
4.79415
2.84207
2.88029
2.89709
2.95808
2.98909
3.09061
3.15069
3.33743
3.45526
4.0022
2.76756
2.79341
2.80493
2.84772
2.86875
2.93709
2.97523
3.09244
3.165
3.49412
2.71055
2.72707
2.73396
2.76293
2.77666
2.82307
2.84784
2.92383
2.96874
3.16711
2.66583
2.6749
2.6788
2.69722
2.70588
2.73648
2.75244
2.80192
2.83033
2.95056
2.62917
2.63333
2.63464
2.64557
2.65034
2.66978
2.67942
2.71134
2.7288
2.80376
2.59986
2.59959
2.59932
2.60414
2.60619
2.61717
2.62247
2.6419
2.65163
2.69989
2.57663
2.57366
2.57092
2.57125
2.5712
2.5757
2.57781
2.58792
2.59279
2.62264
2.55786
2.5532
2.54816
2.54573
2.54293
2.54282
2.54256
2.54597
2.54749
2.56471
2.54306
2.53635
2.53022
2.52525
2.52083
2.51735
2.5145
2.51285
2.51192
2.52012
2.53101
2.52315
2.51553
2.50931
2.50264
2.49781
2.49171
2.48837
2.48241
2.48582
2.5213
2.51321
2.50371
2.49711
2.48812
2.48259
2.47376
2.46921
2.45854
2.45888
2.51391
2.50598
2.49478
2.48812
2.47723
2.47126
2.46033
2.4547
2.44288
2.43866
2.50782
2.50017
2.48766
2.48093
2.46884
2.46232
2.45031
2.44352
2.4315
2.42411
2.50355
2.49471
2.48241
2.47417
2.46242
2.4541
2.44246
2.43362
2.42185
2.41237
2.50144
2.49153
2.47941
2.46995
2.45832
2.44871
2.43706
2.42692
2.41494
2.40412
2.4893
2.47668
2.46332
2.45135
2.43837
2.42661
2.41357
2.4017
2.38833
2.37618
3.41084
3.67006
4.0907
4.74871
5.93859
7.66413
11.6689
22.118
71.654
48.7285
3.43909
3.7159
4.11817
4.77141
5.92227
8.1315
12.7464
22.7876
74.3136
49.1537
3.43801
3.71255
4.19894
4.90649
6.24463
8.15196
12.7621
24.0668
78.5249
49.4204
3.47861
3.72742
4.19675
4.89841
6.24293
8.77312
14.0815
24.5735
81.8291
49.5394
3.4791
3.75553
4.30542
5.08734
6.63817
8.82951
14.1807
26.6788
85.9017
49.6055
3.54889
3.78257
4.31142
5.10206
6.67967
9.62211
15.9745
27.3804
89.6809
49.5578
3.56355
3.8726
4.47345
5.37232
7.19842
9.76817
16.2334
30.1946
93.5681
49.1779
3.67366
3.92788
4.52081
5.44033
7.32987
10.8614
18.4399
31.7723
96.9477
48.6734
3.7091
4.06884
4.77481
5.86136
8.07322
11.1841
19.3186
36.2907
98.3503
48.404
3.88012
4.18525
4.88733
6.0303
8.33065
12.8022
21.8117
41.2768
97.6405
47.9652
3.42405
3.66071
4.03658
4.44
5.52014
6.3618
11.8369
16.7839
52.8176
46.3815
3.42422
3.63603
3.99922
4.40868
5.09196
6.97156
9.35823
18.9256
48.5048
44.1387
3.43521
3.65988
4.02079
4.45369
5.22257
7.10052
9.57596
19.4495
49.3452
43.6931
3.42714
3.67091
4.01387
4.49472
5.31556
7.12464
9.84307
19.6428
51.9779
44.1004
3.42371
3.67638
4.00448
4.52666
5.38338
7.1023
10.281
19.6409
53.9893
44.3911
3.41739
3.69505
3.99052
4.53592
5.42399
7.13097
10.6347
20.1736
56.2652
45.393
3.41025
3.67197
4.05937
4.53876
5.43147
7.19153
10.83
20.1842
59.1904
45.6617
3.39842
3.66404
4.03989
4.66884
5.46777
7.1868
11.0721
20.986
61.3906
46.6708
3.38356
3.63952
4.03308
4.6613
5.70509
7.32832
10.9521
20.8089
65.2218
47.1124
3.39294
3.67284
4.03162
4.68609
5.67617
7.60844
11.7512
21.7095
67.4658
48.0536
57.852
49.6857
43.4318
38.5054
34.534
31.2705
28.5449
26.2369
24.2591
22.5467
21.0506
19.7329
18.5639
17.5204
16.5833
15.7376
14.9705
14.2719
13.6331
13.0468
12.5069
12.0082
11.5462
11.1171
10.7175
10.3445
9.99555
9.66852
9.36132
9.07234
8.7999
8.54277
8.29958
8.06938
7.85101
7.64377
7.44666
7.25914
7.08035
6.9099
6.74703
6.59144
6.44246
6.2999
6.16313
6.03204
5.90604
5.7851
5.66867
5.55676
5.44884
5.34499
5.24469
5.14808
5.05462
4.96451
4.87721
4.79298
4.71126
4.63234
4.55568
4.48161
4.40954
4.33988
4.27201
4.20638
4.14236
4.08043
4.01994
3.96142
3.90418
3.8488
3.79459
3.74213
3.69072
3.641
3.59222
3.54509
3.4988
3.45415
3.41025
3.36804
3.32651
3.28673
3.24764
3.21045
3.17404
3.13978
3.10656
3.07599
3.04705
3.02175
2.99937
2.98274
2.97201
2.97236
2.99819
3.03069
3.12201
3.2762
57.8485
49.6785
43.4225
38.495
34.5231
31.2594
28.5338
26.2259
24.2484
22.5363
21.0405
19.7231
18.5544
17.5112
16.5744
15.7289
14.9622
14.2638