/*--------------------------------*- C++ -*----------------------------------*\
  =========                 |
  \\      /  F ield         | OpenFOAM: The Open Source CFD Toolbox
   \\    /   O peration     | Website:  https://openfoam.org
    \\  /    A nd           | Version:  8
     \\/     M anipulation  |
\*---------------------------------------------------------------------------*/
FoamFile
{
    version     2.0;
    format      ascii;
    class       volScalarField;
    location    "2.50002999";
    object      nut;
}
// * * * * * * * * * * * * * * * * * * * * * * * * * * * * * * * * * * * * * //

dimensions      [0 2 -1 0 0 0 0];

internalField   nonuniform List<scalar> 
6800
(
0.0789602
0.112167
0.113913
0.110307
0.109979
0.094255
0.075713
0.0566372
0.0463174
0.0473867
0.0601489
0.0985138
0.10553
0.106641
0.0990014
0.0771329
0.056975
0.0493854
0.0456319
0.0384273
0.0608306
0.0951613
0.104765
0.099408
0.081757
0.0605557
0.0511086
0.0450209
0.0350861
0.0317961
0.0620509
0.0940215
0.100111
0.0918973
0.0695296
0.0565947
0.0466398
0.0377946
0.0327209
0.0305924
0.0621046
0.0928366
0.09775
0.0834434
0.0613002
0.0486385
0.0395636
0.0353922
0.0311005
0.0265269
0.0626334
0.0950241
0.0947605
0.0724139
0.0550031
0.0467039
0.039558
0.0330225
0.0275115
0.0251853
0.0625058
0.0970775
0.0915228
0.0673607
0.054038
0.0422184
0.0344182
0.029123
0.0263108
0.0245249
0.0627948
0.100683
0.0858988
0.0584603
0.0464167
0.0405104
0.0330838
0.0292894
0.0249981
0.0230855
0.0627511
0.103212
0.0774455
0.0613835
0.0498257
0.0374767
0.0303089
0.0264853
0.0237618
0.0226532
0.0631103
0.105745
0.0737413
0.0534633
0.0404752
0.0362893
0.029601
0.0263109
0.0233825
0.021752
0.58911
0.838783
0.960116
1.0026
1.0071
1.01947
1.03806
1.06014
1.07458
1.08026
0.497243
0.770396
0.903126
0.957674
0.957912
0.963117
0.972272
0.978473
0.973719
0.967963
0.0785869
0.473442
0.772292
0.867544
0.876149
0.875297
0.869888
0.865985
0.863789
0.849675
0.069247
0.350842
0.668259
0.762866
0.77213
0.753807
0.740682
0.72177
0.684709
0.612326
0.333255
0.438492
0.614763
0.655735
0.638167
0.615413
0.583868
0.516684
0.463207
0.354759
0.366083
0.446863
0.534466
0.528298
0.516384
0.45991
0.390118
0.294638
0.238919
0.170726
0.0743555
0.324863
0.429117
0.419475
0.359575
0.266976
0.197353
0.152271
0.138795
0.107495
0.381761
0.335986
0.303982
0.279134
0.194602
0.154797
0.132211
0.11029
0.105507
0.0854122
0.339119
0.284466
0.240441
0.162958
0.135076
0.121882
0.107586
0.0960389
0.0920114
0.0668241
0.218495
0.156626
0.13587
0.121571
0.116428
0.1093
0.0947383
0.0832929
0.0600187
0.0483126
1.08324
1.07058
1.05128
1.03056
1.01104
0.993581
0.978224
0.965193
0.954222
0.944784
0.936544
0.929307
0.922909
0.917227
0.91215
0.907576
0.903418
0.899609
0.896095
0.892828
0.889771
0.886894
0.884169
0.881589
0.879127
0.876754
0.874459
0.872244
0.870104
0.868023
0.866003
0.864051
0.862173
0.860374
0.858654
0.857016
0.855458
0.853981
0.852584
0.851266
0.850026
0.848868
0.847794
0.846805
0.8459
0.84508
0.844336
0.843668
0.843072
0.842542
0.842069
0.841646
0.841263
0.840912
0.840585
0.840276
0.83998
0.839691
0.839408
0.839127
0.838848
0.838572
0.838299
0.83803
0.837767
0.837511
0.837265
0.83703
0.836808
0.8366
0.836407
0.83623
0.83607
0.835927
0.8358
0.83569
0.835595
0.835515
0.835447
0.835393
0.835346
0.835313
0.835281
0.835266
0.835241
0.835245
0.835218
0.835244
0.835206
0.835266
0.8352
0.835315
0.835198
0.835395
0.83523
0.835509
0.835255
0.835731
0.834746
0.83697
0.970338
0.966541
0.95485
0.941582
0.92872
0.916875
0.906276
0.897348
0.889748
0.883186
0.877489
0.872539
0.868236
0.864503
0.86124
0.858348
0.855763
0.853428
0.851298
0.849332
0.847502
0.845784
0.844159
0.842631
0.841128
0.839613
0.838131
0.836707
0.835309
0.833911
0.832566
0.831295
0.830104
0.828992
0.827956
0.826992
0.826097
0.825264
0.824498
0.823787
0.823141
0.822572
0.82208
0.821662
0.821314
0.821033
0.820807
0.820647
0.820553
0.820507
0.820498
0.820517
0.820556
0.820606
0.820662
0.820719
0.820773
0.82082
0.82086
0.820889
0.82091
0.820922
0.820925
0.820921
0.82091
0.8209
0.820889
0.82088
0.820874
0.820877
0.820888
0.820913
0.82095
0.821001
0.821066
0.821145
0.821236
0.82134
0.821453
0.821579
0.821709
0.821851
0.82199
0.822145
0.822285
0.822452
0.822583
0.822768
0.822879
0.823093
0.823168
0.823435
0.82345
0.823801
0.823756
0.824191
0.824056
0.824702
0.82378
0.826249
0.854425
0.855724
0.84655
0.836636
0.827304
0.818905
0.811651
0.804631
0.798298
0.79292
0.788413
0.784699
0.781674
0.779297
0.777379
0.775819
0.77458
0.773607
0.772847
0.77225
0.771784
0.771418
0.771141
0.770923
0.770809
0.770814
0.770919
0.771063
0.771364
0.771833
0.772397
0.773017
0.773666
0.77433
0.774995
0.775656
0.776308
0.776949
0.777586
0.778198
0.778865
0.779588
0.780338
0.781103
0.781874
0.78265
0.783428
0.784195
0.784943
0.785674
0.78639
0.78709
0.787772
0.788435
0.789076
0.789692
0.790281
0.790841
0.791374
0.791877
0.792359
0.792806
0.793219
0.793607
0.793975
0.794338
0.794674
0.794999
0.795321
0.795647
0.795979
0.796322
0.796673
0.797037
0.797409
0.797792
0.798184
0.798587
0.798994
0.799411
0.799825
0.800248
0.800658
0.801083
0.801481
0.801907
0.802282
0.802715
0.803057
0.803512
0.803802
0.804306
0.804527
0.805116
0.805265
0.805944
0.805967
0.806889
0.80608
0.808963
0.609587
0.61253
0.612827
0.612854
0.613523
0.614884
0.616834
0.619695
0.623226
0.627285
0.631446
0.635692
0.640004
0.644559
0.648842
0.653023
0.657078
0.661109
0.66498
0.668667
0.672171
0.675496
0.678666
0.681689
0.684593
0.687395
0.690114
0.692777
0.695331
0.697791
0.700196
0.70255
0.704849
0.707094
0.709269
0.711379
0.713418
0.715407
0.717318
0.719227
0.721002
0.722666
0.724257
0.725808
0.727328
0.728844
0.730341
0.731841
0.733329
0.734796
0.736244
0.737673
0.739079
0.740458
0.741806
0.743118
0.744391
0.745626
0.746818
0.747974
0.749089
0.750177
0.751247
0.752295
0.75333
0.75434
0.755366
0.7564
0.757434
0.758467
0.759494
0.760518
0.761532
0.762543
0.763538
0.764538
0.765536
0.76653
0.767508
0.768478
0.769422
0.770359
0.77126
0.772162
0.773014
0.773885
0.77468
0.775532
0.776262
0.777113
0.777764
0.778643
0.779189
0.780131
0.780577
0.781599
0.781904
0.783168
0.782529
0.785942
0.343038
0.338441
0.337365
0.339602
0.344519
0.351766
0.360487
0.370224
0.380785
0.392179
0.402946
0.413671
0.424775
0.436545
0.445968
0.456251
0.46578
0.475729
0.484908
0.493657
0.502037
0.510076
0.517826
0.525297
0.532536
0.539536
0.546344
0.55294
0.559376
0.565595
0.571669
0.57752
0.583146
0.588524
0.593656
0.598583
0.603322
0.607893
0.612327
0.616622
0.620843
0.624994
0.629067
0.633072
0.636989
0.64086
0.644613
0.64835
0.651942
0.655429
0.658842
0.662177
0.66542
0.668568
0.671609
0.674544
0.677369
0.680089
0.682705
0.685225
0.687655
0.690004
0.69228
0.694495
0.696653
0.698765
0.700824
0.702842
0.704823
0.706774
0.708693
0.710586
0.71245
0.714283
0.716091
0.717853
0.71956
0.721228
0.722847
0.72444
0.725982
0.727506
0.728972
0.730436
0.731824
0.733236
0.734544
0.735919
0.73714
0.738503
0.739625
0.741008
0.742011
0.743452
0.744342
0.745865
0.746578
0.748375
0.748087
0.752174
0.168272
0.167011
0.166308
0.166626
0.16779
0.170051
0.17306
0.176999
0.181924
0.187763
0.193624
0.199974
0.207726
0.215091
0.224286
0.233874
0.244398
0.255323
0.266393
0.277594
0.288917
0.300247
0.311563
0.322758
0.333884
0.344805
0.355634
0.366201
0.376654
0.38678
0.396804
0.406077
0.414877
0.423139
0.431084
0.438977
0.446678
0.454226
0.461634
0.468924
0.476097
0.483174
0.490147
0.497032
0.503787
0.510504
0.516939
0.523574
0.529506
0.535475
0.541519
0.547347
0.552951
0.55837
0.563581
0.568618
0.573464
0.578156
0.582677
0.587052
0.591296
0.595426
0.599447
0.603376
0.607213
0.610974
0.614653
0.618266
0.6218
0.625275
0.628671
0.63201
0.635265
0.638468
0.641577
0.644645
0.647622
0.650544
0.653393
0.656192
0.658899
0.661567
0.664132
0.66668
0.669105
0.671549
0.673836
0.676197
0.678345
0.680654
0.682655
0.68495
0.686786
0.689106
0.69078
0.693173
0.6946
0.697249
0.697636
0.702666
0.106201
0.104739
0.103414
0.102487
0.101751
0.101293
0.101008
0.10104
0.1013
0.101835
0.102682
0.103636
0.105136
0.10656
0.108348
0.11005
0.112355
0.114582
0.117925
0.121145
0.125146
0.129401
0.134123
0.139223
0.144823
0.15084
0.157343
0.16419
0.171518
0.179185
0.187272
0.196003
0.205575
0.215588
0.225812
0.236234
0.246765
0.25739
0.268034
0.278678
0.289263
0.299776
0.310172
0.320443
0.330538
0.340486
0.350189
0.359734
0.369035
0.377861
0.386262
0.394302
0.402074
0.409694
0.417058
0.4243
0.431319
0.438256
0.444888
0.451449
0.457927
0.464295
0.470538
0.476678
0.482693
0.488611
0.4944
0.500098
0.505657
0.511117
0.516421
0.521628
0.526664
0.531624
0.536395
0.54113
0.545605
0.550111
0.554507
0.558785
0.562902
0.566986
0.570914
0.574825
0.578553
0.58232
0.585862
0.589514
0.59287
0.596437
0.599598
0.603118
0.606061
0.609578
0.612286
0.61586
0.618261
0.62207
0.623414
0.62953
0.0844143
0.0831254
0.0818102
0.0805859
0.0792421
0.0780346
0.076701
0.0754318
0.073954
0.0726071
0.0709932
0.0696017
0.068049
0.06677
0.0657234
0.0647342
0.0639992
0.0633159
0.0629286
0.0626049
0.0625687
0.0625696
0.0628832
0.0631912
0.0638546
0.0646992
0.0654956
0.0666172
0.0681417
0.0698392
0.0717734
0.0739712
0.07648
0.079364
0.0825991
0.0862742
0.0903186
0.0948249
0.0997169
0.105098
0.110892
0.117173
0.123849
0.130991
0.13848
0.146398
0.154579
0.163141
0.171859
0.181106
0.190669
0.200622
0.210626
0.220701
0.230734
0.240755
0.250662
0.260477
0.270123
0.279618
0.288922
0.298067
0.307002
0.315774
0.324325
0.33272
0.340886
0.348913
0.356585
0.364062
0.371206
0.378219
0.384997
0.391723
0.398204
0.404684
0.410897
0.417156
0.423117
0.429212
0.43491
0.440828
0.446378
0.451937
0.45727
0.462722
0.467824
0.473123
0.477974
0.483142
0.487713
0.492781
0.497038
0.502047
0.50596
0.511017
0.514466
0.519714
0.52249
0.529565
0.0648965
0.0630273
0.0612135
0.0593529
0.0575529
0.0558192
0.0542232
0.0527154
0.0514017
0.0501354
0.0491142
0.0480312
0.0469456
0.0458305
0.044876
0.0440297
0.0433006
0.0426406
0.0420737
0.0415527
0.0411138
0.0407048
0.0403724
0.0400612
0.039822
0.0396003
0.039457
0.0393148
0.0392578
0.0392045
0.0392503
0.039288
0.0394436
0.0395785
0.0399272
0.0403458
0.0405749
0.0410069
0.0415676
0.0422735
0.0431408
0.0441506
0.0452567
0.0465988
0.0480633
0.0497933
0.051684
0.0538965
0.0562894
0.0590331
0.0619796
0.0653434
0.0689481
0.0730123
0.0773282
0.0821173
0.0871592
0.09267
0.0984224
0.104628
0.111049
0.1179
0.124929
0.132354
0.13991
0.147813
0.155792
0.164061
0.172473
0.18122
0.190004
0.199033
0.20788
0.216879
0.225612
0.234465
0.242977
0.251596
0.259811
0.268141
0.276015
0.284025
0.291535
0.299233
0.306345
0.313758
0.32048
0.327653
0.333986
0.340851
0.346686
0.353337
0.35869
0.365263
0.370148
0.37678
0.381289
0.387958
0.392291
0.400111
0.0474523
0.045902
0.044348
0.0430591
0.0419529
0.0409755
0.0400907
0.039278
0.0385314
0.0378321
0.0371744
0.0365634
0.0359881
0.0354504
0.0349448
0.0344771
0.0340412
0.0336408
0.0332691
0.0329296
0.0326142
0.0323272
0.0320596
0.0318171
0.0315893
0.0313852
0.0311907
0.0310211
0.0308548
0.0307161
0.0305751
0.0304665
0.030344
0.0302662
0.0301583
0.030097
0.0300345
0.0299934
0.0299273
0.0299045
0.0298628
0.0298789
0.0298741
0.0299324
0.029984
0.030071
0.0302086
0.0303829
0.0305817
0.0306965
0.0309736
0.0312222
0.0315835
0.0320514
0.0324379
0.0330594
0.0335303
0.0343411
0.0350284
0.0360368
0.0369676
0.0382661
0.03949
0.0411433
0.0427201
0.0447947
0.0467794
0.0493336
0.0517779
0.0548711
0.0578309
0.0615167
0.0650284
0.0693283
0.0733917
0.0783027
0.0828968
0.0883981
0.0934809
0.0995366
0.105048
0.111611
0.117475
0.12449
0.130615
0.13802
0.144309
0.152047
0.158393
0.166556
0.172973
0.181495
0.187838
0.196665
0.202619
0.211626
0.217064
0.226111
0.233131
0.240837
0.0384329
0.0375567
0.0367059
0.0358954
0.0351377
0.0344344
0.0337752
0.0331678
0.0325967
0.0320753
0.0316017
0.0311749
0.030781
0.0304246
0.0300909
0.0297882
0.0294999
0.029238
0.028987
0.0287604
0.0285395
0.0283405
0.0281435
0.0279673
0.0277901
0.0276329
0.0274723
0.027331
0.0271842
0.0270559
0.0269203
0.026803
0.0266763
0.026569
0.0264494
0.0263516
0.0262374
0.0261476
0.0260456
0.0259681
0.0258764
0.0258109
0.0257287
0.0256744
0.025602
0.0255582
0.025495
0.0254624
0.0254079
0.0253865
0.0253401
0.0253296
0.0252946
0.0252956
0.0252749
0.025287
0.0252818
0.0253065
0.0253196
0.0253617
0.0253963
0.0254638
0.0255275
0.0256275
0.0257558
0.0258674
0.0259902
0.0262083
0.0263661
0.0266608
0.0268624
0.0272655
0.0275298
0.0280641
0.0284164
0.0291112
0.0295759
0.0304754
0.0310722
0.032229
0.0329744
0.0344596
0.035377
0.0372456
0.0383713
0.0406696
0.0420477
0.0448116
0.0464686
0.0497463
0.0516953
0.055545
0.0577903
0.062251
0.0648083
0.0698622
0.072456
0.078161
0.080718
0.0898658
0.0318409
0.0314192
0.0310049
0.0305985
0.0301914
0.0297841
0.029394
0.029017
0.0286644
0.0283298
0.0280204
0.0277279
0.0274581
0.0272032
0.0269677
0.0267449
0.0265375
0.0263412
0.0261539
0.0259741
0.0258016
0.025637
0.0254789
0.0253293
0.0251853
0.0250504
0.02492
0.0247987
0.0246803
0.0245711
0.0244632
0.0243645
0.0242658
0.0241762
0.0240858
0.0240048
0.0239217
0.0238488
0.0237723
0.0237068
0.0236357
0.0235763
0.0235096
0.0234554
0.0233922
0.0233428
0.023283
0.0232382
0.0231818
0.0231413
0.0230885
0.0230523
0.0230035
0.0229716
0.0229269
0.022899
0.022858
0.0228337
0.0227956
0.0227749
0.022739
0.02272
0.0226834
0.0226668
0.0226293
0.0226196
0.0225843
0.0225851
0.0225538
0.0225663
0.0225404
0.0225637
0.0225455
0.0225777
0.0225698
0.0226093
0.0226161
0.0226609
0.022688
0.0227351
0.0227922
0.0228514
0.0229443
0.0230319
0.0231443
0.0232639
0.0233517
0.0235508
0.0236741
0.0239416
0.0241457
0.0245106
0.024723
0.0252978
0.0254748
0.0263145
0.0263911
0.0281076
0.0277986
0.0303883
0.0274801
0.0272374
0.0269893
0.0267286
0.0264676
0.0262027
0.0259454
0.0256893
0.025445
0.0252042
0.0249772
0.0247544
0.0245461
0.0243418
0.0241522
0.023966
0.0237941
0.0236252
0.0234699
0.0233172
0.0231774
0.0230397
0.022914
0.0227899
0.0226767
0.0225649
0.022463
0.0223622
0.0222704
0.0221797
0.0220972
0.0220158
0.0219416
0.0218686
0.021802
0.0217365
0.0216765
0.0216178
0.0215635
0.0215108
0.0214616
0.0214141
0.0213693
0.0213267
0.0212857
0.0212475
0.0212097
0.0211756
0.0211406
0.0211102
0.0210776
0.0210506
0.02102
0.0209962
0.0209673
0.0209464
0.0209189
0.0209008
0.0208744
0.0208589
0.0208335
0.0208205
0.0207959
0.0207852
0.0207612
0.0207529
0.0207293
0.0207233
0.0206999
0.0206961
0.0206729
0.0206714
0.020648
0.020649
0.0206253
0.0206288
0.0206046
0.0206108
0.0205859
0.0205951
0.0205695
0.0205819
0.0205559
0.0205729
0.0205468
0.0205686
0.0205428
0.0205689
0.020545
0.0205758
0.0205554
0.020592
0.0205782
0.0206207
0.0206164
0.020666
0.0206792
0.020731
0.0207611
0.0208761
0.0244821
0.0243372
0.0241841
0.0240156
0.0238441
0.023665
0.0234903
0.0233131
0.0231448
0.0229766
0.0228197
0.0226637
0.0225201
0.0223774
0.0222474
0.0221177
0.0220009
0.0218834
0.0217787
0.0216724
0.0215788
0.0214825
0.0213987
0.0213113
0.021236
0.0211562
0.0210883
0.021015
0.0209535
0.020886
0.0208303
0.020768
0.0207177
0.0206602
0.0206147
0.0205616
0.0205204
0.0204713
0.020434
0.0203882
0.0203544
0.0203117
0.0202809
0.020241
0.020213
0.0201756
0.0201501
0.0201151
0.0200919
0.0200589
0.0200378
0.0200067
0.0199875
0.019958
0.0199405
0.0199124
0.0198964
0.0198697
0.0198551
0.0198295
0.0198162
0.0197917
0.0197795
0.0197561
0.0197449
0.0197225
0.0197123
0.0196908
0.0196815
0.0196609
0.0196524
0.0196325
0.0196247
0.0196056
0.0195985
0.01958
0.0195735
0.0195555
0.0195496
0.0195321
0.0195267
0.0195095
0.0195046
0.0194877
0.0194833
0.0194666
0.0194625
0.0194461
0.0194423
0.0194261
0.0194223
0.0194063
0.0194026
0.019387
0.0193824
0.0193649
0.0193556
0.0193308
0.0193793
0.0192678
0.0222982
0.0222143
0.0221226
0.0220161
0.0219057
0.0217867
0.0216699
0.0215485
0.0214326
0.0213143
0.0212034
0.021091
0.0209872
0.0208822
0.0207864
0.0206893
0.0206016
0.0205122
0.0204323
0.0203503
0.0202778
0.0202026
0.020137
0.020068
0.0200086
0.0199453
0.0198917
0.0198335
0.0197851
0.0197314
0.0196877
0.0196382
0.0195986
0.0195527
0.0195169
0.0194742
0.0194418
0.019402
0.0193727
0.0193356
0.019309
0.0192743
0.0192503
0.0192177
0.019196
0.0191653
0.0191458
0.0191168
0.0190992
0.0190718
0.0190559
0.0190298
0.0190155
0.0189907
0.0189777
0.018954
0.0189423
0.0189196
0.018909
0.0188872
0.0188776
0.0188566
0.0188479
0.0188277
0.0188198
0.0188003
0.0187931
0.0187743
0.0187678
0.0187495
0.0187436
0.0187259
0.0187205
0.0187034
0.0186985
0.0186819
0.0186774
0.0186614
0.0186572
0.0186417
0.0186377
0.0186227
0.018619
0.0186045
0.0186008
0.018587
0.0185833
0.01857
0.0185663
0.0185536
0.0185497
0.0185377
0.0185335
0.0185221
0.0185176
0.018507
0.0185021
0.0184921
0.0184861
0.0184745
0.0207845
0.0207396
0.0206894
0.0206242
0.0205558
0.0204775
0.020401
0.0203179
0.0202396
0.0201564
0.0200799
0.0199995
0.019927
0.0198509
0.0197833
0.0197122
0.01965
0.019584
0.019527
0.019466
0.019414
0.0193576
0.0193103
0.0192581
0.019215
0.0191667
0.0191275
0.0190826
0.0190469
0.0190051
0.0189726
0.0189336
0.018904
0.0188675
0.0188405
0.0188062
0.0187816
0.0187493
0.0187268
0.0186963
0.0186758
0.0186469
0.0186282
0.0186007
0.0185836
0.0185575
0.0185419
0.0185169
0.0185026
0.0184786
0.0184655
0.0184425
0.0184304
0.0184082
0.0183971
0.0183756
0.0183654
0.0183446
0.0183352
0.018315
0.0183063
0.0182867
0.0182786
0.0182596
0.0182521
0.0182335
0.0182266
0.0182086
0.0182021
0.0181845
0.0181786
0.0181614
0.0181558
0.0181392
0.0181339
0.0181177
0.0181127
0.018097
0.0180922
0.0180769
0.0180724
0.0180575
0.0180531
0.0180387
0.0180343
0.0180204
0.018016
0.0180027
0.0179982
0.0179854
0.0179808
0.0179686
0.0179638
0.0179521
0.0179471
0.0179362
0.0179307
0.0179203
0.0179165
0.0179016
0.0197418
0.0197189
0.0196924
0.0196517
0.0196087
0.0195553
0.0195038
0.0194446
0.0193897
0.0193286
0.0192735
0.0192131
0.0191597
0.0191013
0.0190508
0.0189952
0.0189479
0.0188955
0.0188517
0.0188025
0.0187621
0.0187161
0.0186789
0.0186358
0.0186018
0.0185614
0.0185302
0.0184923
0.0184637
0.0184281
0.0184018
0.0183682
0.0183442
0.0183125
0.0182904
0.0182604
0.0182401
0.0182116
0.018193
0.0181659
0.0181488
0.0181229
0.0181073
0.0180825
0.0180681
0.0180445
0.0180313
0.0180085
0.0179964
0.0179745
0.0179634
0.0179422
0.017932
0.0179116
0.0179021
0.0178823
0.0178736
0.0178544
0.0178464
0.0178277
0.0178203
0.0178021
0.0177953
0.0177776
0.0177712
0.017754
0.017748
0.0177312
0.0177257
0.0177093
0.0177042
0.0176882
0.0176833
0.0176678
0.0176631
0.017648
0.0176435
0.0176288
0.0176245
0.0176101
0.0176059
0.017592
0.0175878
0.0175743
0.0175701
0.017557
0.0175527
0.0175402
0.0175358
0.0175237
0.0175191
0.0175076
0.0175028
0.0174916
0.0174859
0.0174766
0.0174769
0.0174673
0.0174086
0.0174871
0.018994
0.0189843
0.0189719
0.0189459
0.0189182
0.0188803
0.0188443
0.0188003
0.0187604
0.0187136
0.0186725
0.0186251
0.0185847
0.0185382
0.0184994
0.0184545
0.0184179
0.0183752
0.018341
0.0183004
0.0182688
0.0182304
0.0182013
0.018165
0.0181382
0.0181039
0.0180792
0.0180467
0.0180241
0.0179933
0.0179725
0.0179432
0.0179241
0.0178962
0.0178787
0.017852
0.017836
0.0178104
0.0177957
0.0177712
0.0177577
0.0177341
0.0177217
0.0176989
0.0176875
0.0176655
0.017655
0.0176337
0.0176241
0.0176034
0.0175946
0.0175744
0.0175663
0.0175467
0.0175392
0.0175201
0.0175132
0.0174945
0.0174881
0.0174698
0.017464
0.0174461
0.0174407
0.0174232
0.0174181
0.017401
0.0173964
0.0173796
0.0173752
0.0173589
0.0173548
0.0173387
0.0173349
0.0173192
0.0173155
0.0173002
0.0172966
0.0172817
0.0172781
0.0172636
0.0172601
0.017246
0.0172424
0.0172288
0.0172251
0.0172119
0.0172081
0.0171954
0.0171913
0.0171792
0.0171748
0.0171633
0.0171585
0.0171478
0.0171431
0.0171321
0.0171205
0.0171115
0.0171584
0.0170547
0.0184508
0.0184497
0.0184453
0.0184285
0.0184102
0.0183823
0.0183562
0.0183223
0.0182921
0.0182551
0.0182232
0.0181851
0.0181531
0.0181152
0.0180842
0.0180471
0.0180177
0.0179819
0.0179543
0.01792
0.0178943
0.0178615
0.0178378
0.0178065
0.0177845
0.0177546
0.0177345
0.0177058
0.0176873
0.0176599
0.0176428
0.0176164
0.0176008
0.0175754
0.0175611
0.0175366
0.0175235
0.0174997
0.0174878
0.0174647
0.0174538
0.0174314
0.0174215
0.0173996
0.0173907
0.0173693
0.0173612
0.0173403
0.0173331
0.0173125
0.017306
0.0172858
0.0172801
0.0172602
0.0172551
0.0172355
0.017231
0.0172116
0.0172077
0.0171885
0.0171852
0.0171662
0.0171633
0.0171446
0.0171422
0.0171236
0.0171216
0.0171032
0.0171017
0.0170833
0.0170822
0.017064
0.0170633
0.0170451
0.0170447
0.0170268
0.0170267
0.0170088
0.017009
0.0169912
0.0169916
0.016974
0.0169746
0.0169571
0.0169579
0.0169405
0.0169414
0.0169242
0.0169252
0.0169082
0.0169093
0.0168924
0.0168937
0.0168773
0.0168772
0.0168613
0.0168682
0.0168478
0.0168412
0.0168259
0.0180415
0.0180467
0.0180468
0.0180356
0.0180229
0.0180019
0.017982
0.0179553
0.0179314
0.0179015
0.0178757
0.0178444
0.0178182
0.0177866
0.0177609
0.0177298
0.017705
0.0176748
0.0176514
0.0176222
0.0176003
0.0175722
0.0175518
0.0175249
0.0175059
0.01748
0.0174625
0.0174376
0.0174214
0.0173973
0.0173824
0.0173592
0.0173454
0.0173229
0.0173103
0.0172884
0.0172768
0.0172555
0.0172448
0.0172241
0.0172143
0.017194
0.0171851
0.0171652
0.017157
0.0171375
0.0171301
0.017111
0.0171043
0.0170854
0.0170794
0.0170607
0.0170553
0.0170369
0.0170321
0.0170138
0.0170096
0.0169915
0.0169878
0.0169698
0.0169666
0.0169488
0.0169461
0.0169283
0.016926
0.0169084
0.0169065
0.0168889
0.0168875
0.01687
0.0168689
0.0168515
0.0168507
0.0168334
0.0168329
0.0168156
0.0168155
0.0167983
0.0167984
0.0167813
0.0167816
0.0167645
0.0167651
0.0167481
0.0167489
0.016732
0.0167329
0.0167161
0.0167171
0.0167004
0.0167015
0.0166849
0.0166863
0.0166703
0.0166708
0.0166541
0.0166559
0.0166358
0.0166777
0.016579
0.0177363
0.0177419
0.0177443
0.0177368
0.017728
0.0177115
0.017696
0.0176742
0.0176548
0.0176298
0.0176084
0.017582
0.0175599
0.0175331
0.0175112
0.0174846
0.0174634
0.0174374
0.0174172
0.017392
0.017373
0.0173486
0.0173308
0.0173073
0.0172906
0.0172679
0.0172523
0.0172304
0.0172159
0.0171947
0.0171812
0.0171607
0.0171481
0.0171282
0.0171165
0.0170971
0.0170862
0.0170672
0.0170572
0.0170386
0.0170293
0.0170111
0.0170025
0.0169847
0.0169766
0.0169592
0.0169517
0.0169345
0.0169276
0.0169107
0.0169044
0.0168877
0.0168818
0.0168653
0.0168599
0.0168436
0.0168386
0.0168225
0.0168179
0.016802
0.0167977
0.016782
0.016778
0.0167625
0.0167587
0.0167434
0.0167399
0.0167248
0.0167216
0.0167066
0.0167036
0.0166888
0.0166859
0.0166714
0.0166686
0.0166543
0.0166516
0.0166376
0.0166349
0.0166211
0.0166184
0.016605
0.0166022
0.0165891
0.0165862
0.0165735
0.0165704
0.0165581
0.0165548
0.016543
0.0165394
0.0165282
0.0165239
0.0165127
0.0165103
0.0165012
0.0164943
0.0164945
0.0164435
0.0165137
0.0174994
0.0175051
0.0175091
0.0175041
0.0174981
0.0174848
0.0174725
0.0174542
0.0174382
0.017417
0.0173989
0.0173762
0.0173573
0.017334
0.0173152
0.0172919
0.0172736
0.0172508
0.0172332
0.017211
0.0171942
0.0171727
0.0171569
0.0171361
0.0171212
0.0171011
0.0170871
0.0170676
0.0170545
0.0170355
0.0170232
0.0170048
0.0169933
0.0169753
0.0169645
0.0169469
0.0169368
0.0169196
0.0169101
0.0168933
0.0168843
0.0168678
0.0168594
0.0168433
0.0168354
0.0168195
0.0168121
0.0167964
0.0167895
0.016774
0.0167675
0.0167523
0.0167462
0.0167311
0.0167254
0.0167105
0.0167052
0.0166904
0.0166854
0.0166708
0.0166661
0.0166516
0.0166472
0.0166329
0.0166287
0.0166146
0.0166106
0.0165966
0.0165928
0.016579
0.0165754
0.0165618
0.0165583
0.0165448
0.0165414
0.0165282
0.0165249
0.0165119
0.0165086
0.0164958
0.0164925
0.01648
0.0164767
0.0164645
0.0164611
0.0164492
0.0164456
0.0164341
0.0164304
0.0164192
0.0164154
0.0164047
0.0164002
0.0163894
0.016387
0.0163782
0.0163714
0.0163719
0.0163217
0.0163909
0.0173197
0.0173254
0.0173303
0.0173266
0.0173226
0.0173114
0.0173016
0.0172857
0.0172724
0.0172537
0.0172384
0.0172183
0.0172021
0.0171813
0.0171649
0.0171442
0.0171281
0.0171076
0.017092
0.0170721
0.0170571
0.0170377
0.0170235
0.0170047
0.0169912
0.0169729
0.0169601
0.0169424
0.0169302
0.016913
0.0169014
0.0168847
0.0168737
0.0168574
0.0168469
0.0168311
0.0168211
0.0168056
0.016796
0.0167809
0.0167718
0.0167569
0.0167483
0.0167337
0.0167254
0.0167112
0.0167032
0.0166893
0.0166816
0.0166679
0.0166606
0.0166471
0.0166401
0.0166269
0.01662
0.0166071
0.0166004
0.0165877
0.0165812
0.0165688
0.0165625
0.0165503
0.016544
0.0165321
0.016526
0.0165143
0.0165083
0.0164969
0.0164909
0.0164798
0.0164738
0.0164631
0.0164569
0.0164466
0.0164404
0.0164304
0.016424
0.0164145
0.0164079
0.0163988
0.0163921
0.0163834
0.0163764
0.0163683
0.0163609
0.0163533
0.0163455
0.0163386
0.0163304
0.0163241
0.0163154
0.0163099
0.0163004
0.0162954
0.0162866
0.0162824
0.016266
0.0162677
0.0162666
0.0162531
0.0171846
0.01719
0.0171955
0.0171921
0.0171895
0.0171792
0.0171712
0.0171566
0.0171452
0.0171279
0.0171146
0.0170957
0.0170816
0.017062
0.0170476
0.017028
0.0170138
0.0169944
0.0169806
0.0169616
0.0169483
0.0169298
0.0169171
0.0168991
0.016887
0.0168695
0.016858
0.016841
0.01683
0.0168134
0.016803
0.0167868
0.0167768
0.0167611
0.0167515
0.0167362
0.016727
0.016712
0.0167032
0.0166885
0.0166801
0.0166657
0.0166577
0.0166436
0.0166358
0.016622
0.0166145
0.016601
0.0165937
0.0165804
0.0165734
0.0165604
0.0165536
0.0165408
0.0165342
0.0165217
0.0165152
0.0165029
0.0164966
0.0164845
0.0164783
0.0164665
0.0164603
0.0164489
0.0164427
0.0164315
0.0164254
0.0164145
0.0164083
0.0163978
0.0163916
0.0163814
0.016375
0.0163652
0.0163588
0.0163493
0.0163427
0.0163337
0.0163269
0.0163183
0.0163112
0.0163032
0.0162958
0.0162882
0.0162805
0.0162735
0.0162653
0.016259
0.0162503
0.0162447
0.0162355
0.0162307
0.0162207
0.0162162
0.0162064
0.0162038
0.0161922
0.0161939
0.0161434
0.0162146
0.0170742
0.0170792
0.0170851
0.0170818
0.0170801
0.0170703
0.0170636
0.0170497
0.0170399
0.0170233
0.0170117
0.0169937
0.0169812
0.0169625
0.0169498
0.016931
0.0169185
0.0168998
0.0168877
0.0168693
0.0168577
0.0168398
0.0168286
0.0168112
0.0168006
0.0167835
0.0167734
0.0167568
0.0167472
0.0167309
0.0167217
0.0167059
0.0166971
0.0166815
0.0166731
0.0166579
0.0166498
0.0166349
0.0166272
0.0166125
0.0166051
0.0165907
0.0165835
0.0165694
0.0165624
0.0165486
0.0165419
0.0165282
0.0165217
0.0165084
0.016502
0.0164889
0.0164827
0.0164698
0.0164638
0.0164511
0.0164452
0.0164328
0.0164269
0.0164147
0.016409
0.0163971
0.0163913
0.0163797
0.0163739
0.0163626
0.0163568
0.0163458
0.01634
0.0163293
0.0163234
0.0163131
0.0163071
0.0162971
0.016291
0.0162814
0.0162751
0.0162659
0.0162594
0.0162506
0.0162438
0.0162356
0.0162285
0.0162208
0.0162133
0.0162061
0.0161983
0.0161917
0.0161834
0.0161775
0.0161686
0.0161635
0.0161542
0.0161498
0.0161386
0.0161347
0.0161259
0.0161186
0.0161117
0.0161041
0.0169866
0.0169911
0.016997
0.0169937
0.0169927
0.0169835
0.0169779
0.0169647
0.0169562
0.0169405
0.0169302
0.0169131
0.0169021
0.0168842
0.016873
0.0168549
0.0168438
0.0168258
0.0168151
0.0167972
0.016787
0.0167694
0.0167596
0.0167423
0.0167331
0.016716
0.0167072
0.0166904
0.0166821
0.0166655
0.0166576
0.0166412
0.0166337
0.0166176
0.0166104
0.0165945
0.0165876
0.0165719
0.0165654
0.0165498
0.0165436
0.0165283
0.0165223
0.0165071
0.0165014
0.0164865
0.016481
0.0164662
0.016461
0.0164464
0.0164413
0.016427
0.016422
0.0164079
0.0164031
0.0163892
0.0163845
0.0163708
0.0163662
0.0163527
0.0163482
0.016335
0.0163306
0.0163176
0.0163132
0.0163005
0.016296
0.0162837
0.0162792
0.0162671
0.0162625
0.0162509
0.0162462
0.0162349
0.01623
0.0162192
0.0162141
0.0162037
0.0161983
0.0161884
0.0161827
0.0161734
0.0161673
0.0161586
0.0161521
0.0161441
0.016137
0.0161297
0.0161221
0.0161155
0.0161073
0.0161016
0.0160927
0.0160881
0.0160776
0.0160725
0.0160582
0.0160508
0.0160927
0.0160011
0.0169223
0.0169265
0.016932
0.0169289
0.0169279
0.0169193
0.016914
0.0169015
0.0168934
0.0168784
0.0168686
0.0168522
0.0168416
0.0168242
0.0168134
0.0167957
0.0167849
0.016767
0.0167566
0.0167387
0.0167286
0.0167108
0.0167011
0.0166834
0.0166742
0.0166566
0.0166479
0.0166304
0.0166221
0.0166048
0.016597
0.0165798
0.0165725
0.0165554
0.0165487
0.0165317
0.0165254
0.0165085
0.0165027
0.0164859
0.0164806
0.0164639
0.016459
0.0164423
0.0164379
0.0164212
0.0164172
0.0164006
0.0163969
0.0163804
0.0163772
0.0163606
0.0163578
0.0163413
0.0163388
0.0163223
0.0163203
0.0163038
0.0163021
0.0162856
0.0162843
0.0162679
0.0162669
0.0162504
0.0162497
0.0162333
0.0162329
0.0162165
0.0162164
0.0162
0.0162002
0.0161838
0.0161843
0.0161679
0.0161686
0.0161522
0.0161531
0.0161368
0.0161379
0.0161216
0.0161229
0.0161066
0.0161081
0.0160919
0.0160935
0.0160773
0.016079
0.016063
0.0160647
0.0160488
0.0160506
0.0160348
0.0160367
0.0160214
0.0160219
0.016007
0.0160141
0.0159949
0.0159887
0.0159753
0.0168722
0.0168761
0.016881
0.0168779
0.0168765
0.0168679
0.0168621
0.0168494
0.0168405
0.0168251
0.0168142
0.016797
0.016785
0.0167669
0.0167545
0.0167359
0.0167235
0.0167049
0.0166927
0.0166737
0.0166616
0.0166427
0.016631
0.0166125
0.0166015
0.0165833
0.0165731
0.0165555
0.016546
0.0165288
0.0165201
0.0165033
0.0164953
0.0164789
0.0164715
0.0164554
0.0164487
0.0164329
0.0164267
0.0164111
0.0164055
0.0163901
0.016385
0.0163697
0.0163651
0.0163501
0.0163459
0.016331
0.0163272
0.0163124
0.016309
0.0162943
0.0162912
0.0162765
0.0162738
0.0162591
0.0162567
0.0162421
0.01624
0.0162253
0.0162235
0.0162088
0.0162073
0.0161926
0.0161914
0.0161767
0.0161757
0.016161
0.0161602
0.0161456
0.016145
0.0161303
0.01613
0.0161153
0.0161152
0.0161005
0.0161006
0.0160859
0.0160861
0.0160715
0.0160718
0.0160573
0.0160577
0.0160432
0.0160438
0.0160293
0.01603
0.0160156
0.0160164
0.016002
0.0160029
0.0159885
0.0159896
0.0159759
0.0159762
0.0159616
0.0159634
0.0159456
0.0159851
0.0158939
0.0168358
0.0168375
0.0168396
0.0168324
0.0168268
0.016813
0.0168023
0.0167843
0.0167707
0.0167505
0.0167356
0.0167147
0.0166999
0.0166791
0.0166651
0.016645
0.0166321
0.016613
0.0166013
0.0165837
0.0165736
0.0165572
0.0165483
0.0165327
0.0165248
0.0165098
0.0165026
0.016488
0.0164815
0.0164671
0.0164611
0.016447
0.0164413
0.0164273
0.0164221
0.0164082
0.0164032
0.0163894
0.0163847
0.0163709
0.0163665
0.0163528
0.0163487
0.0163349
0.0163311
0.0163173
0.0163137
0.0163
0.0162966
0.0162829
0.0162798
0.0162661
0.0162631
0.0162495
0.0162467
0.0162331
0.0162305
0.0162169
0.0162145
0.0162009
0.0161986