/*--------------------------------*- C++ -*----------------------------------*\
  =========                 |
  \\      /  F ield         | OpenFOAM: The Open Source CFD Toolbox
   \\    /   O peration     | Website:  https://openfoam.org
    \\  /    A nd           | Version:  8
     \\/     M anipulation  |
\*---------------------------------------------------------------------------*/
FoamFile
{
    version     2.0;
    format      ascii;
    class       volScalarField;
    location    "2.50002999";
    object      p;
}
// * * * * * * * * * * * * * * * * * * * * * * * * * * * * * * * * * * * * * //

dimensions      [1 -1 -2 0 0 0 0];

internalField   nonuniform List<scalar> 
6800
(
99488.1
99818.3
99851.7
99874.2
99919.4
99970
100026
100085
100143
100191
99047.6
99615.2
99609.6
99657.2
99733.4
99806.3
99880.6
99956.9
100032
100102
98348
99246.5
99240.8
99359.8
99487.1
99598.1
99704.2
99807.6
99906.8
100001
97464.1
98735.9
98763.5
98995.3
99190.1
99353.4
99501.8
99639.4
99767.3
99885.3
96473.8
98124.3
98214.1
98587.7
98859.6
99086.3
99284.2
99460.8
99620
99763.5
95457.1
97463.7
97638.4
98167.5
98519.1
98815.4
99065.6
99283.2
99474.7
99644.1
94490.3
96807.9
97084.4
97766.3
98194.1
98560.7
98861.9
99119.8
99342.5
99537
93639.5
96207.9
96593.9
97414
97909.8
98342.3
98689.5
98984.2
99234.5
99451.6
92957.2
95706.9
96202.9
97136.7
97689.1
98177.8
98563.4
98888.9
99161.5
99397.8
92480.3
95339.9
95937.4
96953.6
97550.4
98082.3
98496.5
98844.7
99132.8
99383.9
100332
100205
100160
100167
100208
100273
100361
100467
100583
100699
100283
100176
100132
100136
100172
100235
100324
100435
100560
100687
100194
100114
100082
100084
100119
100185
100278
100397
100536
100681
100090
100046
100031
100039
100076
100149
100255
100380
100521
100677
99995.6
99993.3
100000
100022
100068
100149
100256
100376
100506
100655
99924.6
99967.8
100004
100039
100096
100174
100268
100371
100483
100610
99870.6
99972
100031
100077
100130
100195
100272
100359
100450
100551
99806.5
99965.7
100047
100096
100142
100195
100259
100330
100404
100484
99736
99923.1
100030
100076
100115
100161
100216
100277
100342
100413
99676.4
99878.1
99973.6
100009
100044
100087
100138
100195
100258
100329
100833
100966
101072
101159
101230
101286
101333
101371
101404
101430
101453
101471
101487
101499
101509
101517
101523
101527
101530
101532
101532
101532
101531
101529
101526
101523
101520
101516
101512
101508
101504
101499
101494
101489
101485
101480
101475
101470
101465
101460
101456
101451
101447
101442
101438
101434
101429
101425
101422
101418
101414
101411
101407
101404
101401
101397
101394
101392
101389
101386
101383
101381
101379
101376
101374
101372
101370
101368
101366
101364
101362
101360
101359
101357
101356
101354
101353
101351
101350
101349
101347
101346
101345
101344
101343
101341
101340
101339
101338
101337
101336
101335
101334
101333
101333
101332
101331
101330
101330
101330
100817
100956
101064
101151
101221
101279
101327
101366
101399
101426
101449
101468
101484
101496
101507
101515
101521
101525
101529
101530
101531
101531
101530
101528
101526
101523
101519
101516
101512
101507
101503
101498
101494
101489
101484
101479
101474
101470
101465
101460
101455
101451
101446
101442
101438
101433
101429
101425
101421
101418
101414
101410
101407
101404
101400
101397
101394
101391
101389
101386
101383
101381
101378
101376
101374
101372
101370
101368
101366
101364
101362
101360
101359
101357
101356
101354
101353
101351
101350
101349
101347
101346
101345
101344
101343
101341
101340
101339
101338
101337
101336
101335
101334
101333
101332
101332
101331
101330
101329
101329
100799
100936
101045
101133
101206
101265
101315
101356
101390
101419
101442
101462
101478
101492
101503
101511
101518
101523
101526
101528
101529
101529
101528
101526
101524
101521
101518
101515
101511
101507
101502
101498
101493
101488
101484
101479
101474
101469
101464
101460
101455
101450
101446
101442
101437
101433
101429
101425
101421
101417
101414
101410
101407
101403
101400
101397
101394
101391
101388
101386
101383
101381
101378
101376
101374
101372
101370
101368
101366
101364
101362
101360
101359
101357
101355
101354
101353
101351
101350
101348
101347
101346
101345
101344
101343
101341
101340
101339
101338
101337
101336
101335
101334
101333
101332
101332
101331
101330
101329
101329
100763
100897
101014
101107
101182
101245
101297
101341
101377
101407
101432
101453
101471
101485
101497
101506
101513
101518
101522
101524
101526
101526
101525
101524
101522
101519
101516
101513
101509
101505
101501
101496
101492
101487
101483
101478
101473
101468
101464
101459
101454
101450
101445
101441
101437
101433
101428
101424
101421
101417
101413
101410
101406
101403
101400
101397
101394
101391
101388
101386
101383
101380
101378
101376
101374
101371
101369
101367
101365
101364
101362
101360
101358
101357
101355
101354
101352
101351
101350
101348
101347
101346
101345
101344
101342
101341
101340
101339
101338
101337
101336
101335
101334
101333
101332
101331
101331
101330
101329
101328
100701
100834
100967
101069
101149
101216
101273
101320
101360
101392
101420
101442
101461
101476
101489
101499
101507
101512
101517
101520
101521
101522
101522
101521
101519
101517
101514
101511
101507
101503
101499
101495
101490
101486
101481
101477
101472
101467
101463
101458
101453
101449
101445
101440
101436
101432
101428
101424
101420
101416
101413
101409
101406
101403
101399
101396
101393
101391
101388
101385
101383
101380
101378
101375
101373
101371
101369
101367
101365
101363
101362
101360
101358
101357
101355
101354
101352
101351
101349
101348
101347
101346
101345
101343
101342
101341
101340
101339
101338
101337
101336
101335
101334
101333
101332
101331
101330
101329
101328
101328
100621
100754
100902
101016
101103
101175
101237
101290
101333
101370
101400
101425
101446
101463
101477
101489
101498
101505
101510
101514
101516
101517
101517
101517
101515
101513
101511
101508
101504
101501
101497
101493
101488
101484
101479
101475
101470
101466
101461
101457
101452
101448
101443
101439
101435
101431
101427
101423
101419
101416
101412
101409
101405
101402
101399
101396
101393
101390
101387
101385
101382
101380
101377
101375
101373
101371
101369
101367
101365
101363
101361
101360
101358
101356
101355
101353
101352
101351
101349
101348
101347
101346
101344
101343
101342
101341
101340
101339
101338
101337
101336
101335
101334
101333
101332
101331
101330
101329
101328
101327
100543
100672
100829
100953
101047
101125
101192
101250
101298
101338
101372
101400
101424
101444
101460
101473
101484
101492
101499
101504
101507
101509
101510
101510
101510
101508
101506
101504
101501
101498
101494
101490
101486
101482
101478
101473
101469
101464
101460
101455
101451
101447
101442
101438
101434
101430
101426
101422
101418
101415
101411
101408
101404
101401
101398
101395
101392
101389
101387
101384
101382
101379
101377
101375
101372
101370
101368
101366
101364
101363
101361
101359
101358
101356
101355
101353
101352
101350
101349
101348
101347
101345
101344
101343
101342
101341
101340
101339
101338
101337
101336
101335
101334
101333
101332
101331
101330
101329
101327
101326
100475
100597
100754
100885
100988
101072
101144
101206
101258
101302
101340
101371
101397
101419
101438
101453
101465
101475
101483
101489
101494
101497
101499
101500
101500
101499
101498
101496
101494
101491
101488
101485
101481
101477
101473
101469
101465
101461
101457
101453
101449
101445
101441
101437
101433
101429
101425
101421
101417
101414
101410
101407
101404
101401
101398
101395
101392
101389
101386
101384
101381
101379
101376
101374
101372
101370
101368
101366
101364
101362
101360
101359
101357
101356
101354
101353
101351
101350
101349
101348
101346
101345
101344
101343
101342
101341
101340
101339
101338
101337
101336
101335
101334
101333
101332
101331
101330
101328
101327
101325
100417
100530
100679
100813
100924
101017
101095
101162
101219
101267
101309
101343
101372
101397
101417
101434
101448
101460
101469
101476
101482
101486
101489
101490
101491
101491
101490
101489
101487
101484
101482
101479
101475
101472
101468
101464
101461
101457
101453
101449
101445
101441
101437
101433
101429
101426
101422
101418
101415
101412
101408
101405
101402
101399
101396
101393
101390
101388
101385
101383
101380
101378
101376
101373
101371
101369
101367
101365
101364
101362
101360
101358
101357
101355
101354
101352
101351
101350
101349
101347
101346
101345
101344
101343
101342
101341
101339
101338
101337
101336
101336
101335
101334
101333
101332
101330
101329
101328
101327
101325
100365
100468
100601
100730
100844
100943
101027
101100
101163
101217
101264
101303
101336
101364
101388
101408
101424
101438
101449
101458
101466
101471
101475
101478
101480
101481
101481
101480
101479
101477
101475
101472
101469
101466
101463
101460
101456
101452
101449
101445
101441
101438
101434
101430
101426
101423
101419
101416
101413
101409
101406
101403
101400
101397
101394
101391
101388
101386
101383
101381
101379
101376
101374
101372
101370
101368
101366
101364
101363
101361
101359
101358
101356
101355
101353
101352
101351
101349
101348
101347
101346
101345
101344
101343
101342
101341
101340
101339
101338
101337
101336
101335
101334
101333
101332
101331
101329
101328
101327
101325
100339
100458
100582
100704
100816
100914
101000
101074
101138
101193
101241
101281
101316
101346
101370
101391
101409
101424
101436
101446
101453
101460
101464
101468
101470
101471
101472
101472
101471
101469
101467
101465
101463
101460
101457
101454
101451
101447
101444
101440
101437
101433
101430
101426
101423
101419
101416
101412
101409
101406
101403
101400
101397
101394
101391
101389
101386
101384
101381
101379
101377
101374
101372
101370
101368
101366
101365
101363
101361
101359
101358
101356
101355
101354
101352
101351
101350
101348
101347
101346
101345
101344
101343
101342
101341
101340
101339
101338
101337
101336
101335
101334
101333
101332
101331
101330
101329
101328
101327
101325
100368
100491
100612
100728
100833
100925
101005
101075
101136
101189
101235
101274
101307
101336
101361
101381
101399
101413
101425
101435
101443
101449
101454
101458
101460
101462
101462
101462
101462
101461
101459
101457
101455
101452
101450
101447
101444
101440
101437
101434
101431
101427
101424
101421
101417
101414
101411
101408
101405
101402
101399
101396
101393
101391
101388
101386
101383
101381
101378
101376
101374
101372
101370
101368
101366
101364
101363
101361
101359
101358
101356
101355
101354
101352
101351
101350
101348
101347
101346
101345
101344
101343
101342
101341
101340
101339
101338
101337
101336
101335
101335
101334
101333
101332
101331
101330
101329
101328
101327
101325
100399
100515
100631
100739
100836
100922
100999
101066
101125
101177
101222
101260
101294
101322
101347
101368
101385
101400
101413
101423
101431
101438
101443
101447
101450
101452
101453
101453
101453
101452
101451
101449
101447
101445
101443
101440
101437
101434
101431
101428
101425
101422
101419
101416
101413
101410
101407
101404
101401
101398
101396
101393
101390
101388
101385
101383
101380
101378
101376
101374
101372
101370
101368
101366
101364
101363
101361
101359
101358
101356
101355
101354
101352
101351
101350
101349
101347
101346
101345
101344
101343
101342
101341
101340
101339
101338
101338
101337
101336
101335
101334
101333
101332
101331
101331
101330
101329
101328
101327
101326
100437
100545
100656
100758
100849
100930
101003
101067
101123
101173
101216
101254
101286
101314
101338
101359
101376
101391
101403
101413
101422
101428
101434
101438
101441
101443
101444
101445
101445
101444
101443
101442
101440
101438
101436
101433
101431
101428
101425
101422
101420
101417
101414
101411
101408
101405
101402
101400
101397
101394
101392
101389
101387
101384
101382
101380
101377
101375
101373
101371
101369
101367
101366
101364
101362
101361
101359
101358
101356
101355
101353
101352
101351
101350
101348
101347
101346
101345
101344
101343
101342
101341
101340
101339
101339
101338
101337
101336
101335
101334
101334
101333
101332
101331
101330
101329
101328
101327
101327
101326
100481
100580
100684
100779
100864
100940
101008
101068
101122
101169
101211
101247
101278
101305
101329
101349
101366
101381
101393
101403
101412
101418
101424
101428
101431
101434
101435
101436
101436
101436
101435
101434
101432
101431
101429
101426
101424
101422
101419
101417
101414
101411
101409
101406
101403
101401
101398
101395
101393
101390
101388
101386
101383
101381
101379
101377
101375
101373
101371
101369
101367
101365
101363
101362
101360
101359
101357
101356
101354
101353
101352
101351
101349
101348
101347
101346
101345
101344
101343
101342
101341
101340
101339
101339
101338
101337
101336
101335
101335
101334
101333
101332
101332
101331
101330
101329
101328
101327
101326
101326
100529
100619
100716
100804
100883
100953
101016
101073
101124
101169
101208
101243
101273
101299
101322
101342
101358
101372
101384
101395
101403
101410
101415
101419
101423
101425
101427
101428
101428
101428
101427
101426
101425
101423
101422
101420
101418
101415
101413
101411
101408
101406
101403
101401
101398
101396
101393
101391
101389
101386
101384
101382
101380
101378
101375
101373
101371
101370
101368
101366
101364
101363
101361
101360
101358
101357
101355
101354
101353
101351
101350
101349
101348
101347
101346
101345
101344
101343
101342
101341
101340
101339
101339
101338
101337
101336
101335
101335
101334
101333
101333
101332
101331
101330
101330
101329
101328
101327
101326
101326
100581
100662
100750
100832
100904
100969
101028
101081
101128
101171
101208
101241
101269
101294
101316
101335
101351
101365
101376
101386
101394
101401
101406
101411
101414
101417
101418
101419
101420
101420
101419
101419
101418
101416
101415
101413
101411
101409
101407
101405
101403
101400
101398
101396
101393
101391
101389
101387
101384
101382
101380
101378
101376
101374
101372
101370
101368
101367
101365
101363
101362
101360
101359
101357
101356
101355
101353
101352
101351
101350
101349
101347
101346
101345
101344
101344
101343
101342
101341
101340
101339
101338
101338
101337
101336
101336
101335
101334
101333
101333
101332
101331
101331
101330
101329
101329
101328
101327
101326
101326
100635
100707
100787
100862
100928
100987
101042
101091
101135
101174
101209
101240
101267
101291
101312
101329
101345
101358
101369
101379
101387
101393
101398
101403
101406
101409
101410
101411
101412
101412
101412
101411
101410
101409
101408
101406
101405
101403
101401
101399
101397
101395
101393
101391
101388
101386
101384
101382
101380
101378
101376
101374
101372
101371
101369
101367
101365
101364
101362
101361
101359
101358
101356
101355
101354
101352
101351
101350
101349
101348
101347
101346
101345
101344
101343
101342
101341
101341
101340
101339
101338
101337
101337
101336
101335
101335
101334
101333
101333
101332
101332
101331
101330
101330
101329
101328
101328
101327
101326
101326
100691
100754
100827
100894
100954
101008
101058
101103
101143
101180
101212
101241
101266
101289
101308
101325
101340
101352
101363
101372
101379
101386
101391
101395
101398
101401
101402
101404
101404
101405
101404
101404
101403
101402
101401
101400
101398
101396
101395
101393
101391
101389
101387
101385
101383
101381
101380
101378
101376
101374
101372
101370
101369
101367
101365
101364
101362
101361
101359
101358
101357
101355
101354
101353
101352
101350
101349
101348
101347
101346
101345
101344
101343
101343
101342
101341
101340
101339
101339
101338
101337
101337
101336
101335
101335
101334
101333
101333
101332
101332
101331
101330
101330
101329
101329
101328
101327
101327
101326
101326
100748
100803
100867
100928
100982
101031
101076
101117
101154
101187
101217
101244
101267
101288
101306
101322
101335
101347
101357
101366
101373
101379
101384
101388
101391
101393
101395
101396
101397
101397
101397
101397
101396
101395
101394
101393
101392
101390
101389
101387
101385
101384
101382
101380
101378
101377
101375
101373
101371
101370
101368
101367
101365
101363
101362
101361
101359
101358
101356
101355
101354
101353
101352
101350
101349
101348
101347
101346
101345
101344
101344
101343
101342
101341
101340
101340
101339
101338
101337
101337
101336
101336
101335
101334
101334
101333
101333
101332
101332
101331
101330
101330
101329
101329
101328
101328
101327
101327
101326
101325
100806
100853
100910
100963
101011
101055
101095
101132
101166
101196
101223
101248
101269
101288
101305
101319
101332
101343
101352
101360
101367
101372
101377
101380
101383
101386
101387
101389
101389
101390
101390
101390
101389
101388
101387
101386
101385
101384
101382
101381
101380
101378
101376
101375
101373
101372
101370
101369
101367
101366
101364
101363
101361
101360
101359
101357
101356
101355
101354
101352
101351
101350
101349
101348
101347
101346
101345
101344
101343
101343
101342
101341
101340
101340
101339
101338
101338
101337
101336
101336
101335
101335
101334
101334
101333
101332
101332
101331
101331
101330
101330
101329
101329
101328
101328
101327
101327
101326
101326
101325
100863
100904
100953
101000
101042
101081
101116
101149
101179
101206
101231
101253
101272
101289
101304
101317
101329
101339
101347
101355
101361
101366
101370
101374
101377
101379
101380
101381
101382
101383
101383
101383
101382
101381
101381
101380
101379
101378
101376
101375
101374
101372
101371
101370
101368
101367
101365
101364
101363
101361
101360
101359
101358
101356
101355
101354
101353
101352
101351
101350
101349
101348
101347
101346
101345
101344
101343
101342
101342
101341
101340
101339
101339
101338
101337
101337
101336
101336
101335
101335
101334
101334
101333
101333
101332
101332
101331
101331
101330
101330
101329
101329
101329
101328
101328
101327
101327
101326
101326
101325
100920
100954
100996
101037
101074
101107
101139
101167
101194
101218
101239
101259
101276
101291
101305
101317
101327
101336
101343
101350
101356
101360
101364
101367
101370
101372
101373
101374
101375
101376
101376
101376
101375
101375
101374
101373
101372
101371
101370
101369
101368
101367
101366
101364
101363
101362
101361
101360
101358
101357
101356
101355
101354
101353
101352
101351
101350
101349
101348
101347
101346
101345
101344
101343
101343
101342
101341
101340
101340
101339
101338
101338
101337
101337
101336
101335
101335
101334
101334
101334
101333
101333
101332
101332
101331
101331
101331
101330
101330
101329
101329
101329
101328
101328
101327
101327
101327
101326
101326
101325
100977
101005
101041
101075
101106
101135
101162
101187
101209
101230
101249
101266
101281
101294
101306
101316
101325
101333
101340
101346
101351
101355
101358
101361
101363
101365
101367
101368
101368
101369
101369
101369
101368
101368
101367
101367
101366
101365
101364
101363
101362
101361
101360
101359
101358
101357
101356
101355
101354
101353
101352
101351
101350
101349
101348
101347
101346
101345
101345
101344
101343
101342
101342
101341
101340
101340
101339
101338
101338
101337
101337
101336
101336
101335
101335
101334
101334
101333
101333
101332
101332
101332
101331
101331
101330
101330
101330
101329
101329
101329
101328
101328
101328
101327
101327
101327
101326
101326
101326
101325
101033
101056
101085
101113
101139
101163
101186
101207
101226
101243
101259
101274
101286
101298
101308
101317
101324
101331
101337
101342
101346
101350
101353
101355
101357
101359
101360
101361
101361
101362
101362
101362
101362
101361
101361
101360
101360
101359
101358
101357
101357
101356
101355
101354
101353
101352
101351
101350
101350
101349
101348
101347
101346
101345
101345
101344
101343
101342
101342
101341
101340
101340
101339
101338
101338
101337
101337
101336
101336
101335
101335
101334
101334
101334
101333
101333
101332
101332
101332
101331
101331
101331
101330
101330
101330
101329
101329
101329
101328
101328
101328
101328
101327
101327
101327
101326
101326
101326
101326
101325
101088
101106
101129
101152
101173
101192
101210
101227
101243
101257
101270
101282
101293
101302
101310
101317
101324
101329
101334
101338
101342
101345
101347
101349
101351
101352
101353
101354
101355
101355
101355
101355
101355
101355
101354
101354
101353
101353
101352
101352
101351
101350
101349
101349
101348
101347
101347
101346
101345
101344
101344
101343
101342
101342
101341
101340
101340
101339
101339
101338
101338
101337
101337
101336
101336
101335
101335
101334
101334
101333
101333
101333
101332
101332
101332
101331
101331
101331
101330
101330
101330
101330
101329
101329
101329
101329
101328
101328
101328
101328
101327
101327
101327
101327
101326
101326
101326
101326
101325
101325
101142
101155
101173
101190
101206
101221
101235
101249
101261
101272
101282
101291
101299
101307
101313
101319
101324
101328
101332
101335
101338
101340
101342
101344
101345
101346
101347
101348
101348
101348
101348
101348
101348
101348
101348
101347
101347
101347
101346
101346
101345
101345
101344
101343
101343
101342
101342
101341
101341
101340
101340
101339
101338
101338
101337
101337
101337
101336
101336
101335
101335
101334
101334
101334
101333
101333
101333
101332
101332
101332
101331
101331
101331
101330
101330
101330
101330
101329
101329
101329
101329
101329
101328
101328
101328
101328
101328
101327
101327
101327
101327
101327
101326
101326
101326
101326
101326
101326
101325
101325
101195
101205
101217
101229
101240
101251
101261
101270
101279
101287
101294
101300
101306
101312
101316
101320
101324
101327
101330
101332
101334
101336
101337
101338
101339
101340
101341
101341
101341
101342
101342
101342
101342
101341
101341
101341
101341
101340
101340
101340
101339
101339
101339
101338
101338
101337
101337
101337
101336
101336
101335
101335
101335
101334
101334
101334
101333
101333
101333
101332
101332
101332
101331
101331
101331
101331
101330
101330
101330
101330
101329
101329
101329
101329
101329
101329
101328
101328
101328
101328
101328
101328
101327
101327
101327
101327
101327
101327
101327
101326
101326
101326
101326
101326
101326
101326
101326
101325
101325
101325
101248
101253
101260
101268
101274
101281
101287
101292
101297
101302
101306
101310
101314
101317
101320
101322
101324
101326
101328
101329
101330
101331
101332
101333
101334
101334
101334
101335
101335
101335
101335
101335
101335
101335
101335
101335
101334
101334
101334
101334
101334
101333
101333
101333
101333
101332
101332
101332
101332
101331
101331
101331
101331
101331
101330
101330
101330
101330
101330
101329
101329
101329
101329
101329
101329
101328
101328
101328
101328
101328
101328
101328
101327
101327
101327
101327
101327
101327
101327
101327
101327
101327
101326
101326
101326
101326
101326
101326
101326
101326
101326
101326
101326
101326
101325
101325
101325
101325
101325
101325
101299
101301
101304
101306
101308
101310
101312
101314
101316
101317
101319
101320
101321
101322
101323
101324
101325
101325
101326
101326
101327
101327
101327
101328
101328
101328
101328
101328
101328
101328
101328
101328
101328
101328
101328
101328
101328
101328
101328
101328
101328
101328
101328
101328
101328
101327
101327
101327
101327
101327
101327
101327
101327
101327
101327
101327
101327
101327
101327
101326
101326
101326
101326
101326
101326
101326
101326
101326
101326
101326
101326
101326
101326
101326
101326
101326
101326
101326
101326
101326
101326
101326
101325
101325
101325
101325
101325
101325
101325
101325
101325
101325
101325
101325
101325
101325
101325
101325
101325
101325
99598.2
99604.4
99644.7
99712
99798.8
99897.1
99999
100096
100179
100226
99778.2
99775.9
99800.9
99847.9
99911.8
99986.5
100067
100146
100218
100263
99940.6
99931.3
99944.2
99975.4
100021
100076
100138
100201
100263
100307
100083
100070
100075
100096
100129
100170
100218
100268
100318
100359
100211
100196
100196
100208
100231
100263
100299
100338
100380
100415
100326
100310
100306
100313
100329
100351
100379
100410
100444
100474
100430
100414
100407
100410
100421
100437
100458
100483
100509
100535
100525
100509
100501
100501
100508
100520
100536
100555
100576
100597
100613
100597
100589
100587
100590
100599
100611
100625
100642
100660
100694
100679
100671
100667
100669
100674
100683
100695
100708
100723
100769
100756
100747
100743
100743
100747
100753
100762
100773
100785
100840
100827
100819
100815
100814
100816
100821
100828
100837
100847
100906
100895
100888
100884
100882
100883
100887
100892
100899
100907
100969
100959
100953
100949
100947
100948
100950
100954
100960
100967
101029
101021
101015
101012
101010
101010
101011
101015
101019
101025
101086
101080
101075
101072
101070
101070
101071
101074
101077
101081
101141
101137
101133
101131
101129
101129
101130
101131
101134
101137
101195
101192
101189
101187
101186
101186
101187
101188
101189
101192
101248
101246
101244
101243
101243
101242
101243
101243
101244
101246
101299
101299
101298
101298
101298
101298
101298
101298
101298
101299
101719
101677
101601
101500
101362
101169
100898
100481
100004
98715.1
101371
101278
101155
101006
100810
100545
100189
99651.7
99083.5
97513.7
101006
100875
100714
100521
100270
99935.9
99501
98846.8
98198
96355.4
100659
100493
100297
100061
99758.6
99361.1
98855.7
98089.8
97375
95275.9
100342
100144
99917
99642.1
99292.8
98838.6
98273.8
97405.5
96641.6
94311.8
100063
99839.1
99584.6
99275.4
98887.4
98385.3
97775.1
96817.7
96024.1
93499.3
99826.7
99583.3
99307.7
98971.5
98554.6
98015.8
97376.6
96349.9
95547
92868.8
99639
99382.6
99092.7
98738
98303.8
97741.6
97091.2
96022.5
95231.8
92436.1
99502.4
99240
98943.1
98579.4
98139.8
97570.4
96924.7
95842.1
95092.6
92217.4
99417.2
99156.9
98860.7
98499.4
98066.9
97507.7
96880.1
95814.2
95130.1
92230.7
103961
104182
104396
104622
104873
105151
105452
105768
106083
106379
103930
104151
104364
104588
104836
105111
105409
105719
106022
106327
103839
104051
104254
104466
104701
104959
105236
105521
105789
106075
103700
103895
104083
104275
104486
104715
104955
105196
105403
105615
103514
103686
103852
104019
104197
104386
104578
104759
104888
104980
103284
103429
103568
103702
103840
103981
104113
104221
104260
104194
103016
103129
103236
103331
103423
103507
103570
103591
103532
103271
102716
102792
102864
102916
102955
102976
102961
102885
102722
102234
102392
102430
102462
102466
102448
102400
102302
102118
101848
101108
102045
102047
102037
101990
101912
101792
101608
101310
100934
99924.5
101328
101328
101328
101328
101328
101328
101328
101328
101328
101328
101328
101329
101329
101329
101329
101330
101330
101330
101330
101331
101331
101332
101332
101333
101333
101334
101334
101335
101336
101337
101337
101338
101339
101340
101342
101343
101344
101346
101347
101349
101351
101353
101355
101357
101359
101362
101365
101368
101371
101375
101378
101382
101387
101391
101396
101402
101408
101414
101420
101428
101435
101444
101453
101462
101473
101484
101496
101508
101522
101537
101553
101570
101588
101608
101630
101652
101677
101704
101732
101763
101797
101833
101872
101914
101960
102010
102065
102124
102190
102261
102341
102428
102526
102635
102759
102898
103058
103241
103452
103697
101328
101328
101328
101328
101328
101328
101328
101328
101328
101328
101328
101329
101329
101329
101329
101330
101330
101330
101330
101331
101331
101332
101332
101333
101333
101334
101334
101335
101336
101337
101337
101338
101339
101340
101342
101343
101344
101346
101347
101349
101351
101353
101355
101357
101359
101362
101365
101368
101371
101375
101378
101382
101387
101391
101396
101402
101407
101414
101420
101428
101435
101444
101453
101462
101472
101484
101496
101508
101522
101537
101553
101570
101588
101608
101630
101652
101677
101704
101732
101763
101797
101833
101872
101914
101960
102010
102064
102124
102189
102260
102339
102426
102523
102631
102753
102890
103047
103226
103432
103670
101328
101328
101328
101328
101328
101328
101328
101328
101328
101328
101328
101329
101329
101329
101329
101330
101330
101330
101330
101331
101331
101332
101332
101333
101333
101334
101334
101335
101336
101337
101337
101338
101339
101340
101342
101343
101344
101346
101347
101349
101351
101353
101355
101357
101359
101362
101365
101368
101371
101374
101378
101382
101387
101391
101396
101402
101407
101414
101420
101427
101435
101443
101452
101462
101472
101483
101495
101508
101522
101537
101553
101570
101588
101608
101629
101652
101677
101704
101732
101763
101797
101833
101871
101914
101959
102009
102063
102122
102186
102257
102335
102420
102515
102621
102739
102872
103022
103192
103385
103602
101328
101328
101328
101328
101328
101328
101328
101328
101328
101328
101328
101329
101329
101329
101329
101329
101330
101330
101330
101331
101331
101332
101332
101333
101333
101334
101334
101335
101336
101336
101337
101338
101339
101340
101341
101343
101344
101346
101347
101349
101351
101352
101355
101357
101359
101362
101365
101368
101371
101374
101378
101382
101386
101391
101396
101401
101407
101413
101420
101427
101435
101443
101452
101462
101472
101483
101495
101508
101522
101537
101553
101570
101588
101608
101629
101652
101677
101704
101732
101763
101796
101832
101871
101913
101958
102008
102061
102119
102183
102252
102328
102412
102504
102606
102719
102844
102984
103139
103312
103498
101328
101328
101328
101328
101328
101328
101328
101328
101328
101328
101328
101329
101329
101329
101329
101329
101330
101330
101330
101331
101331
101332
101332
101332
101333
101334
101334
101335
101336
101336
101337
101338
101339
101340
101341
101343
101344
101345
101347
101349
101350
101352
101354
101357
101359
101362
101364
101367
101371
101374
101378
101382
101386
101391
101396
101401
101407
101413
101420
101427
101435
101443
101452
101462
101472
101483
101495
101508
101522
101537
101552
101570
101588
101608
101629
101652
101677
101703
101732
101763
101796
101832
101870
101912
101957
102005
102058
102115
102178
102245
102319
102400
102488
102585
102690
102806
102932
103068
103212
103357
101328
101328
101328
101328
101328
101328
101328
101328
101328
101328
101328
101328
101329
101329
101329
101329
101330
101330
101330
101331
101331
101331
101332
101332
101333
101334
101334
101335
101336
101336
101337
101338
101339
101340
101341
101342
101344
101345
101347
101348
101350
101352
101354
101356
101359
101361
101364
101367
101370
101374
101378
101382
101386
101391
101396
101401
101407
101413
101420
101427
101435
101443
101452