/*--------------------------------*- C++ -*----------------------------------*\
  =========                 |
  \\      /  F ield         | OpenFOAM: The Open Source CFD Toolbox
   \\    /   O peration     | Website:  https://openfoam.org
    \\  /    A nd           | Version:  8
     \\/     M anipulation  |
\*---------------------------------------------------------------------------*/
FoamFile
{
    version     2.0;
    format      ascii;
    class       surfaceScalarField;
    location    "2.50002999";
    object      phi;
}
// * * * * * * * * * * * * * * * * * * * * * * * * * * * * * * * * * * * * * //

dimensions      [1 0 -1 0 0 0 0];

internalField   nonuniform List<scalar> 
13330
(
0.592834
-0.762754
0.168585
1.17644
-2.17536
1.59119
1.67037
-2.668
2.17377
2.10163
-2.93584
2.50441
2.48016
-3.08628
2.70763
2.81685
-3.16713
2.83037
3.12237
-3.20858
2.903
3.40562
-3.22722
2.94394
3.67515
-3.23368
2.96412
-3.23456
2.96928
3.94042
0.637046
-1.40007
1.20168
-2.74012
1.65569
-3.12212
2.044
-3.32422
2.37934
-3.42167
2.67575
-3.46358
2.94407
-3.47693
3.19232
-3.4755
3.42602
-3.46739
-3.4566
3.64805
0.628689
-2.02886
1.16319
-3.27472
1.57303
-3.53201
1.91894
-3.67018
2.21452
-3.71728
2.47469
-3.72377
2.71009
-3.71235
2.9281
-3.69353
3.13349
-3.6728
-3.65208
3.32897
0.595722
-2.62461
1.08253
-3.76155
1.44495
-3.89448
1.75027
-3.97551
2.00819
-3.97521
2.23557
-3.95116
2.44226
-3.91905
2.63483
-3.8861
2.81727
-3.85525
-3.82631
2.99148
0.547128
-3.17174
0.975732
-4.19017
1.29049
-4.20925
1.55561
-4.24065
1.77844
-4.19806
1.97638
-4.14912
2.1573
-4.09997
2.32649
-4.0553
2.48711
-4.01587
-3.97972
2.64051
0.489456
-3.66118
0.854698
-4.55541
1.12241
-4.47697
1.34867
-4.46691
1.53846
-4.38785
1.70841
-4.31907
1.86425
-4.2558
2.01032
-4.20138
2.14919
-4.15474
-4.11225
2.28171
0.427105
-4.08828
0.727842
-4.85615
0.951186
-4.70032
1.13866
-4.65438
1.29648
-4.54568
1.43884
-4.46143
1.56948
-4.38644
1.6919
-4.3238
1.8081
-4.27094
-4.22248
1.91833
0.363435
-4.4517
0.601243
-5.09396
0.781762
-4.88084
0.930919
-4.80354
1.05757
-4.67233
1.17168
-4.57553
1.27604
-4.49081
1.37351
-4.42126
1.46569
-4.36312
-4.30923
1.55243
0.300394
-4.75209
0.478048
-5.27161
0.61767
-5.02046
0.728676
-4.91454
0.823919
-4.76757
0.908705
-4.66031
0.985674
-4.56777
1.05694
-4.49253
1.12385
-4.43003
-4.37131
1.18593
0.239141
-4.99123
0.360059
-5.39253
0.459701
-5.1201
0.532841
-4.98768
0.596405
-4.83113
0.650816
-4.71472
0.69921
-4.61616
0.743013
-4.53632
0.78335
-4.47037
0.819696
-4.40765
-0.260059
0.261834
-0.471202
0.211828
-0.628703
0.158014
-0.748064
0.119506
-0.830413
0.0824584
-0.87153
0.0411244
-0.866242
-0.00526498
-0.812917
-0.0533423
-0.717778
-0.0951525
-0.123227
-0.594547
-0.239293
0.503396
-0.403433
0.377924
-0.526078
0.281394
-0.60984
0.20366
-0.648955
0.121728
-0.637168
0.0294026
-0.572973
-0.0694563
-0.459928
-0.166427
-0.308772
-0.246299
-0.300983
-0.131045
-0.147481
0.651905
-0.26773
0.498754
-0.339579
0.353794
-0.357224
0.221575
-0.306825
0.071463
-0.187438
-0.0899294
-0.0141216
-0.242781
0.193813
-0.374368
0.42313
-0.47568
-0.544354
0.666505
-0.0800199
0.732065
-0.127731
0.546971
-0.11423
0.340475
-0.0133636
0.120873
0.179233
-0.121086
0.429857
-0.340535
0.707508
-0.520451
0.997462
-0.664376
1.29814
-0.776353
-0.85392
1.60767
-0.0225809
0.754548
0.0132032
0.510954
0.153422
0.200235
0.411563
-0.137304
0.735669
-0.445223
1.08582
-0.690707
1.44816
-0.882829
1.81531
-1.03153
2.1835
-1.14459
-1.22406
2.55362
0.0262982
0.727679
0.164877
0.372118
0.467237
-0.102392
0.859739
-0.529933
1.27521
-0.860777
1.6975
-1.11306
2.11866
-1.30403
2.53428
-1.44719
2.94104
-1.55136
-1.6235
3.34046
0.0579672
0.66917
0.361971
0.067382
0.809005
-0.54974
1.28156
-1.00265
1.7529
-1.33222
2.21212
-1.57235
2.65348
-1.74545
3.07509
-1.86882
3.47847
-1.95476
-2.0131
3.86804
0.122976
0.544975
0.602103
-0.412413
1.13007
-1.07804
1.64446
-1.51722
2.13096
-1.81883
2.5849
-2.02638
3.00811
-2.16871
3.40468
-2.26542
3.7799
-2.33001
-2.37133
4.13812
0.273103
0.270842
0.840955
-0.98081
1.39733
-1.63469
1.90926
-2.0293
2.37435
-2.28401
2.79752
-2.44962
3.18552
-2.55677
3.54486
-2.62478
3.88148
-2.66663
-2.69076
4.20089
0.439079
1.04929
1.58828
2.06332
2.4869
2.86761
3.21382
3.53296
3.83044
4.10895
-0.342538
-0.25201
-0.113304
-0.22921
0.0929605
-0.206239
0.275914
-0.182933
0.438903
-0.162972
0.586549
-0.147631
0.722021
-0.135458
0.847505
-0.12547
0.96457
-0.117052
1.07438
-0.109798
1.17783
-0.103435
1.27561
-0.0977663
1.36828
-0.0926531
1.45629
-0.0879988
1.54003
-0.083725
1.61981
-0.0797682
1.69591
-0.0760847
1.76856
-0.0726429
1.83799
-0.0694161
1.90438
-0.0663814
1.9679
-0.0635199
2.02873
-0.0608161
2.08699
-0.0582573
2.14283
-0.0558322
2.19636
-0.0535313
2.24771
-0.0513465
2.29699
-0.049271
2.34429
-0.047298
2.38971
-0.0454212
2.43335
-0.0436356
2.47528
-0.0419365
2.5156
-0.0403192
2.55438
-0.0387786
2.59169
-0.0373097
2.6276
-0.0359077
2.66216
-0.0345684
2.69545
-0.0332881
2.72751
-0.0320637
2.75841
-0.0308924
2.78818
-0.0297716
2.81687
-0.028699
2.84455
-0.0276725
2.87124
-0.0266901
2.89698
-0.0257496
2.92183
-0.024849
2.94582
-0.0239865
2.96898
-0.0231602
2.99135
-0.0223688
3.01296
-0.0216103
3.03384
-0.0208828
3.05403
-0.0201847
3.07354
-0.0195144
3.09241
-0.0188707
3.11066
-0.0182523
3.12832
-0.0176579
3.14541
-0.0170864
3.16195
-0.0165368
3.17795
-0.0160078
3.19345
-0.0154987
3.20846
-0.0150084
3.223
-0.0145361
3.23708
-0.0140812
3.25072
-0.013643
3.26394
-0.0132208
3.27676
-0.0128141
3.28918
-0.0124223
3.30122
-0.0120449
3.3129
-0.0116814
3.32423
-0.0113314
3.33523
-0.0109944
3.3459
-0.0106698
3.35626
-0.0103573
3.36631
-0.0100563
3.37608
-0.00976635
3.38557
-0.00948696
3.39478
-0.00921763
3.40374
-0.0089579
3.41245
-0.00870733
3.42091
-0.0084655
3.42915
-0.00823202
3.43715
-0.00800647
3.44494
-0.00778851
3.45252
-0.00757773
3.45989
-0.00737382
3.46707
-0.00717637
3.47406
-0.0069851
3.48086
-0.00679952
3.48747
-0.00661937
3.49392
-0.00644395
3.50019
-0.00627292
3.5063
-0.0061051
3.51224
-0.00593983
3.51801
-0.00577498
3.52362
-0.00560903
3.52906
-0.005438
3.53432
-0.00525785
3.53938
-0.00506176
3.54422
-0.00484165
3.54881
-0.00459167
-0.00408853
0.0886363
-0.471661
0.277436
-0.417966
0.445531
-0.374292
0.599583
-0.33695
0.741465
-0.304823
0.872228
-0.278366
0.993492
-0.256693
1.10663
-0.238581
1.21273
-0.223118
1.31266
-0.209693
1.4071
-0.197843
1.49658
-0.187217
1.58154
-0.177586
1.66237
-0.168791
1.73936
-0.160694
1.8128
-0.153173
1.88289
-0.146153
1.94986
-0.139586
2.01388
-0.133423
2.07514
-0.127621
2.13378
-0.122144
2.18994
-0.116965
2.24376
-0.11206
2.29535
-0.107409
2.34482
-0.102994
2.39228
-0.0988017
2.43783
-0.0948179
2.48157
-0.0910297
2.52357
-0.0874253
2.56394
-0.0839948
2.60273
-0.0807283
2.64003
-0.0776163
2.6759
-0.0746491
2.7104
-0.0718174
2.74361
-0.0691125
2.77556
-0.0665267
2.80633
-0.0640539
2.83595
-0.0616885
2.86448
-0.0594254
2.89197
-0.0572601
2.91846
-0.0551885
2.94399
-0.0532062
2.9686
-0.0513087
2.99235
-0.0494921
3.01525
-0.0477527
3.03735
-0.0460872
3.05868
-0.0444921
3.07928
-0.0429647
3.09917
-0.0415016
3.11838
-0.0400988
3.13695
-0.038753
3.1549
-0.0374616
3.17225
-0.0362222
3.18903
-0.0350323
3.20526
-0.0338892
3.22097
-0.0327908
3.23617
-0.0317348
3.25088
-0.0307191
3.26512
-0.0297418
3.27892
-0.028801
3.29227
-0.0278951
3.30522
-0.0270226
3.31775
-0.0261824
3.32991
-0.0253731
3.34169
-0.0245938
3.35311
-0.0238432
3.36418
-0.0231203
3.37492
-0.0224242
3.38535
-0.0217541
3.39546
-0.021109
3.40528
-0.0204879
3.41481
-0.01989
3.42407
-0.0193141
3.43306
-0.0187595
3.4418
-0.018225
3.45029
-0.0177099
3.45855
-0.0172132
3.46657
-0.0167341
3.47438
-0.0162717
3.48197
-0.0158253
3.48936
-0.0153942
3.49655
-0.0149777
3.50355
-0.014575
3.51036
-0.0141856
3.51699
-0.0138087
3.52345
-0.0134437
3.52974
-0.0130896
3.53587
-0.0127461
3.54184
-0.0124117
3.54765
-0.0120858
3.55331
-0.0117661
3.55882
-0.0114514
3.56418
-0.0111376
3.5694
-0.0108217
3.57445
-0.0104959
3.57935
-0.0101525
3.58406
-0.00977797
3.58857
-0.00934598
3.59281
-0.00882946
-0.00818223
0.801005
-0.606185
0.923694
-0.540658
1.0426
-0.493194
1.15773
-0.452075
1.26776
-0.414844
1.37203
-0.382629
1.47068
-0.355327
1.56408
-0.33196
1.65262
-0.311629
1.73666
-0.293708
1.81652
-0.277685
1.8925
-0.263166
1.96485
-0.24991
2.03382
-0.237735
2.09962
-0.226469
2.16243
-0.215959
2.22242
-0.206124
2.27977
-0.196911
2.33462
-0.18825
2.38709
-0.180083
2.43733
-0.172366
2.48544
-0.165063
2.53154
-0.158144
2.57572
-0.151582
2.61809
-0.145353
2.65873
-0.139435
2.69772
-0.13381
2.73516
-0.12846
2.7711
-0.123367
2.80562
-0.118515
2.83879
-0.113893
2.87066
-0.109486
2.90129
-0.105282
2.93074
-0.101267
2.95906
-0.097429
2.98629
-0.0937597
3.01248
-0.0902506
3.03769
-0.0868946
3.06195
-0.0836845
3.0853
-0.0806139
3.10779
-0.0776767
3.12945
-0.0748664
3.15031
-0.0721776
3.17043
-0.0696053
3.18982
-0.067144
3.20852
-0.064789
3.22656
-0.0625347
3.24397
-0.0603776
3.26078
-0.0583129
3.27702
-0.0563336
3.2927
-0.0544353
3.30786
-0.0526148
3.3225
-0.0508685
3.33666
-0.0491925
3.35036
-0.0475831
3.3636
-0.046037
3.37642
-0.0445511
3.38882
-0.0431226
3.40083
-0.0417485
3.41246
-0.0404262
3.42371
-0.0391535
3.43462
-0.0379286
3.44519
-0.0367498
3.45543
-0.0356152
3.46536
-0.0345233
3.47499
-0.0334723
3.48433
-0.0324608
3.49339
-0.0314875
3.50219
-0.030551
3.51073
-0.0296497
3.51902
-0.0287823
3.52708
-0.0279473
3.53491
-0.0271432
3.54252
-0.0263689
3.54991
-0.0256228
3.55711
-0.024904
3.56411
-0.0242109
3.57091
-0.0235423
3.57754
-0.0228972
3.58399
-0.0222745
3.59027
-0.0216733
3.59638
-0.0210926
3.60234
-0.0205315
3.60815
-0.0199891
3.6138
-0.0194643
3.61931
-0.0189565
3.62469
-0.0184642
3.62993
-0.017987
3.63504
-0.0175228
3.64002
-0.0170707
3.64489
-0.0166276
3.64963
-0.0161918
3.65425
-0.0157573
3.65874
-0.0153203
3.66312
-0.0148694
3.66736
-0.0143939
3.67145
-0.0138745
3.67538
-0.0132731
3.67911
-0.0125574
-0.0117152
1.66747
-0.666021
1.73072
-0.603943
1.79994
-0.562447
1.8729
-0.525048
1.94686
-0.488818
2.02004
-0.455814
2.0915
-0.426775
2.16071
-0.401158
2.22738
-0.378285
2.29139
-0.357698
2.35273
-0.338999
2.41144
-0.321854
2.46762
-0.306067
2.52135
-0.291446
2.57273
-0.277826
2.62187
-0.265077
2.66888
-0.253116
2.71388
-0.241884
2.75694
-0.231296
2.79816
-0.221293
2.83764
-0.211829
2.87546
-0.202866
2.91169
-0.194367
2.94642
-0.186301
2.97971
-0.178638
3.01164
-0.171353
3.04225
-0.164424
3.07162
-0.157826
3.0998
-0.151541
3.12684
-0.14555
3.15279
-0.139838
3.17769
-0.134389
3.20159
-0.129186
3.22454
-0.124215
3.24658
-0.119463
3.26774
-0.114922
3.28807
-0.110582
3.30761
-0.106436
3.3264
-0.102473
3.34447
-0.098685
3.36185
-0.0950645
3.37859
-0.0916037
3.39471
-0.0882956
3.41024
-0.0851329
3.4252
-0.0821085
3.43963
-0.079216
3.45354
-0.0764475
3.46696
-0.0737997
3.47992
-0.0712662
3.49242
-0.0688362
3.50449
-0.0665062
3.51615
-0.0642723
3.52741
-0.0621297
3.53829
-0.0600734
3.54881
-0.0580988
3.55897
-0.056202
3.5688
-0.0543798
3.57831
-0.0526288
3.5875
-0.0509455
3.5964
-0.0493264
3.60502
-0.0477695
3.61336
-0.0462727
3.62145
-0.0448338
3.62928
-0.0434503
3.63688
-0.0421202
3.64425
-0.0408413
3.6514
-0.0396117
3.65834
-0.0384294
3.66508
-0.0372927
3.67163
-0.0361996
3.67799
-0.0351482
3.68418
-0.0341365
3.6902
-0.0331628
3.69606
-0.0322253
3.70176
-0.0313224
3.70731
-0.0304526
3.71271
-0.0296142
3.71798
-0.0288055
3.7231
-0.0280255
3.7281
-0.0272734
3.73298
-0.0265477
3.73773
-0.0258473
3.74237
-0.0251711
3.7469
-0.0245182
3.75132
-0.0238871
3.75565
-0.0232771
3.75987
-0.0226865
3.76399
-0.0221146
3.76803
-0.021559
3.77198
-0.0210188
3.77584
-0.0204899
3.77962
-0.0199704
3.78331
-0.019453
3.78693
-0.0189333
3.79045
-0.0183973
3.79389
-0.0178322
3.79723
-0.0172139
3.80046
-0.0164968
3.80354
-0.0156409
-0.0146458
2.56918
-0.681634
2.59638
-0.631203
2.63118
-0.597301
2.67066
-0.564558
2.71313
-0.531311
2.7571
-0.499795
2.80136
-0.471039
2.84512
-0.444914
2.8879
-0.421053
2.92942
-0.399203
2.96956
-0.379118
3.00826
-0.360532
3.0455
-0.343286
3.0813
-0.327219
3.1157
-0.312215
3.1488
-0.298151
3.18061
-0.284908
3.21117
-0.272425
3.24052
-0.260628
3.2687
-0.249461
3.29576
-0.238873
3.32173
-0.228828
3.34666
-0.219288
3.37059
-0.210217
3.39354
-0.201587
3.41557
-0.193371
3.4367
-0.185546
3.45696
-0.178088
3.4764
-0.170976
3.49504
-0.164188
3.51291
-0.157706
3.53004
-0.151511
3.54644
-0.14559
3.56216
-0.139936
3.57724
-0.134538
3.5917
-0.129386
3.60559
-0.124469
3.61893
-0.119776
3.63175
-0.115295
3.64408
-0.111016
3.65595
-0.10693
3.66737
-0.103026
3.67837
-0.0992956
3.68896
-0.0957295
3.69918
-0.0923188
3.70902
-0.0890562
3.7185
-0.0859318
3.72764
-0.0829413
3.73645
-0.0800788
3.74495
-0.0773337
3.75315
-0.074702
3.76105
-0.0721779
3.76868
-0.0697559
3.77604
-0.0674313
3.78314
-0.0651996
3.78999
-0.0630571
3.79662
-0.0610007
3.80301
-0.0590271
3.8092
-0.0571322
3.81518
-0.0553112
3.82098
-0.0535627
3.82659
-0.0518844
3.83203
-0.0502733
3.8373
-0.0487265
3.84242
-0.0472411
3.8474
-0.0458146
3.85223
-0.0444444
3.85693
-0.0431283
3.8615
-0.0418642
3.86595
-0.0406496
3.87028
-0.0394821
3.87451
-0.0383596
3.87862
-0.0372798
3.88264
-0.0362408
3.88656
-0.0352406
3.89038
-0.0342778
3.89412
-0.0333504
3.89777
-0.0324564
3.90134
-0.0315953
3.90483
-0.0307661
3.90825
-0.0299668
3.9116
-0.0291964
3.91488
-0.0284537
3.9181
-0.0277379
3.92126
-0.0270469
3.92437
-0.0263802
3.92742
-0.0257358
3.93041
-0.0251132
3.93336
-0.0245094
3.93627
-0.0239237
3.93913
-0.0233513
3.94195
-0.0227905
3.94473
-0.0222329
3.94747
-0.021674
3.95017
-0.0210984
3.95283
-0.0204925
3.95545
-0.0198283
3.95801
-0.019057
3.96049
-0.0181272
-0.0170416
3.33597
-0.677202
3.34673
-0.642028
3.36508
-0.615711
3.38727
-0.586788
3.41233
-0.556397
3.43934
-0.526814
3.46722
-0.498932
3.49517
-0.47286
3.52267
-0.448537
3.54939
-0.425907
3.57514
-0.404854
3.59982
-0.385192
3.62337
-0.366817
3.6458
-0.349625
3.66711
-0.333502
3.68732
-0.318341
3.70647
-0.304045
3.72463
-0.290559
3.74184
-0.277823
3.75817
-0.265776
3.77367
-0.254363
3.7884
-0.243543
3.8024
-0.233274
3.81571
-0.223518
3.82838
-0.214244
3.84044
-0.205425
3.85193
-0.197033
3.86289
-0.18904
3.87334
-0.181426
3.88333
-0.174169
3.89287
-0.167249
3.90201
-0.16065
3.91079
-0.154361
3.91922
-0.148365
3.92733
-0.142643
3.93512
-0.137181
3.94262
-0.131967
3.94983
-0.126987
3.95677
-0.122229
3.96343
-0.117684
3.96984
-0.11334
3.97601
-0.109188
3.98193
-0.105219
3.98762
-0.101423
3.9931
-0.0977923
3.99836
-0.0943182
4.00342
-0.0909904
4.00828
-0.0878036
4.01296
-0.0847527
4.01745
-0.0818255
4.02176
-0.0790164
4.02591
-0.0763234
4.0299
-0.0737438
4.03374
-0.0712728
4.03744
-0.0689041
4.04102
-0.0666348
4.04448
-0.0644603
4.04783
-0.0623771
4.05108
-0.0603807
4.05423
-0.0584651
4.0573
-0.0566298
4.06028
-0.054871
4.06319
-0.0531846
4.06603
-0.0515673
4.06881
-0.050016
4.07152
-0.0485275
4.07418
-0.0470991
4.07678
-0.0457282
4.07932
-0.0444121
4.08182
-0.0431481
4.08427
-0.0419336
4.08668
-0.0407663
4.08904
-0.0396442
4.09137
-0.0385655
4.09366
-0.0375284
4.09591
-0.0365316
4.09813
-0.0355732
4.10033
-0.0346512
4.1025
-0.0337647
4.10465
-0.0329123
4.10677
-0.0320922
4.10888
-0.0313032
4.11097
-0.0305447
4.11305
-0.0298152
4.11511
-0.0291125
4.11717
-0.0284364
4.11922
-0.0277845
4.12126
-0.0271565
4.1233
-0.0265491
4.12534
-0.0259618
4.12738
-0.0253894
4.12942
-0.0248305
4.13146
-0.0242762
4.13351
-0.0237227
4.13556
-0.0231542
4.13763
-0.022558
4.1397
-0.0219046
4.14179
-0.0211462
4.14388
-0.0202172
-0.019116
3.84654
-0.655747
3.84172
-0.637261
3.84623
-0.620275
3.85616
-0.596751
3.87025
-0.570501
3.88763
-0.544205
3.90726
-0.51857
3.92823
-0.493825
3.94988
-0.47017
3.97169
-0.447707
3.99331
-0.426458
4.0145
-0.406361
4.03507
-0.387363
4.05486
-0.369403
4.07379
-0.352412
4.0918
-0.336325
4.10884
-0.321075
4.12492
-0.306613
4.14
-0.29289
4.1541
-0.279863
4.16724
-0.267484
4.17942
-0.255716
4.19069
-0.244528
4.20107
-0.233884
4.21059
-0.223757
4.2193
-0.214122
4.22722
-0.204953
4.23442
-0.196227
4.24092
-0.187926
4.24679
-0.180034
4.25208
-0.172533
4.25684
-0.165404
4.26111
-0.158628
4.26493
-0.152188
4.26835
-0.146065
4.27141
-0.140242
4.27415
-0.134705
4.27661
-0.129438
4.2788
-0.124427
4.28078
-0.119657
4.28256
-0.115117
4.28416
-0.110794
4.28562
-0.106677
4.28695
-0.102754
4.28817
-0.0990122
4.2893
-0.0954431
4.29034
-0.0920355
4.29132
-0.0887827
4.29225
-0.0856769
4.29313
-0.0827075
4.29398
-0.0798688
4.29481
-0.0771551
4.29563
-0.0745592
4.29643
-0.0720747
4.29722
-0.0696972
4.29801
-0.0674208
4.29879
-0.0652412
4.29957
-0.0631537
4.30034
-0.0611554
4.30112
-0.0592436
4.3019
-0.0574124
4.30269
-0.0556585
4.30348
-0.0539787
4.30428
-0.0523698
4.3051
-0.0508285
4.30592
-0.0493518
4.30676
-0.0479363
4.30761
-0.0465787
4.30847
-0.0452759
4.30935
-0.0440256
4.31024
-0.0428259
4.31115
-0.0416757
4.31208
-0.0405728
4.31303
-0.0395157
4.314
-0.038502
4.315
-0.0375306
4.31603
-0.0365994
4.31708
-0.0357063
4.31817
-0.0348498
4.31929
-0.034029
4.32044
-0.0332416
4.32162
-0.0324863
4.32284
-0.0317625
4.32409
-0.0310684
4.32538
-0.0304022
4.32671
-0.0297636
4.32807
-0.0291501
4.32948
-0.0285612
4.33092
-0.0279937
4.33241
-0.0274473
4.33393
-0.0269167
4.3355
-0.0264009
4.33712
-0.0258917
4.33878
-0.0253861
4.3405
-0.0248699
4.34227
-0.0243335
4.34412
-0.0237476
4.34604
-0.0230744
4.34806
-0.0222337
-0.0212045
4.10398
-0.621647
4.08475
-0.618068
4.07576
-0.611327
4.07396
-0.594973
4.07773
-0.57429
4.08591
-0.552394
4.0975
-0.530153
4.11162
-0.507939
4.12756
-0.486099
4.14476
-0.464897
4.1628
-0.44448
4.18136
-0.424903
4.2002
-0.406177
4.21911
-0.388294
4.23795
-0.371231
4.25659
-0.354951
4.27496
-0.339419
4.29296
-0.324595
4.31053
-0.310445
4.32762
-0.296937
4.34419
-0.284036
4.3602
-0.271712
4.37562
-0.259939
4.39044
-0.248687
4.40462
-0.23793
4.41816
-0.227648
4.43103
-0.217819
4.44324
-0.208424
4.45476
-0.199442
4.46559
-0.190857
4.47571
-0.182653
4.48512
-0.174813
4.49382
-0.167323
4.50181
-0.160174
4.5091
-0.153351
4.5157
-0.146843
4.52163
-0.140635
4.52691
-0.134716
4.53156
-0.129075
4.53561
-0.123703
4.53908
-0.118586
4.542
-0.113718
4.54441
-0.109087
4.54634
-0.104684
4.54783
-0.1005
4.54892
-0.0965267
4.54963
-0.0927546
4.55003
-0.0891776
4.55014
-0.0857889
4.55001
-0.082579
4.54968
-0.0795382
4.54919
-0.0766582
4.54856
-0.0739305
4.54783
-0.0713452
4.54702
-0.0688945
4.54617
-0.0665711
4.5453
-0.0643677
4.54442
-0.0622767
4.54356
-0.0602924
4.54272
-0.0584077
4.54193
-0.0566159
4.54118
-0.0549114
4.54049
-0.0532891
4.53986
-0.0517443
4.53931
-0.0502724
4.53883
-0.0488691
4.53842
-0.04753
4.53809
-0.0462521
4.53785
-0.0450317
4.53769
-0.0438658
4.53761
-0.0427516
4.53762
-0.0416864
4.53772
-0.0406674
4.5379
-0.0396925
4.53815
-0.0387595
4.53849
-0.0378675
4.53891
-0.037014
4.5394
-0.0361975
4.53996
-0.0354166
4.54061
-0.0346709
4.54132
-0.0339583
4.54211
-0.0332774
4.54298
-0.0326276
4.54392
-0.0320078
4.54493
-0.0314159
4.54602
-0.0308519
4.54718
-0.030313
4.54842
-0.0297991
4.54973
-0.0293066
4.55112
-0.0288354
4.55259
-0.0283805
4.55413
-0.0279427
4.55575
-0.0275145
4.55746
-0.0270952
4.55926
-0.0266722
4.56117
-0.026242
4.5632
-0.0257788
4.56539
-0.0252651
4.56777
-0.0246147
-0.0237935
4.16098
-0.581757
4.13366
-0.590776
4.11606
-0.593747
4.10686
-0.585796
4.10436
-0.571791
4.10691
-0.554948
4.11336
-0.536594
4.12283
-0.517404
4.13463
-0.497887
4.14818
-0.478439
4.16305
-0.459332
4.17889
-0.440727
4.19544
-0.422716
4.21251
-0.405342
4.22992
-0.388627
4.24755
-0.372566
4.26529
-0.357147
4.28307
-0.342353
4.3008
-0.328164
4.31844
-0.31456
4.33593
-0.301515
4.35324
-0.289009
4.37033
-0.277019
4.38718
-0.265523
4.40376
-0.2545
4.42005
-0.243931
4.43604
-0.2338
4.4517
-0.224087
4.46704
-0.214776
4.48204
-0.205851
4.49669
-0.197298
4.51098
-0.189102
4.52491
-0.181248
4.53846
-0.173724
4.55163
-0.166517
4.5644
-0.159615
4.57678
-0.153007
4.58874
-0.146681
4.6003
-0.140627
4.61143
-0.134831
4.62213
-0.129287
4.63239
-0.123984
4.64222
-0.118911
4.6516
-0.114061
4.66052
-0.109424
4.66899
-0.104995
4.677
-0.100763
4.68454
-0.0967237
4.69162
-0.0928685
4.69823
-0.0891902
4.70438
-0.0856819
4.71006
-0.0823391
4.71528
-0.0791555
4.72006
-0.0761248
4.72441
-0.0732423
4.72834
-0.0705025
4.73187
-0.0679003
4.73503
-0.0654307
4.73782
-0.0630888
4.74028
-0.0608698
4.74244
-0.0587686
4.74431
-0.0567804
4.74592
-0.054901
4.7473
-0.0531261
4.74848
-0.0514515
4.74948
-0.049873
4.75034
-0.0483867
4.75108
-0.0469894
4.75172
-0.0456763
4.7523
-0.044443
4.75283
-0.0432854
4.75334
-0.042199
4.75385
-0.0411789
4.75438
-0.0402218
4.75495
-0.0393232
4.75556
-0.0384798
4.75623
-0.0376872
4.75698
-0.0369424
4.7578
-0.0362416
4.75872
-0.0355831
4.75972
-0.0349633
4.76082
-0.0343801
4.76203
-0.0338314
4.76333
-0.0333153
4.76475
-0.0328283
4.76627
-0.0323702
4.76789
-0.0319379
4.76962
-0.0315312
4.77146
-0.031147
4.77341
-0.0307852
4.77547
-0.0304415
4.77765
-0.030116
4.77993
-0.0298032
4.78234
-0.0295031
4.78488
-0.0292083
4.78756
-0.0289187
4.7904
-0.0286212
4.79345
-0.0283183
4.7968
-0.0279612
-0.027498
4.06493
-0.537749
4.03021
-0.556085
4.00355
-0.567105
3.98651
-0.568767
3.97779
-0.563082
3.97555
-0.55271
3.97836
-0.539402
3.98517
-0.524199
3.9951
-0.507812
4.00746
-0.490789
4.02168
-0.473541
4.03733
-0.456357
4.05405
-0.439426
4.07159
-0.422868
4.08974
-0.406757
4.10832
-0.391136
4.12722
-0.376027
4.14631
-0.361436
4.16553
-0.347366
4.18479
-0.333808
4.20404
-0.320753
4.22323
-0.308188
4.24232
-0.296099
4.26128
-0.284471
4.28008
-0.27329
4.2987
-0.262542
4.31712
-0.252213
4.33533
-0.242288
4.35331
-0.232754
4.37106
-0.223597
4.38857
-0.214804
4.40584
-0.206363
4.42285
-0.198261
4.43962
-0.190486
4.45613
-0.183027
4.47239
-0.175874
4.4884
-0.169015
4.50416
-0.16244
4.51967
-0.156137
4.53494
-0.150096
4.54996
-0.144308
4.56474
-0.138764
4.57928
-0.133453
4.59359
-0.128366
4.60766
-0.123496
4.6215
-0.118834
4.6351
-0.114372
4.64848
-0.110102
4.66163
-0.106017
4.67455
-0.10211
4.68724
-0.0983729
4.6997
-0.0947987
4.71193
-0.0913806
4.72391
-0.088114
4.73566
-0.0849927
4.74717
-0.0820105
4.75843
-0.0791612
4.76944
-0.0764393
4.78019
-0.0738409
4.79068
-0.0713606
4.80091
-0.0689932
4.81086
-0.0667343
4.82054
-0.0645795
4.82994
-0.0625249
4.83906
-0.0605668
4.84788
-0.0587019
4.85642
-0.056926
4.86467
-0.0552364
4.87262
-0.0536295
4.88028
-0.0521033
4.88765
-0.0506542
4.89473
-0.0492803
4.90153
-0.0479786
4.90806
-0.0467472
4.91432
-0.0455833
4.92032
-0.0444854
4.92609
-0.0434506
4.93162
-0.0424777
4.93694
-0.0415636
4.94207
-0.0407078
4.94701
-0.0399071
4.95179
-0.0391611
4.95643
-0.0384663
4.96094
-0.0378232
4.96534
-0.0372276
4.96964
-0.036679
4.97388
-0.0361743
4.97806
-0.0357134
4.98221
-0.0352926
4.98634
-0.034912
4.99046
-0.0345664
4.9946
-0.0342568
4.99877
-0.0339766
5.003
-0.0337282
5.0073
-0.033505
5.01169
-0.0333151
5.01623
-0.0331549
5.02097
-0.033058
5.02605
-0.0330479
-0.0332707
5.11468
-0.483835
-5.16861
5.05977
-0.501187
5.00877
-0.516112
4.96278
-0.522776
4.92227
-0.522573
4.88712
-0.517567
4.85695
-0.509229
4.83127
-0.498517
4.8096
-0.48613
4.79144
-0.472623
4.77634
-0.458439
4.7639
-0.443907
4.75374
-0.429264
4.74556
-0.414676
4.73907
-0.40026
4.73404
-0.386096
4.73026
-0.372238
4.72755
-0.358722
4.72577
-0.345573
4.72477
-0.332804
4.72445
-0.320424
4.7247
-0.308433
4.72544
-0.296832
4.72659
-0.285618
4.72809
-0.274784
4.72988
-0.264326
4.73191
-0.254236
4.73413
-0.244506
4.73651
-0.23513
4.73901
-0.226096
4.74161
-0.217398
4.74428
-0.209026
4.74699
-0.200971
4.74973
-0.193225
4.75248
-0.185778
4.75523
-0.178621
4.75796
-0.171747
4.76067
-0.165145
4.76334
-0.158807
4.76596
-0.152724
4.76854
-0.146887
4.77106
-0.141287
4.77353
-0.135917
4.77593
-0.130769
4.77827
-0.125833
4.78054
-0.121104
4.78274
-0.116573
4.78487
-0.112233
4.78693
-0.108077
4.78891
-0.104097
4.79083
-0.100288
4.79267
-0.0966412
4.79444
-0.0931511
4.79614
-0.0898122
4.79776
-0.0866185
4.79932
-0.0835642
4.8008
-0.0806432
4.80221
-0.07785
4.80355
-0.0751798
4.80482
-0.0726277
4.80601
-0.0701882
4.80713
-0.067857
4.80818
-0.0656293
4.80916
-0.0635011
4.81006
-0.0614682
4.81089
-0.0595271
4.81163
-0.0576738
4.8123
-0.0559043
4.81289
-0.0542152
4.81339
-0.0526042
4.8138
-0.0510671
4.81412
-0.0496018
4.81435
-0.0482052
4.81448
-0.0468749
4.8145
-0.045608
4.81442
-0.0444026
4.81422
-0.0432559
4.81391
-0.0421664
4.81348
-0.0411314
4.81292
-0.0401499
4.81223
-0.0392192
4.81141
-0.0383389
4.81045
-0.0375061
4.80935
-0.0367212
4.8081
-0.0359802
4.80671
-0.0352847
4.80516
-0.0346304
4.80347
-0.0340199
4.80162
-0.033448
4.79963
-0.0329175
4.79749
-0.0324235
4.7952
-0.0319697
4.79277
-0.0315509
4.79022
-0.0311734
4.78755
-0.0308331
4.78478
-0.030545
4.78194
-0.0303156
4.77907
-0.0301914
4.77624
-0.0302188
-0.0307811
5.15203
-0.428533
-5.20733
5.10076
-0.449923
5.05266
-0.468027
5.00937
-0.479487
4.97114
-0.484345
4.9377
-0.484126
4.90865
-0.480183
4.88359
-0.473459
4.86212
-0.464655
4.84384
-0.454338
4.82838
-0.442971
4.81539
-0.430913
4.80456
-0.418434
4.79563
-0.405735
4.78834
-0.392964
4.78248
-0.380231
4.77786
-0.367617
4.77433
-0.355181
4.77173
-0.342968
4.76994
-0.331008
4.76885
-0.319327
4.76837
-0.307939
4.76839
-0.296854
4.76886
-0.286082
4.76971
-0.275626
4.77088
-0.265486
4.77231
-0.255664
4.77396
-0.246157
4.7758
-0.236965
4.77779
-0.228081
4.7799
-0.219503
4.7821
-0.211225
4.78437
-0.203241
4.78669
-0.195545
4.78904
-0.188131
4.79142
-0.180992
4.79379
-0.174122
4.79616
-0.167514
4.79851
-0.161159
4.80084
-0.155051
4.80313
-0.149182
4.80539
-0.143545
4.80761
-0.138133
4.80978
-0.132938
4.8119
-0.127954
4.81397
-0.123173
4.81598
-0.118588
4.81794
-0.114192
4.81984
-0.10998
4.82169
-0.105944
4.82348
-0.102077
4.82521
-0.098373
4.82688
-0.0948263
4.8285
-0.091431
4.83006
-0.0881813
4.83157
-0.0850716
4.83302
-0.0820963
4.83442
-0.0792498
4.83577
-0.0765274
4.83707
-0.073924
4.83831
-0.0714348
4.83951
-0.0690549
4.84066
-0.06678
4.84177
-0.0646059
4.84283
-0.0625286
4.84384
-0.0605441
4.84482
-0.0586488
4.84575
-0.0568386
4.84665
-0.0551103
4.8475
-0.0534607
4.84832
-0.0518866
4.84911
-0.0503849
4.84985
-0.0489531
4.85057
-0.0475882
4.85125
-0.0462876
4.85189
-0.045049
4.85251
-0.0438699
4.85309
-0.0427481
4.85364
-0.0416815
4.85416
-0.0406682
4.85464
-0.0397063
4.8551
-0.0387942
4.85552
-0.0379299
4.85591
-0.0371122
4.85627
-0.036339
4.8566
-0.0356102
4.85689
-0.034923
4.85715
-0.0342774
4.85737
-0.0336708
4.85756
-0.0331039
4.85771
-0.0325742
4.85782
-0.0320833
4.8579
-0.0316293
4.85794
-0.0312163
4.85795
-0.0308459
4.85794
-0.0305281
4.8579
-0.0302759
4.85782
-0.0301186
4.85771
-0.0301041
-0.0303762
5.17743
-0.374762
-5.2312
5.12868
-0.401179
5.08347
-0.422821
5.04233
-0.438344
5.00554
-0.447562
4.97299
-0.451577
4.94441
-0.451604
4.91951
-0.448553
4.89796
-0.443108
4.87945
-0.435829
4.86367
-0.427181
4.85029
-0.417536
4.83905
-0.407188
4.82968
-0.396361
4.82195
-0.385232
4.81565
-0.373933
4.81061
-0.362571
4.80666
-0.351226
4.80365
-0.33996
4.80147
-0.328824
4.8
-0.317854
4.79915
-0.30708
4.79883
-0.296525
4.79895
-0.286207
4.79947
-0.276138
4.80032
-0.266329
4.80144
-0.256786
4.8028
-0.247513
4.80435
-0.238515
4.80607
-0.229792
4.80791
-0.221344
4.80985
-0.213168
4.81188
-0.205264
4.81396
-0.197627
4.81608
-0.190255
4.81824
-0.183143
4.8204
-0.176286
4.82257
-0.169679
4.82472
-0.163316
4.82686
-0.157191
4.82898
-0.151298
4.83106
-0.145631
4.83311
-0.140184
4.83512
-0.13495
4.83709
-0.129923
4.83901
-0.125096
4.84089
-0.120464
4.84271
-0.116019
4.84449
-0.111756
4.84622
-0.107669
4.84789
-0.10375
4.84951
-0.0999951
4.85108
-0.096397
4.8526
-0.0929504
4.85407
-0.08965
4.85549
-0.0864902
4.85685
-0.0834656
4.85818
-0.0805709
4.85945
-0.0778012
4.86068
-0.0751517
4.86186
-0.0726175
4.863
-0.0701941
4.86409
-0.067877
4.86515
-0.0656621
4.86617
-0.0635453
4.86715
-0.0615227
4.86809
-0.0595906
4.86899
-0.0577452
4.86987
-0.0559832
4.87071
-0.0543012
4.87152
-0.0526961
4.87229
-0.0511648
4.87305
-0.0497046
4.87377
-0.0483127
4.87447
-0.0469865
4.87514
-0.0457234
4.87579
-0.0445211
4.87642
-0.0433774
4.87703
-0.0422902
4.87762
-0.0412574
4.87819
-0.0402773
4.87875
-0.039348
4.87928
-0.0384679
4.87981
-0.0376356
4.88032
-0.0368494
4.88081
-0.0361083
4.8813
-0.0354107
4.88178
-0.0347557
4.88225
-0.034142
4.88272
-0.0335694
4.88318
-0.0330367
4.88364
-0.0325447
4.8841
-0.0320935
4.88457
-0.0316859
4.88505
-0.0313256
4.88555
-0.0310202
4.88605
-0.0307814
4.88656
-0.0306278
4.88704
-0.0305838
-0.0306695
5.19198
-0.323491
-5.24325
5.14565
-0.354852
5.10304
-0.380217
5.06413
-0.399435
5.02913
-0.412561
4.998
-0.420448
4.97053
-0.424139
4.94647
-0.424494
4.92554
-0.422178
4.90745
-0.417743
4.89192
-0.411653
4.87868
-0.404292
4.86746
-0.395971
4.85804
-0.386936
4.85019
-0.377385
4.84374
-0.367472
4.83849
-0.357325
4.83431
-0.347042
4.83106
-0.336704
4.82861
-0.326375
4.82687
-0.316107
4.82574
-0.305942
4.82513
-0.295914
4.82497
-0.286049
4.82521
-0.27637
4.82578
-0.266893
4.82663
-0.257632
4.82771
-0.248598
4.829
-0.239799
4.83045
-0.231242
4.83204
-0.222929
4.83373
-0.214863
4.83552
-0.207045
4.83736
-0.199475
4.83926
-0.192152
4.84119
-0.185073
4.84314
-0.178236
4.8451
-0.171637
4.84705
-0.165272
4.849
-0.159137
4.85093
-0.153227
4.85283
-0.147537
4.85471
-0.142061
4.85655
-0.136794
4.85836
-0.131731
4.86013
-0.126865
4.86186
-0.122191
4.86354
-0.117703
4.86518
-0.113395
4.86677
-0.109262
4.86831
-0.105297
4.86981
-0.101495
4.87127
-0.0978507
4.87267
-0.0943578
4.87404
-0.0910114
4.87535
-0.087806
4.87662
-0.0847365
4.87785
-0.0817978
4.87903
-0.0789849
4.88017
-0.0762931
4.88127
-0.0737178
4.88233
-0.0712543
4.88335
-0.0688984
4.88434
-0.066646
4.88528
-0.0644929
4.8862
-0.0624353
4.88707
-0.0604694
4.88792
-0.0585916
4.88874
-0.0567985
4.88952
-0.0550868
4.89028
-0.0534532
4.89101
-0.0518948
4.89171
-0.0504088
4.89239
-0.0489923
4.89305
-0.0476427
4.89368
-0.0463576
4.89429
-0.0451345
4.89489
-0.0439712
4.89546
-0.0428656
4.89602
-0.0418157
4.89656
-0.0408198
4.89709
-0.0398759
4.89761
-0.0389825
4.89811
-0.0381381
4.8986
-0.0373412
4.89908
-0.0365907
4.89956
-0.0358853
4.90003
-0.0352241
4.90049
-0.034606
4.90095
-0.0340308
4.90141
-0.033498
4.90187
-0.0330081
4.90234
-0.032562
4.90282
-0.0321621
4.90331
-0.0318122
4.9038
-0.0315185
4.90431
-0.0312898
4.90482
-0.0311368
4.90531
-0.0310683
-0.0310736
5.19966
-0.275627
-5.24752
5.15629
-0.311476
5.11652
-0.340446
5.08012