/*--------------------------------*- C++ -*----------------------------------*\
  =========                 |
  \\      /  F ield         | OpenFOAM: The Open Source CFD Toolbox
   \\    /   O peration     | Website:  https://openfoam.org
    \\  /    A nd           | Version:  8
     \\/     M anipulation  |
\*---------------------------------------------------------------------------*/
FoamFile
{
    version     2.0;
    format      ascii;
    class       volScalarField;
    location    "2.50002999";
    object      T;
}
// * * * * * * * * * * * * * * * * * * * * * * * * * * * * * * * * * * * * * //

dimensions      [0 0 0 1 0 0 0];

internalField   nonuniform List<scalar> 
6800
(
375.114
375.345
375.091
374.313
373.556
373.161
372.903
372.794
372.706
372.605
375.34
375.216
374.356
373.429
372.994
372.729
372.555
372.459
372.368
372.358
375.18
374.535
373.351
372.822
372.466
372.281
372.191
372.186
372.205
372.243
374.573
373.488
372.695
372.179
371.981
371.945
371.96
372.002
372.036
372.057
373.78
372.54
371.794
371.583
371.574
371.621
371.694
371.764
371.834
371.928
372.765
371.399
371.151
371.088
371.184
371.328
371.47
371.598
371.716
371.817
371.713
370.481
370.435
370.567
370.839
371.064
371.253
371.407
371.542
371.672
370.635
369.55
369.866
370.22
370.551
370.83
371.069
371.27
371.442
371.591
369.661
368.864
369.391
369.841
370.291
370.644
370.923
371.149
371.338
371.505
368.805
368.271
369.049
369.631
370.13
370.516
370.827
371.076
371.281
371.463
376.179
376.108
376.074
376.044
376.027
376.022
376.035
376.06
376.095
376.136
376.204
376.119
376.071
376.031
376.011
376.002
376.011
376.039
376.083
376.13
376.109
376.062
376.036
375.995
375.966
375.954
375.962
375.991
376.032
376.096
376.059
376.029
375.992
375.944
375.895
375.866
375.862
375.885
375.917
376.002
376.019
375.991
375.945
375.867
375.777
375.721
375.717
375.737
375.738
375.805
375.978
375.97
375.886
375.738
375.612
375.569
375.559
375.542
375.491
375.454
375.974
375.923
375.783
375.557
375.486
375.445
375.38
375.24
375.098
374.8
375.921
375.844
375.551
375.467
375.392
375.247
374.992
374.638
374.326
373.901
375.788
375.679
375.462
375.374
375.131
374.706
374.188
373.786
373.418
373.231
375.501
375.426
375.401
375.09
374.453
373.822
373.393
373.107
372.991
372.919
376.19
376.243
376.278
376.299
376.312
376.316
376.314
376.309
376.3
376.287
376.271
376.253
376.234
376.213
376.192
376.17
376.148
376.125
376.103
376.08
376.057
376.034
376.011
375.988
375.964
375.94
375.916
375.892
375.868
375.844
375.819
375.795
375.771
375.746
375.722
375.699
375.675
375.652
375.629
375.606
375.584
375.562
375.541
375.52
375.499
375.479
375.459
375.44
375.421
375.402
375.384
375.366
375.349
375.332
375.315
375.299
375.283
375.268
375.254
375.239
375.226
375.212
375.199
375.187
375.175
375.163
375.151
375.139
375.128
375.116
375.105
375.093
375.082
375.07
375.059
375.047
375.036
375.024
375.013
375.002
374.99
374.979
374.968
374.957
374.947
374.936
374.926
374.916
374.907
374.897
374.888
374.879
374.87
374.862
374.853
374.845
374.837
374.83
374.82
374.813
376.186
376.242
376.282
376.308
376.324
376.331
376.33
376.327
376.318
376.305
376.289
376.271
376.251
376.231
376.209
376.187
376.164
376.141
376.118
376.095
376.071
376.047
376.023
375.999
375.974
375.95
375.925
375.9
375.875
375.85
375.825
375.801
375.776
375.751
375.727
375.703
375.679
375.655
375.632
375.609
375.587
375.565
375.543
375.522
375.502
375.481
375.462
375.442
375.423
375.404
375.386
375.368
375.351
375.334
375.317
375.301
375.286
375.27
375.256
375.242
375.228
375.215
375.202
375.189
375.177
375.165
375.153
375.141
375.129
375.118
375.106
375.095
375.083
375.072
375.06
375.049
375.037
375.026
375.014
375.003
374.992
374.981
374.97
374.959
374.948
374.938
374.928
374.918
374.909
374.899
374.89
374.881
374.872
374.864
374.855
374.847
374.839
374.831
374.822
374.814
376.157
376.226
376.276
376.311
376.332
376.343
376.346
376.343
376.335
376.322
376.306
376.288
376.268
376.247
376.225
376.202
376.178
376.154
376.129
376.104
376.079
376.054
376.029
376.003
375.977
375.951
375.925
375.9
375.874
375.848
375.822
375.797
375.771
375.746
375.721
375.697
375.673
375.649
375.626
375.603
375.581
375.559
375.537
375.516
375.496
375.475
375.456
375.436
375.417
375.399
375.381
375.363
375.346
375.329
375.313
375.297
375.282
375.267
375.253
375.239
375.225
375.212
375.199
375.187
375.174
375.162
375.15
375.139
375.127
375.115
375.104
375.092
375.081
375.069
375.058
375.046
375.035
375.023
375.012
375.001
374.99
374.979
374.968
374.958
374.948
374.937
374.928
374.918
374.909
374.899
374.89
374.882
374.873
374.865
374.856
374.848
374.84
374.832
374.824
374.815
376.073
376.163
376.228
376.271
376.299
376.314
376.321
376.319
376.312
376.298
376.282
376.262
376.241
376.218
376.194
376.17
376.144
376.119
376.092
376.066
376.04
376.013
375.986
375.96
375.933
375.907
375.88
375.854
375.828
375.802
375.777
375.751
375.726
375.702
375.678
375.654
375.631
375.608
375.585
375.563
375.542
375.52
375.5
375.48
375.46
375.441
375.422
375.403
375.385
375.368
375.351
375.334
375.318
375.302
375.286
375.271
375.257
375.243
375.229
375.216
375.203
375.19
375.178
375.166
375.154
375.143
375.131
375.12
375.109
375.097
375.086
375.075
375.064
375.053
375.042
375.031
375.02
375.009
374.998
374.988
374.977
374.967
374.957
374.947
374.937
374.927
374.918
374.909
374.9
374.891
374.882
374.874
374.866
374.857
374.849
374.841
374.834
374.826
374.818
374.809
375.861
375.962
376.037
376.085
376.115
376.132
376.139
376.138
376.132
376.12
376.104
376.086
376.065
376.044
376.021
375.998
375.974
375.949
375.924
375.9
375.875
375.85
375.826
375.801
375.777
375.753
375.729
375.706
375.683
375.66
375.637
375.615
375.594
375.572
375.551
375.531
375.511
375.491
375.472
375.453
375.434
375.416
375.398
375.381
375.364
375.347
375.331
375.315
375.299
375.284
375.27
375.255
375.241
375.228
375.215
375.202
375.189
375.177
375.165
375.154
375.143
375.132
375.121
375.11
375.1
375.09
375.079
375.069
375.059
375.049
375.039
375.029
375.019
375.009
374.999
374.989
374.98
374.97
374.96
374.951
374.941
374.932
374.923
374.914
374.905
374.897
374.888
374.88
374.872
374.864
374.856
374.848
374.841
374.833
374.826
374.818
374.811
374.804
374.797
374.788
375.454
375.524
375.579
375.608
375.618
375.621
375.619
375.613
375.603
375.591
375.578
375.564
375.55
375.536
375.522
375.508
375.495
375.482
375.469
375.456
375.444
375.431
375.419
375.407
375.394
375.382
375.37
375.358
375.346
375.334
375.322
375.311
375.299
375.287
375.275
375.264
375.252
375.241
375.229
375.218
375.207
375.196
375.185
375.174
375.163
375.153
375.142
375.132
375.122
375.113
375.103
375.094
375.085
375.076
375.067
375.059
375.05
375.042
375.034
375.026
375.018
375.011
375.003
374.995
374.988
374.981
374.973
374.966
374.958
374.951
374.943
374.936
374.928
374.92
374.913
374.905
374.898
374.89
374.882
374.875
374.868
374.86
374.853
374.846
374.839
374.832
374.826
374.819
374.812
374.806
374.799
374.793
374.787
374.78
374.774
374.768
374.762
374.755
374.75
374.741
374.754
374.791
374.826
374.831
374.828
374.819
374.803
374.791
374.774
374.757
374.742
374.727
374.714
374.702
374.692
374.684
374.677
374.672
374.668
374.666
374.666
374.666
374.669
374.672
374.677
374.682
374.689
374.696
374.703
374.711
374.719
374.727
374.735
374.743
374.75
374.757
374.763
374.769
374.774
374.779
374.783
374.787
374.79
374.792
374.795
374.797
374.799
374.8
374.801
374.802
374.803
374.803
374.802
374.802
374.802
374.801
374.8
374.799
374.798
374.797
374.796
374.794
374.793
374.791
374.789
374.787
374.784
374.782
374.779
374.776
374.773
374.77
374.766
374.763
374.759
374.756
374.752
374.748
374.744
374.74
374.736
374.732
374.728
374.724
374.72
374.716
374.712
374.708
374.704
374.7
374.696
374.692
374.688
374.684
374.68
374.676
374.672
374.667
374.663
374.656
373.865
373.915
373.968
374.004
374.026
374.04
374.051
374.058
374.062
374.064
374.064
374.062
374.059
374.055
374.051
374.047
374.043
374.038
374.034
374.03
374.027
374.024
374.022
374.02
374.018
374.018
374.018
374.019
374.02
374.023
374.027
374.032
374.039
374.046
374.055
374.065
374.076
374.087
374.1
374.114
374.128
374.144
374.159
374.176
374.193
374.21
374.227
374.244
374.262
374.279
374.295
374.311
374.327
374.342
374.356
374.369
374.382
374.394
374.405
374.415
374.425
374.434
374.443
374.451
374.458
374.465
374.471
374.477
374.483
374.488
374.492
374.497
374.5
374.504
374.507
374.51
374.512
374.515
374.517
374.518
374.52
374.521
374.522
374.523
374.524
374.525
374.525
374.525
374.525
374.525
374.525
374.525
374.524
374.524
374.523
374.522
374.521
374.519
374.519
374.515
373.233
373.33
373.414
373.486
373.542
373.588
373.625
373.656
373.681
373.701
373.715
373.727
373.735
373.742
373.745
373.747
373.747
373.746
373.743
373.74
373.736
373.732
373.727
373.722
373.716
373.711
373.705
373.699
373.693
373.688
373.682
373.678
373.673
373.668
373.664
373.661
373.658
373.656
373.655
373.654
373.655
373.656
373.658
373.66
373.664
373.669
373.675
373.681
373.689
373.698
373.708
373.718
373.73
373.744
373.758
373.773
373.788
373.805
373.822
373.84
373.858
373.877
373.896
373.915
373.934
373.953
373.971
373.99
374.008
374.026
374.043
374.06
374.076
374.091
374.106
374.12
374.133
374.145
374.157
374.168
374.179
374.188
374.198
374.206
374.214
374.222
374.229
374.236
374.243
374.249
374.255
374.26
374.266
374.27
374.275
374.279
374.284
374.287
374.291
374.293
372.948
373.017
373.102
373.181
373.25
373.308
373.358
373.399
373.433
373.461
373.484
373.502
373.515
373.526
373.533
373.539
373.542
373.544
373.544
373.543
373.541
373.538
373.534
373.531
373.526
373.522
373.517
373.512
373.507
373.501
373.496
373.491
373.485
373.48
373.475
373.47
373.464
373.46
373.455
373.45
373.446
373.442
373.438
373.434
373.431
373.428
373.426
373.423
373.421
373.42
373.418
373.417
373.417
373.417
373.418
373.419
373.42
373.422
373.425
373.428
373.432
373.437
373.443
373.449
373.456
373.464
373.473
373.482
373.493
373.504
373.516
373.528
373.541
373.555
373.57
373.585
373.6
373.617
373.633
373.65
373.667
373.684
373.701
373.719
373.735
373.753
373.769
373.787
373.802
373.819
373.834
373.85
373.864
373.879
373.892
373.906
373.917
373.931
373.939
373.954
372.608
372.709
372.81
372.905
372.99
373.062
373.123
373.175
373.219
373.256
373.286
373.312
373.333
373.351
373.365
373.376
373.385
373.392
373.397
373.4
373.402
373.404
373.404
373.403
373.402
373.4
373.398
373.395
373.392
373.389
373.385
373.382
373.378
373.374
373.37
373.366
373.362
373.358
373.353
373.349
373.346
373.342
373.338
373.334
373.331
373.327
373.324
373.32
373.317
373.314
373.311
373.308
373.305
373.303
373.3
373.298
373.295
373.293
373.291
373.29
373.288
373.287
373.286
373.285
373.284
373.284
373.284
373.284
373.284
373.285
373.286
373.287
373.288
373.29
373.292
373.295
373.298
373.301
373.305
373.309
373.313
373.318
373.324
373.33
373.336
373.344
373.351
373.36
373.368
373.379
373.387
373.399
373.409
373.422
373.432
373.446
373.457
373.472
373.48
373.503
372.547
372.645
372.741
372.829
372.907
372.976
373.035
373.086
373.13
373.169
373.201
373.229
373.252
373.271
373.287
373.301
373.311
373.32
373.327
373.332
373.336
373.339
373.34
373.341
373.341
373.34
373.338
373.337
373.334
373.332
373.329
373.326
373.323
373.32
373.316
373.313
373.309
373.305
373.301
373.298
373.294
373.291
373.287
373.283
373.28
373.277
373.273
373.27
373.267
373.263
373.26
373.257
373.254
373.251
373.249
373.246
373.243
373.241
373.238
373.236
373.234
373.232
373.23
373.228
373.226
373.225
373.223
373.222
373.221
373.219
373.218
373.217
373.216
373.215
373.214
373.213
373.212
373.211
373.21
373.21
373.209
373.209
373.209
373.208
373.208
373.208
373.208
373.209
373.209
373.21
373.21
373.212
373.213
373.214
373.216
373.218
373.22
373.222
373.224
373.228
372.515
372.61
372.702
372.786
372.861
372.927
372.985
373.035
373.079
373.117
373.15
373.177
373.201
373.221
373.237
373.251
373.262
373.271
373.278
373.283
373.287
373.29
373.292
373.293
373.293
373.292
373.291
373.289
373.287
373.285
373.282
373.28
373.277
373.274
373.27
373.267
373.264
373.26
373.257
373.253
373.25
373.246
373.243
373.24
373.236
373.233
373.23
373.227
373.224
373.221
373.218
373.215
373.212
373.21
373.207
373.204
373.202
373.199
373.197
373.195
373.193
373.191
373.189
373.187
373.185
373.184
373.182
373.181
373.179
373.178
373.177
373.176
373.174
373.173
373.172
373.171
373.17
373.169
373.168
373.167
373.166
373.165
373.164
373.163
373.162
373.161
373.16
373.159
373.159
373.158
373.157
373.157
373.156
373.155
373.155
373.154
373.153
373.153
373.152
373.152
372.5
372.59
372.678
372.757
372.827
372.889
372.945
372.993
373.035
373.072
373.104
373.131
373.154
373.173
373.19
373.204
373.215
373.224
373.232
373.237
373.242
373.245
373.247
373.249
373.249
373.249
373.249
373.247
373.246
373.244
373.242
373.24
373.237
373.234
373.231
373.229
373.226
373.222
373.219
373.216
373.213
373.21
373.207
373.204
373.201
373.198
373.195
373.192
373.189
373.187
373.184
373.181
373.179
373.176
373.174
373.171
373.169
373.167
373.164
373.162
373.16
373.159
373.157
373.155
373.153
373.152
373.151
373.149
373.148
373.147
373.145
373.144
373.143
373.142
373.141
373.14
373.139
373.138
373.137
373.136
373.135
373.134
373.133
373.132
373.131
373.13
373.129
373.128
373.127
373.127
373.126
373.125
373.124
373.124
373.123
373.122
373.121
373.121
373.12
373.119
372.496
372.58
372.662
372.736
372.802
372.861
372.913
372.959
373
373.035
373.066
373.093
373.115
373.135
373.151
373.165
373.177
373.186
373.194
373.2
373.205
373.208
373.211
373.213
373.214
373.214
373.214
373.213
373.212
373.21
373.208
373.206
373.204
373.202
373.199
373.196
373.194
373.191
373.188
373.185
373.182
373.18
373.177
373.174
373.171
373.168
373.166
373.163
373.16
373.158
373.155
373.153
373.15
373.148
373.146
373.143
373.141
373.139
373.137
373.135
373.133
373.132
373.13
373.128
373.127
373.125
373.124
373.123
373.122
373.12
373.119
373.118
373.117
373.116
373.115
373.114
373.113
373.112
373.111
373.11
373.109
373.108
373.107
373.106
373.106
373.105
373.104
373.103
373.102
373.102
373.101
373.1
373.099
373.099
373.098
373.097
373.097
373.096
373.095
373.094
372.501
372.578
372.655
372.724
372.785
372.84
372.889
372.933
372.971
373.005
373.035
373.06
373.083
373.102
373.118
373.131
373.143
373.152
373.16
373.166
373.171
373.175
373.178
373.18
373.181
373.182
373.182
373.181
373.18
373.179
373.178
373.176
373.174
373.172
373.17
373.167
373.165
373.163
373.16
373.157
373.155
373.152
373.15
373.147
373.145
373.142
373.14
373.137
373.135
373.132
373.13
373.128
373.126
373.123
373.121
373.119
373.117
373.115
373.113
373.111
373.11
373.108
373.107
373.105
373.104
373.102
373.101
373.1
373.099
373.098
373.097
373.096
373.095
373.094
373.093
373.092
373.091
373.09
373.089
373.088
373.087
373.086
373.086
373.085
373.084
373.083
373.082
373.082
373.081
373.08
373.08
373.079
373.078
373.078
373.077
373.076
373.076
373.075
373.074
373.073
372.513
372.583
372.654
372.718
372.774
372.825
372.871
372.912
372.948
372.981
373.009
373.033
373.055
373.073
373.089
373.102
373.113
373.123
373.131
373.137
373.142
373.146
373.149
373.151
373.153
373.153
373.154
373.154
373.153
373.152
373.151
373.149
373.148
373.146
373.144
373.142
373.14
373.138
373.135
373.133
373.131
373.128
373.126
373.124
373.122
373.119
373.117
373.115
373.113
373.11
373.108
373.106
373.104
373.102
373.1
373.098
373.096
373.094
373.093
373.091
373.09
373.088
373.087
373.085
373.084
373.083
373.082
373.081
373.079
373.078
373.077
373.077
373.076
373.075
373.074
373.073
373.072
373.071
373.07
373.07
373.069
373.068
373.067
373.067
373.066
373.065
373.064
373.064
373.063
373.062
373.062
373.061
373.061
373.06
373.059
373.059
373.058
373.057
373.057
373.056
372.53
372.594
372.659
372.717
372.769
372.816
372.859
372.897
372.931
372.961
372.988
373.011
373.031
373.049
373.064
373.077
373.088
373.097
373.105
373.111
373.116
373.12
373.124
373.126
373.127
373.128
373.129
373.129
373.129
373.128
373.127
373.126
373.125
373.123
373.121
373.12
373.118
373.116
373.114
373.112
373.11
373.108
373.106
373.103
373.101
373.099
373.097
373.095
373.093
373.091
373.089
373.087
373.086
373.084
373.082
373.08
373.078
373.077
373.075
373.074
373.072
373.071
373.07
373.068
373.067
373.066
373.065
373.064
373.063
373.062
373.061
373.06
373.06
373.059
373.058
373.057
373.056
373.056
373.055
373.054
373.053
373.053
373.052
373.051
373.051
373.05
373.049
373.049
373.048
373.048
373.047
373.046
373.046
373.045
373.045
373.044
373.044
373.043
373.043
373.042
372.553
372.61
372.669
372.722
372.769
372.812
372.851
372.887
372.918
372.946
372.971
372.993
373.013
373.029
373.044
373.056
373.067
373.076
373.083
373.089
373.094
373.098
373.102
373.104
373.106
373.107
373.108
373.108
373.108
373.107
373.106
373.106
373.104
373.103
373.102
373.1
373.099
373.097
373.095
373.093
373.092
373.09
373.088
373.086
373.084
373.082
373.081
373.079
373.077
373.075
373.073
373.072
373.07
373.068
373.067
373.065
373.064
373.062
373.061
373.059
373.058
373.057
373.056
373.054
373.053
373.052
373.051
373.05
373.05
373.049
373.048
373.047
373.046
373.046
373.045
373.044
373.044
373.043
373.042
373.042
373.041
373.04
373.04
373.039
373.038
373.038
373.037
373.037
373.036
373.035
373.035
373.034
373.034
373.033
373.033
373.032
373.032
373.031
373.031
373.03
372.581
372.631
372.684
372.731
372.774
372.813
372.849
372.881
372.911
372.937
372.96
372.98
372.998
373.014
373.027
373.039
373.049
373.058
373.065
373.071
373.076
373.08
373.083
373.085
373.087
373.088
373.089
373.09
373.09
373.089
373.089
373.088
373.087
373.086
373.085
373.084
373.082
373.081
373.079
373.078
373.076
373.075
373.073
373.071
373.07
373.068
373.067
373.065
373.063
373.062
373.06
373.059
373.057
373.056
373.054
373.053
373.051
373.05
373.049
373.047
373.046
373.045
373.044
373.043
373.042
373.041
373.04
373.039
373.039
373.038
373.037
373.036
373.036
373.035
373.034
373.034
373.033
373.033
373.032
373.031
373.031
373.03
373.03
373.029
373.028
373.028
373.027
373.027
373.026
373.026
373.025
373.025
373.024
373.024
373.024
373.023
373.023
373.022
373.022
373.021
372.613
372.657
372.703
372.746
372.784
372.819
372.851
372.881
372.907
372.931
372.952
372.971
372.988
373.002
373.015
373.026
373.035
373.043
373.05
373.056
373.06
373.064
373.067
373.07
373.072
373.073
373.074
373.074
373.074
373.074
373.074
373.073
373.073
373.072
373.071
373.07
373.069
373.067
373.066
373.065
373.063
373.062
373.06
373.059
373.058
373.056
373.055
373.053
373.052
373.05
373.049
373.048
373.046
373.045
373.044
373.042
373.041
373.04
373.039
373.038
373.037
373.036
373.035
373.034
373.033
373.032
373.031
373.031
373.03
373.029
373.029
373.028
373.027
373.027
373.026
373.026
373.025
373.024
373.024
373.023
373.023
373.022
373.022
373.021
373.021
373.02
373.02
373.019
373.019
373.018
373.018
373.018
373.017
373.017
373.016
373.016
373.016
373.015
373.015
373.014
372.649
372.686
372.727
372.764
372.798
372.829
372.858
372.884
372.908
372.929
372.949
372.966
372.981
372.994
373.005
373.016
373.024
373.032
373.038
373.043
373.048
373.051
373.054
373.057
373.058
373.06
373.061
373.061
373.062
373.061
373.061
373.061
373.06
373.06
373.059
373.058
373.057
373.056
373.055
373.054
373.052
373.051
373.05
373.049
373.047
373.046
373.045
373.044
373.042
373.041
373.04
373.039
373.038
373.036
373.035
373.034
373.033
373.032
373.031
373.03
373.029
373.028
373.027
373.026
373.026
373.025
373.024
373.023
373.023
373.022
373.022
373.021
373.021
373.02
373.02
373.019
373.019
373.018
373.018
373.017
373.017
373.016
373.016
373.015
373.015
373.014
373.014
373.014
373.013
373.013
373.012
373.012
373.012
373.011
373.011
373.01
373.01
373.01
373.009
373.009
372.686
372.719
372.753
372.786
372.815
372.843
372.868
372.891
372.912
372.931
372.948
372.963
372.977
372.989
372.999
373.008
373.016
373.023
373.028
373.033
373.037
373.041
373.043
373.046
373.047
373.049
373.05
373.05
373.051
373.051
373.05
373.05
373.05
373.049
373.049
373.048
373.047
373.046
373.045
373.044
373.043
373.042
373.041
373.04
373.039
373.038
373.037
373.036
373.034
373.033
373.032
373.031
373.03
373.029
373.028
373.027
373.026
373.025
373.024
373.023
373.023
373.022
373.021
373.02
373.02
373.019
373.018
373.018
373.017
373.017
373.016
373.016
373.015
373.015
373.014
373.014
373.013
373.013
373.013
373.012
373.012
373.011
373.011
373.011
373.01
373.01
373.009
373.009
373.009
373.008
373.008
373.008
373.007
373.007
373.007
373.006
373.006
373.006
373.005
373.005
372.726
372.753
372.783
372.81
372.836
372.859
372.881
372.901
372.919
372.935
372.95
372.964
372.975
372.986
372.995
373.003
373.01
373.016
373.021
373.025
373.029
373.032
373.034
373.036
373.038
373.039
373.04
373.041
373.041
373.041
373.041
373.041
373.041
373.04
373.04
373.039
373.038
373.038
373.037
373.036
373.035
373.034
373.033
373.032
373.031
373.031
373.03
373.029
373.028
373.027
373.026
373.025
373.024
373.023
373.022
373.021
373.02
373.02
373.019
373.018
373.017
373.017
373.016
373.015
373.015
373.014
373.014
373.013
373.013
373.012
373.012
373.011
373.011
373.011
373.01
373.01
373.009
373.009
373.009
373.008
373.008
373.007
373.007
373.007
373.006
373.006
373.006
373.005
373.005
373.005
373.004
373.004
373.004
373.004
373.003
373.003
373.003
373.002
373.002
373.002
372.767
372.789
372.814
372.837
372.858
372.877
372.896
372.912
372.928
372.942
372.954
372.966
372.976
372.985
372.993
373
373.006
373.011
373.015
373.019
373.022
373.025
373.027
373.029
373.03
373.031
373.032
373.032
373.033
373.033
373.033
373.033
373.032
373.032
373.032
373.031
373.03
373.03
373.029
373.028
373.028
373.027
373.026
373.025
373.025
373.024
373.023
373.022
373.021
373.021
373.02
373.019
373.018
373.017
373.017
373.016
373.015
373.015
373.014
373.013
373.013
373.012
373.011
373.011
373.01
373.01
373.009
373.009
373.008
373.008
373.008
373.007
373.007
373.006
373.006
373.006
373.005
373.005
373.005
373.005
373.004
373.004
373.004
373.003
373.003
373.003
373.002
373.002
373.002
373.002
373.001
373.001
373.001
373
373
373
373
372.999
372.999
372.999
372.81
372.827
372.846
372.865
372.882
372.898
372.913
372.926
372.939
372.95
372.961
372.97
372.978
372.986
372.992
372.998
373.003
373.007
373.011
373.014
373.016
373.019
373.02
373.022
373.023
373.024
373.024
373.025
373.025
373.025
373.025
373.025
373.025
373.024
373.024
373.023
373.023
373.022
373.022
373.021
373.02
373.02
373.019
373.018
373.018
373.017
373.016
373.016
373.015
373.014
373.014
373.013
373.012
373.012
373.011
373.01
373.01
373.009
373.009
373.008
373.007
373.007
373.006
373.006
373.005
373.005
373.005
373.004
373.004
373.003
373.003
373.003
373.003
373.002
373.002
373.002
373.001
373.001
373.001
373.001
373
373
373
373
372.999
372.999
372.999
372.999
372.998
372.998
372.998
372.998
372.997
372.997
372.997
372.997
372.997
372.996
372.996
372.996
372.851
372.865
372.879
372.894
372.907
372.919
372.93
372.941
372.951
372.96
372.968
372.975
372.981
372.987
372.992
372.997
373
373.004
373.006
373.009
373.011
373.012
373.014
373.015
373.015
373.016
373.016
373.017
373.017
373.017
373.017
373.016
373.016
373.016
373.015
373.015
373.014
373.014
373.013
373.013
373.012
373.012
373.011
373.011
373.01
373.01
373.009
373.008
373.008
373.007
373.007
373.006
373.006
373.005
373.005
373.004
373.004
373.003
373.003
373.002
373.002
373.001
373.001
373.001
373
373
373
372.999
372.999
372.999
372.998
372.998
372.998
372.998
372.998
372.997
372.997
372.997
372.997
372.997
372.996
372.996
372.996
372.996
372.996
372.995
372.995
372.995
372.995
372.995
372.995
372.994
372.994
372.994
372.994
372.994
372.994
372.993
372.993
372.993
372.894
372.903
372.914
372.924
372.933
372.942
372.95
372.957
372.964
372.971
372.976
372.981
372.985
372.989
372.992
372.995
372.998
373
373.002
373.003
373.004
373.005
373.006
373.006
373.007
373.007
373.007
373.007
373.007
373.007
373.007
373.007
373.006
373.006
373.006
373.005
373.005
373.005
373.004
373.004
373.003
373.003
373.003
373.002
373.002
373.001
373.001
373.001
373
373
373
372.999
372.999
372.999
372.998
372.998
372.998
372.997
372.997
372.997
372.997
372.996
372.996
372.996
372.996
372.995
372.995
372.995
372.995
372.995
372.994
372.994
372.994
372.994
372.994
372.994
372.994
372.994
372.993
372.993
372.993
372.993
372.993
372.993
372.993
372.993
372.993
372.993
372.992
372.992
372.992
372.992
372.992
372.992
372.992
372.992
372.992
372.992
372.992
372.991
372.937
372.942
372.948
372.954
372.959
372.964
372.968
372.972
372.975
372.978
372.981
372.983
372.986
372.987
372.989
372.99
372.991
372.992
372.993
372.994
372.994
372.995
372.995
372.995
372.995
372.996
372.996
372.996
372.996
372.996
372.996
372.996
372.996
372.996
372.996
372.996
372.996
372.996
372.996
372.996
372.996
372.996
372.995
372.995
372.995
372.995
372.995
372.995
372.995
372.995
372.995
372.995
372.995
372.995
372.994
372.994
372.994
372.994
372.994
372.994
372.994
372.994
372.994
372.994
372.993
372.993
372.993
372.993
372.993
372.993
372.993
372.993
372.993
372.993
372.993
372.993
372.993
372.993
372.993
372.992
372.992
372.992
372.992
372.992
372.992
372.992
372.992
372.992
372.992
372.992
372.992
372.992
372.992
372.992
372.992
372.992
372.992
372.992
372.992
372.992
372.971
372.973
372.974
372.975
372.976
372.976
372.977
372.978
372.978
372.979
372.98
372.98
372.981
372.981
372.982
372.983
372.983
372.984
372.984
372.985
372.986
372.986
372.987
372.987
372.988
372.988
372.989
372.989
372.99
372.99
372.99
372.991
372.991
372.991
372.992
372.992
372.992
372.992
372.992
372.993
372.993
372.993
372.993
372.993
372.993
372.993
372.993
372.993
372.993
372.993
372.994
372.994
372.994
372.994
372.994
372.994
372.994
372.994
372.994
372.994
372.994
372.994
372.993
372.993
372.993
372.993
372.993
372.993
372.993
372.993
372.993
372.993
372.993
372.993
372.993
372.993
372.993
372.993
372.993
372.993
372.993
372.993
372.993
372.993
372.993
372.993
372.993
372.993
372.993
372.993
372.993
372.993
372.993
372.993
372.993
372.993
372.992
372.992
372.992
372.992
371.635
371.659
371.713
371.797
371.878
372.015
372.095
372.245
372.337
372.498
371.782
371.794
371.83
371.894
371.95
372.057
372.123
372.238
372.327
372.444
371.899
371.906
371.932
371.979
372.023
372.104
372.162
372.247
372.328
372.421
372.004
372.005
372.023
372.058
372.094
372.15
372.21
372.268
372.338
372.416
372.099
372.096
372.107
372.129
372.163
372.2
372.252
372.301
372.357
372.422
372.187
372.181
372.186
372.201
372.227
372.255
372.294
372.336
372.381
372.436
372.267
372.259
372.261
372.27
372.288
372.311
372.34
372.374
372.411
372.456
372.341
372.332
372.331
372.337
372.348
372.366
372.388
372.415
372.445
372.482
372.411
372.401
372.398
372.401
372.409
372.421
372.438
372.458
372.482
372.512
372.476
372.466
372.462
372.463
372.467
372.476
372.488
372.504
372.522
372.546
372.537
372.528
372.523
372.522
372.525
372.53
372.539
372.551
372.565
372.583
372.594
372.586
372.581
372.579
372.58
372.584
372.59
372.599
372.61
372.623
372.649
372.641
372.636
372.634
372.634
372.637
372.641
372.647
372.655
372.666
372.701
372.694
372.69
372.687
372.687
372.688
372.691
372.695
372.702
372.709
372.751
372.745
372.741
372.739
372.738
372.738
372.74
372.743
372.748
372.753
372.8
372.795
372.791
372.789
372.788
372.788
372.789
372.791
372.795
372.799
372.846
372.843
372.84
372.838
372.837
372.837
372.837
372.838
372.84
372.843
372.893
372.89
372.888
372.887
372.886
372.885
372.885
372.886
372.887
372.888
372.937
372.935
372.934
372.933
372.933
372.932
372.932
372.932
372.933
372.934
372.978
372.977
372.976
372.975
372.974
372.973
372.972
372.972
372.971
372.971
373.302
373.286
373.222
373.124
372.986
372.798
372.531
372.153
371.643
370.972
372.972
372.924
372.836
372.708
372.526
372.279
371.947
371.483
370.859
370.162
372.659
372.576
372.462
372.303
372.082
371.784
371.382
370.835
370.125
369.419
372.375
372.257
372.114
371.926
371.666
371.321
370.865
370.244
369.433
368.811
372.123
371.975
371.806
371.589
371.297
370.911
370.403
369.719
368.843
368.259
371.908
371.736
371.544
371.302
370.982
370.566
370.026
369.294
368.343
367.819
371.732
371.543
371.335
371.075
370.739
370.299
369.734
368.977
367.991
367.481
371.598
371.4
371.182
370.912
370.566
370.12
369.547
368.788
367.772
367.526
371.507
371.308
371.088
370.816
370.473
370.029
369.461
368.73
367.764
367.732
371.463
371.269
371.053
370.788
370.456
370.033
369.488
368.81
367.923
368.145
375.288
375.458
375.639
375.821
376.038
376.26
376.509
376.748
376.984
377.009
375.256
375.423
375.599
375.774
375.984
376.196
376.434
376.66
376.888
376.903
375.175
375.334
375.495
375.662
375.852
376.047
376.262
376.455
376.663
376.679
375.053
375.197
375.342
375.489
375.656
375.821
376.003
376.15
376.302
376.275
374.893
375.014
375.142
375.26
375.399
375.53
375.665
375.761
375.838
375.753
374.696
374.794
374.894
374.988
375.084
375.174
375.259
375.29
375.281
375.119
374.463
374.541
374.609
374.669
374.73
374.762
374.788
374.751
374.651
374.391
374.208
374.254
374.296
374.311
374.328
374.313
374.264
374.155
373.949
373.587
373.931
373.949
373.954
373.935
373.895
373.828
373.708
373.506
373.208
372.731
373.645
373.635
373.599
373.537
373.446
373.315
373.125
372.84
372.424
371.852
373
373
373
373
373
373
373
373
373.001
373.001
373.001
373.001
373.001
373.001
373.002
373.002
373.002
373.002
373.003
373.003
373.003
373.004
373.004
373.004
373.005
373.005
373.006
373.006
373.007
373.008
373.009
373.009
373.011
373.011
373.013
373.013
373.015
373.016
373.017
373.018
373.021
373.022
373.024
373.025
373.028
373.03
373.033
373.035
373.039
373.041
373.045
373.047
373.052
373.055
373.061
373.064
373.071
373.075
373.082
373.087
373.095
373.1
373.111
373.116
373.128
373.135
373.148
373.157
373.171
373.182
373.198
373.21
373.23
373.244
373.266
373.282
373.308
373.327
373.356
373.379
373.412
373.439
373.478
373.511
373.555
373.595
373.647
373.695
373.756
373.816
373.889
373.963
374.054
374.147
374.26
374.38
374.527
374.687
374.881
375.116
373
373
373
373
373
373
373
373
373.001
373.001
373.001
373.001
373.001
373.001
373.002
373.002
373.002
373.002
373.003
373.003
373.003
373.004
373.004
373.004