/*--------------------------------*- C++ -*----------------------------------*\
  =========                 |
  \\      /  F ield         | OpenFOAM: The Open Source CFD Toolbox
   \\    /   O peration     | Website:  https://openfoam.org
    \\  /    A nd           | Version:  8
     \\/     M anipulation  |
\*---------------------------------------------------------------------------*/
FoamFile
{
    version     2.0;
    format      ascii;
    class       volVectorField;
    location    "2.50002999";
    object      U;
}
// * * * * * * * * * * * * * * * * * * * * * * * * * * * * * * * * * * * * * //

dimensions      [0 1 -1 0 0 0 0];

internalField   nonuniform List<vector> 
6800
(
(26.3859 4.67364 -4.71618e-15)
(70.728 -19.4019 0)
(95.9883 -19.7138 1.17249e-15)
(111.075 -18.3139 -1.98303e-15)
(120.5 -16.7012 -4.34999e-19)
(126.535 -15.0114 4.66778e-19)
(130.405 -13.4417 -1.55989e-15)
(132.878 -12.0572 1.4911e-15)
(134.484 -10.8115 0)
(135.511 -9.72067 -6.90102e-16)
(47.2103 -2.82722 6.09085e-15)
(87.8847 -26.2952 -6.64651e-16)
(110.385 -21.9603 0)
(122.518 -19.1283 0)
(129.533 -16.6655 0)
(133.71 -14.4245 8.01942e-16)
(136.149 -12.5493 -7.68883e-16)
(137.527 -11.0335 1.47857e-15)
(138.288 -9.80494 7.16314e-16)
(138.637 -8.92501 -6.93412e-16)
(67.9732 -7.98882 -2.16085e-15)
(104.412 -32.0983 -1.15918e-15)
(123.367 -23.0725 0)
(132.393 -19.3229 -1.75544e-15)
(137.102 -16.1613 -8.25595e-16)
(139.575 -13.5001 -8.69066e-19)
(140.755 -11.4129 1.52886e-15)
(141.21 -9.79617 -1.48315e-15)
(141.282 -8.5265 1.44695e-15)
(141.101 -7.59556 -1.40905e-15)
(89.2503 -10.4047 1.70237e-15)
(120.482 -36.1152 5.92584e-18)
(135.254 -22.7035 0)
(141.138 -18.7104 8.52239e-16)
(143.671 -15.0148 5.54907e-19)
(144.604 -12.106 7.88397e-16)
(144.699 -9.90468 0)
(144.389 -8.2262 1.50264e-15)
(143.904 -6.92213 9.24328e-19)
(143.304 -5.94134 0)
(109.972 -9.67497 6.98279e-16)
(135.81 -37.8559 4.82066e-16)
(146.097 -20.6339 4.39183e-16)
(148.993 -17.129 8.34824e-16)
(149.529 -13.0522 -4.04933e-16)
(149.097 -10.0966 3.97928e-16)
(148.255 -7.88312 -7.77359e-16)
(147.291 -6.20667 1.14652e-15)
(146.327 -4.91569 -1.50207e-15)
(145.358 -3.93042 -1.84745e-15)
(129.266 -5.84196 -1.22165e-15)
(150.061 -37.0811 4.43649e-16)
(155.829 -16.7859 -4.27163e-16)
(156.048 -14.4401 4.11205e-16)
(154.79 -10.1218 -1.22026e-15)
(153.165 -7.34899 8.01091e-16)
(151.505 -5.23878 0)
(149.962 -3.65007 -7.81655e-16)
(148.566 -2.44428 3.85706e-16)
(147.252 -1.5113 3.81263e-16)
(146.427 0.811623 0)
(162.887 -33.7335 4.24658e-16)
(164.294 -11.2184 4.18448e-16)
(162.242 -10.5675 7.11419e-19)
(159.417 -6.15306 -4.08355e-16)
(156.77 -3.80363 4.07444e-16)
(154.392 -1.91126 4.04332e-16)
(152.334 -0.510819 4.02186e-16)
(150.545 0.517228 -1.59502e-15)
(148.905 1.34097 1.18436e-15)
(160.901 9.82459 2.46527e-16)
(173.932 -27.9004 -4.11487e-16)
(171.289 -4.12134 -4.13589e-16)
(167.429 -5.51553 -6.20431e-16)
(163.276 -1.16033 1.24349e-15)
(159.779 0.534519 -4.14358e-16)
(156.789 2.09421 -4.15972e-16)
(154.281 3.19548 4.15503e-16)
(152.15 3.94794 -8.27538e-16)
(150.211 4.61369 -6.1997e-16)
(172.301 20.6488 -1.14909e-16)
(182.856 -19.8128 9.97926e-17)
(176.607 4.21173 0)
(171.412 0.638526 2.07449e-16)
(166.191 4.72791 0)
(162.024 5.5825 -3.19776e-16)
(158.533 6.70462 3.21522e-16)
(155.658 7.39917 0)
(153.251 7.7858 -1.08002e-16)
(151.056 8.25788 3.24494e-16)
(180.404 32.6681 0)
(189.362 -9.80699 -9.87394e-17)
(180.073 13.3991 -5.16167e-17)
(174.015 7.73791 5.22958e-17)
(167.978 11.3117 1.91653e-31)
(163.329 11.2097 -1.10277e-16)
(159.473 11.7934 1.10964e-16)
(156.33 11.9862 1.12833e-16)
(153.735 11.9369 1.1389e-16)
(151.333 12.1838 -3.4309e-16)
(-9.36469 5.18125 0)
(-14.7697 3.39409 -3.2412e-16)
(-19.7553 2.22179 0)
(-22.7342 1.37058 0)
(-24.2153 0.631902 0)
(-24.3822 -0.099993 1.48627e-16)
(-23.3253 -0.848132 -1.46944e-16)
(-21.1504 -1.58751 -1.45113e-16)
(-18.1372 -2.19761 2.90183e-16)
(-14.4736 -2.55682 8.38568e-20)
(-7.65621 12.5499 6.87808e-16)
(-14.2791 8.82425 3.76997e-16)
(-17.4811 5.82345 0)
(-19.3263 3.60265 4.24113e-16)
(-19.7004 1.55026 0)
(-18.6095 -0.573184 -2.03992e-16)
(-16.1073 -2.77972 2.02927e-16)
(-12.5772 -4.88707 0)
(-8.41551 -6.57272 -2.02334e-16)
(-3.71312 -7.50641 6.8335e-16)
(-7.41948 19.6088 -8.5292e-16)
(-11.3891 13.6973 -1.26903e-15)
(-13.2288 9.00516 1.01755e-15)
(-13.1184 5.39556 -1.41508e-15)
(-11.1538 1.9287 -9.68742e-16)
(-7.16779 -1.65393 1.01024e-15)
(-1.88913 -5.18526 6.92862e-19)
(3.98341 -8.30973 -1.93026e-15)
(9.56761 -10.4784 3.42816e-15)
(15.5115 -11.4626 -1.24491e-15)
(-8.49596 22.7925 0)
(-9.30555 16.6286 1.21009e-15)
(-8.18993 10.8434 -1.11802e-15)
(-4.7154 5.87303 2.34706e-15)
(1.92116 0.656589 -1.19144e-15)
(10.1435 -4.16943 1.03638e-15)
(18.0328 -8.05365 8.80963e-16)
(25.3186 -10.9737 7.72132e-16)
(31.8833 -13.0251 1.07091e-18)
(38.7881 -13.7096 -6.73644e-16)
(-9.53497 24.2466 5.95346e-19)
(-7.38804 17.4076 -1.26487e-15)
(-1.81658 10.3273 1.27069e-15)
(7.6106 3.73283 -1.21593e-15)
(19.4128 -2.43023 1.01277e-15)
(30.2551 -7.1736 -1.66791e-15)
(39.8993 -10.5989 0)
(48.3775 -12.9263 -1.28985e-15)
(55.6923 -14.4351 5.91583e-16)
(63.1757 -14.6319 2.83343e-15)
(-10.2842 23.8079 1.45718e-15)
(-4.55652 15.5536 4.01387e-15)
(7.63252 7.0663 -1.33145e-15)
(24.0577 -0.701164 -2.10016e-15)
(38.696 -6.37504 4.11148e-15)
(51.2262 -10.258 -2.08398e-15)
(61.845 -12.7904 0)
(70.8156 -14.3045 -5.61225e-16)
(78.2029 -15.0545 -4.02326e-19)
(85.3214 -14.6572 -4.85262e-16)
(-11.3366 21.7638 3.21024e-15)
(0.305239 11.8193 8.98494e-20)
(22.7285 1.05208 0)
(42.4833 -5.8906 1.71629e-15)
(58.6313 -10.2495 2.79913e-15)
(71.7551 -12.8616 -1.21416e-15)
(82.2577 -14.2786 0)
(90.602 -14.876 -1.9699e-15)
(97.1052 -14.9403 3.61029e-15)
(102.976 -14.1218 0)
(-12.4612 18.6881 -4.28461e-15)
(13.9562 2.85498 -7.23231e-15)
(40.9741 -6.16765 1.97441e-15)
(61.9597 -10.8976 4.43973e-19)
(78.0897 -13.395 -2.44246e-15)
(90.2952 -14.5556 0)
(99.443 -14.9021 -9.53564e-16)
(106.311 -14.7234 0)
(111.431 -14.249 -1.62168e-15)
(115.82 -13.1864 1.52917e-15)
(-6.38774 14.0938 2.29362e-15)
(31.9634 -5.30337 0)
(60.2983 -12.2348 0)
(80.6896 -14.6832 0)
(95.208 -15.4122 0)
(105.479 -15.3114 9.45458e-16)
(112.787 -14.7738 2.58926e-15)
(118.014 -14.0187 -1.60375e-15)
(121.733 -13.1905 -2.2673e-15)
(124.754 -12.0297 2.16342e-15)
(3.53963 11.5574 -5.52348e-15)
(51.6474 -12.2903 0)
(79.3004 -16.5496 -1.35071e-15)
(97.3066 -16.9483 2.19922e-15)
(109.297 -16.3511 3.77508e-19)
(117.377 -15.3435 -1.73668e-15)
(122.863 -14.2032 1.61562e-15)
(126.584 -13.0722 -1.52585e-15)
(129.09 -11.9973 0)
(130.907 -10.8064 -7.02115e-16)
(-10.0209 -2.54792 -1.40671e-16)
(-4.80891 -2.32851 0)
(-0.0344868 -2.08524 0)
(4.21895 -1.83286 0)
(7.93468 -1.62109 0)
(11.3133 -1.46183 0)
(14.3997 -1.33804 -4.6514e-18)
(17.2499 -1.23778 1.45945e-16)
(19.9056 -1.15399 -1.38665e-16)
(22.396 -1.08231 0)
(24.7429 -1.01977 4.31683e-18)
(26.9633 -0.964299 4.24571e-18)
(29.0703 -0.914466 4.17899e-18)
(31.0747 -0.869262 4.11635e-18)
(32.9855 -0.827878 4.05753e-18)
(34.8101 -0.78968 0)
(36.5546 -0.754215 -1.22467e-16)
(38.2245 -0.721145 3.89721e-18)
(39.8246 -0.690193 1.27242e-16)
(41.3591 -0.66113 3.81277e-18)
(42.832 -0.633768 0)
(44.2465 -0.607952 3.73402e-18)
(45.6059 -0.583553 -1.14638e-16)
(46.913 -0.560456 1.20915e-16)
(48.1706 -0.538556 3.63197e-18)
(49.3812 -0.517773 -1.11652e-16)
(50.5469 -0.498045 1.14342e-16)
(51.6702 -0.479308 3.54608e-18)
(52.753 -0.461496 3.52047e-18)
(53.7973 -0.444556 -1.08381e-16)
(54.8049 -0.428452 1.14619e-16)
(55.7776 -0.413141 3.45134e-18)
(56.7171 -0.398579 3.43051e-18)
(57.6248 -0.384715 -1.05728e-16)
(58.5023 -0.371504 1.08536e-16)
(59.351 -0.358901 -1.11324e-16)
(60.172 -0.34687 1.07399e-16)
(60.9666 -0.335379 0)
(61.7359 -0.324398 0)
(62.481 -0.313902 1.05857e-16)
(63.203 -0.303867 -1.05389e-16)
(63.9028 -0.294271 -1.08207e-16)
(64.5814 -0.285094 1.04493e-16)
(65.2396 -0.276314 -1.04063e-16)
(65.8784 -0.267912 1.00416e-16)
(66.4986 -0.259869 0)
(67.1009 -0.252169 -3.21467e-18)
(67.6861 -0.244798 0)
(68.2548 -0.237738 -3.19168e-18)
(68.8079 -0.23097 0)
(69.3459 -0.224478 0)
(69.8694 -0.218248 0)
(70.379 -0.212265 -3.14988e-18)
(70.8752 -0.206519 0)
(71.3586 -0.200997 4.69642e-17)
(71.8297 -0.195691 -4.99535e-17)
(72.289 -0.190589 0)
(72.7369 -0.185682 -3.10507e-18)
(73.1738 -0.180962 0)
(73.6002 -0.17642 -3.08927e-18)
(74.0164 -0.172048 0)
(74.4228 -0.16784 0)
(74.8198 -0.163789 0)
(75.2077 -0.159891 -4.8972e-17)
(75.5869 -0.156138 4.88681e-17)
(75.9576 -0.152526 -3.04787e-18)
(76.3201 -0.14905 0)
(76.6748 -0.145705 0)
(77.022 -0.142486 -3.02987e-18)
(77.3618 -0.13939 -4.83866e-17)
(77.6947 -0.13641 4.52803e-17)
(78.0208 -0.133543 4.82118e-17)
(78.3404 -0.130784 -5.11364e-17)
(78.6537 -0.128128 0)
(78.961 -0.12557 0)
(79.2625 -0.123107 0)
(79.5584 -0.120733 -2.98813e-18)
(79.8489 -0.118444 2.38674e-17)
(80.1342 -0.116237 -2.38311e-17)
(80.4146 -0.114108 2.37949e-17)
(80.6901 -0.112054 -2.07902e-17)
(80.961 -0.11007 0)
(81.2275 -0.108153 -2.36922e-17)
(81.4896 -0.1063 4.73191e-17)
(81.7476 -0.104508 -2.06743e-17)
(82.0016 -0.102773 0)
(82.2517 -0.101092 0)
(82.4981 -0.0994616 0)
(82.7408 -0.0978752 0)
(82.9799 -0.0963297 2.9347e-18)
(83.2156 -0.0948138 0)
(83.4479 -0.0933209 -1.17109e-17)
(83.6767 -0.0918305 1.09069e-22)
(83.9022 -0.0903281 8.76313e-18)
(84.1242 -0.0887743 0)
(84.3425 -0.0871311 -5.82919e-18)
(84.5568 -0.0853321 2.91185e-18)
(84.7662 -0.0832985 5.81741e-18)
(84.9703 -0.0809636 0)
(85.2184 -0.0762931 0)
(0.681416 -7.1652 6.47536e-18)
(4.82124 -6.37188 -1.34915e-17)
(8.63037 -5.70357 -8.43246e-16)
(12.1077 -5.09118 8.03335e-16)
(15.2896 -4.56487 0)
(18.2349 -4.14736 0)
(20.9693 -3.81365 1.7373e-17)
(23.5206 -3.53885 0)
(25.9145 -3.30692 -5.52672e-18)
(28.1716 -3.10734 1.08163e-17)
(30.3077 -2.93247 -5.29868e-18)
(32.3353 -2.77671 -5.19657e-18)
(34.2645 -2.63632 -5.10148e-18)
(36.1038 -2.50868 -5.01276e-18)
(37.8602 -2.39156 4.92967e-18)
(39.5397 -2.28315 0)
(41.1473 -2.18225 6.07142e-16)
(42.6877 -2.08805 -5.98548e-16)
(44.1648 -1.99978 -4.65e-18)
(45.5824 -1.91679 -4.59089e-18)
(46.9438 -1.83855 0)
(48.2521 -1.76463 4.48334e-18)
(49.5099 -1.69469 -5.72056e-16)
(50.7199 -1.62842 1.11909e-15)
(51.8845 -1.56559 -5.60557e-16)
(53.0058 -1.50597 -1.29139e-17)
(54.0862 -1.44933 0)
(55.1274 -1.39551 -4.23002e-18)
(56.1315 -1.34436 -4.19571e-18)
(57.1001 -1.29573 5.37043e-16)
(58.035 -1.24944 -5.33091e-16)
(58.9377 -1.20538 -2.66696e-16)
(59.8096 -1.16339 5.25704e-16)
(60.6522 -1.12334 -4.06082e-18)
(61.4666 -1.08511 -2.57499e-16)
(62.2542 -1.04859 3.99916e-18)
(63.0161 -1.01368 0)
(63.7533 -0.980305 0)
(64.4669 -0.948382 2.517e-16)
(65.158 -0.917848 -2.5042e-16)
(65.8275 -0.888649 -2.49168e-16)
(66.4763 -0.860721 4.99837e-16)
(67.1054 -0.834001 -1.08905e-20)
(67.7155 -0.808427 -2.45736e-16)
(68.3074 -0.783944 3.82294e-18)
(68.882 -0.760502 0)
(69.4399 -0.738053 2.46444e-16)
(69.9819 -0.716553 -2.49264e-16)
(70.5087 -0.69596 -2.37021e-16)
(71.0208 -0.676217 2.39907e-16)
(71.5189 -0.657279 0)
(72.0035 -0.63911 -2.38223e-16)
(72.4753 -0.621673 2.41149e-16)
(72.9346 -0.604932 -2.36669e-16)
(73.3822 -0.588853 2.3963e-16)
(73.8183 -0.573403 0)
(74.2435 -0.558552 -2.3455e-16)
(74.6582 -0.54427 4.71453e-16)
(75.0628 -0.530529 -2.33273e-16)
(75.4577 -0.517303 3.63537e-18)
(75.8432 -0.504571 0)
(76.2197 -0.492311 0)
(76.5876 -0.480507 0)
(76.9471 -0.46914 0)
(77.2985 -0.458196 0)
(77.6422 -0.44766 3.58521e-18)
(77.9784 -0.437516 0)
(78.3075 -0.427753 1.1426e-16)
(78.6295 -0.418358 -1.10476e-16)
(78.945 -0.40932 -1.13821e-16)
(79.2539 -0.400624 3.55237e-18)
(79.5567 -0.392259 1.1341e-16)
(79.8536 -0.384209 1.16747e-16)
(80.1447 -0.376462 -1.7655e-21)
(80.4303 -0.369005 -1.12829e-16)
(80.7106 -0.361823 0)
(80.9857 -0.354904 1.15979e-16)
(81.256 -0.348235 -1.52245e-21)
(81.5215 -0.341805 -1.05113e-16)
(81.7825 -0.335603 -1.1895e-16)
(82.0391 -0.329619 1.08299e-16)
(82.2914 -0.323842 -6.27938e-17)
(82.5397 -0.318261 4.87729e-17)
(82.784 -0.312868 -6.26227e-17)
(83.0246 -0.307652 -3.47388e-18)
(83.2615 -0.302605 4.85805e-17)
(83.4949 -0.297712 6.93136e-18)
(83.7249 -0.292968 4.84594e-17)
(83.9516 -0.288351 -5.53171e-17)
(84.175 -0.283854 -5.87042e-17)
(84.3953 -0.279443 5.51896e-17)
(84.6126 -0.275099 2.06722e-17)
(84.8267 -0.270763 -2.56927e-22)
(85.0378 -0.266392 -3.09413e-17)
(85.2456 -0.261872 6.86911e-18)
(85.4502 -0.257091 -6.86163e-18)
(85.6511 -0.251855 1.37108e-17)
(85.8474 -0.245835 -2.39701e-17)
(86.0403 -0.238683 6.84068e-18)
(86.2724 -0.227881 -7.34661e-18)
(18.6893 -10.5755 -1.4423e-15)
(21.003 -9.39896 3.39077e-17)
(23.4767 -8.49719 3.33663e-17)
(25.9436 -7.71722 1.40221e-15)
(28.3184 -7.02761 -1.35768e-15)
(30.5894 -6.44712 -1.33661e-15)
(32.7561 -5.96682 1.34542e-15)
(34.8208 -5.56359 2.05268e-17)
(36.7883 -5.21741 1.31347e-15)
(38.664 -4.9153 -1.26302e-15)
(40.4534 -4.64751 1.95934e-17)
(42.1619 -4.40677 1.93086e-17)
(43.7948 -4.18833 1.23755e-15)
(45.357 -3.98871 -1.2018e-15)
(46.8524 -3.8048 1.19554e-15)
(48.2848 -3.63392 8.75125e-20)
(49.6579 -3.47453 -1.13935e-15)
(50.9748 -3.32554 -8.9398e-18)
(52.2389 -3.18574 0)
(53.4527 -3.05413 0)
(54.619 -2.92995 0)
(55.7401 -2.81257 8.58174e-18)
(56.8183 -2.70146 -5.44297e-16)
(57.8558 -2.59615 5.56482e-16)
(58.8545 -2.49622 -1.67239e-17)
(59.8164 -2.40136 8.29612e-18)
(60.7433 -2.31127 5.43389e-16)
(61.6367 -2.22563 -5.23118e-16)
(62.4982 -2.14413 -5.03215e-16)
(63.3294 -2.06657 -8.04064e-18)
(64.1314 -1.99276 5.12632e-16)
(64.9057 -1.92248 5.09417e-16)
(65.6534 -1.85549 -1.02067e-15)
(66.3757 -1.79157 5.03481e-16)
(67.0737 -1.73051 5.16327e-16)
(67.7483 -1.67214 -1.01165e-15)
(68.4006 -1.61633 4.95521e-16)
(69.0315 -1.56295 -5.08487e-16)
(69.6419 -1.5119 5.06124e-16)
(70.2329 -1.46305 -1.52674e-17)
(70.8051 -1.4163 0)
(71.3594 -1.37157 0)
(71.8966 -1.32878 0)
(72.4175 -1.28785 0)
(72.9227 -1.24869 0)
(73.4129 -1.21123 0)
(73.8889 -1.17538 -1.48514e-17)
(74.3513 -1.14108 2.22008e-17)
(74.8006 -1.10826 4.5729e-16)
(75.2374 -1.0768 -4.70551e-16)
(75.6622 -1.04664 -4.69083e-16)
(76.0756 -1.01772 4.67702e-16)
(76.478 -0.989983 -4.6634e-16)
(76.8699 -0.963371 4.6506e-16)
(77.2516 -0.937824 0)
(77.6237 -0.91329 0)
(77.9865 -0.88972 0)
(78.3403 -0.867064 0)
(78.6855 -0.845278 -1.43521e-17)
(79.0225 -0.824316 0)
(79.3516 -0.804145 2.28617e-16)
(79.673 -0.784737 -2.28144e-16)
(79.9871 -0.766059 0)
(80.2942 -0.748083 0)
(80.5944 -0.73078 0)
(80.8881 -0.714131 0)
(81.1756 -0.698112 0)
(81.457 -0.682701 2.11483e-16)
(81.7327 -0.667873 -4.21084e-21)
(82.0028 -0.653607 -4.63709e-16)
(82.2675 -0.639881 2.38497e-16)
(82.527 -0.626674 0)
(82.7816 -0.613963 -1.39853e-17)
(83.0314 -0.601729 0)
(83.2766 -0.58995 2.23096e-16)
(83.5174 -0.578608 -2.22776e-16)
(83.7539 -0.567682 -1.39037e-17)
(83.9864 -0.55715 -9.71899e-17)
(84.2149 -0.546995 9.01265e-17)
(84.4396 -0.537202 2.07706e-17)
(84.6607 -0.527751 -1.24461e-16)
(84.8782 -0.518629 1.17398e-16)
(85.0924 -0.509819 2.06913e-17)
(85.3034 -0.501308 6.8887e-18)
(85.5112 -0.493078 0)
(85.716 -0.485118 -6.87246e-18)
(85.918 -0.477406 6.86468e-18)
(86.1171 -0.469932 1.16568e-16)
(86.3135 -0.462663 -1.23293e-16)
(86.5072 -0.455588 -5.47369e-17)
(86.6984 -0.44865 4.10112e-17)
(86.8871 -0.441824 -4.77952e-17)
(87.0733 -0.435013 6.82138e-17)
(87.257 -0.428153 -6.81427e-18)
(87.4382 -0.421059 6.80822e-18)
(87.6166 -0.413553 -2.04037e-17)
(87.7921 -0.405324 1.35915e-17)
(87.9638 -0.395753 1.35786e-17)
(88.1332 -0.384298 -6.78198e-18)
(88.3367 -0.370428 1.45351e-17)
(40.8669 -12.4097 -1.24167e-15)
(41.6466 -11.1483 -2.17949e-17)
(42.7334 -10.2601 1.26621e-15)
(44.1203 -9.4973 0)
(45.6012 -8.78837 -5.45778e-21)
(47.0926 -8.15789 1.2344e-15)
(48.5754 -7.61396 -1.87798e-17)
(50.0381 -7.14343 -1.24232e-15)
(51.4676 -6.73094 1.18892e-15)
(52.8545 -6.36455 -1.21034e-15)
(54.1933 -6.03488 -1.83874e-17)
(55.4839 -5.7351 1.144e-15)
(56.7267 -5.46052 -2.31368e-15)
(57.9222 -5.20726 1.13421e-15)
(59.0711 -4.97197 -1.75235e-17)
(60.1746 -4.75212 -1.09214e-15)
(61.2359 -4.5463 1.08073e-15)
(62.256 -4.35317 0)
(63.2369 -4.1714 -1.07686e-15)
(64.1801 -3.99995 1.06719e-15)
(65.0874 -3.83795 1.05812e-15)
(65.9605 -3.68469 -1.06592e-15)
(66.8007 -3.53954 0)
(67.6098 -3.40193 -1.61519e-17)
(68.3889 -3.27135 1.60377e-17)
(69.1396 -3.14734 1.59288e-17)
(69.8629 -3.02947 -1.58258e-17)
(70.5601 -2.91739 0)
(71.2322 -2.81074 -1.56335e-17)
(71.8804 -2.70916 0)
(72.5055 -2.61236 9.89315e-16)
(73.1086 -2.52007 -9.84134e-16)
(73.6905 -2.43203 0)
(74.2522 -2.34799 -9.5912e-16)
(74.7944 -2.26769 9.54699e-16)
(75.3179 -2.19094 1.5086e-17)
(75.8238 -2.11757 0)
(76.3127 -2.04743 1.49596e-17)
(76.7854 -1.98036 -1.34829e-22)
(77.2429 -1.91624 1.48437e-17)
(77.6856 -1.85498 4.73252e-16)
(78.1144 -1.79639 -2.09299e-20)
(78.53 -1.74034 -4.7002e-16)
(78.9328 -1.68674 -4.53829e-16)
(79.3235 -1.63545 4.67013e-16)
(79.7027 -1.58639 0)
(80.0709 -1.53945 1.45064e-17)
(80.4285 -1.49454 -1.44648e-17)
(80.776 -1.45158 1.44247e-17)
(81.1138 -1.4104 4.45957e-16)
(81.4423 -1.37094 -1.619e-20)
(81.7619 -1.33312 -4.72323e-16)
(82.0729 -1.29685 0)
(82.3758 -1.26206 1.42441e-17)
(82.6708 -1.22867 -4.54771e-16)
(82.9582 -1.1966 4.53787e-16)
(83.2383 -1.1658 4.52812e-16)
(83.5114 -1.13621 -4.51898e-16)
(83.7779 -1.10777 2.81874e-17)
(84.038 -1.08041 0)
(84.2918 -1.0541 0)
(84.5398 -1.0288 0)
(84.7822 -1.00447 -1.39914e-17)
(85.0191 -0.981076 -4.32995e-16)
(85.2508 -0.958584 4.46238e-16)
(85.4776 -0.936954 -1.39224e-17)
(85.6997 -0.916152 4.44815e-16)
(85.9171 -0.896155 -8.74393e-16)
(86.1303 -0.876932 6.51345e-16)
(86.3392 -0.858452 -3.94255e-21)
(86.5441 -0.840682 -2.34906e-16)
(86.7451 -0.823591 2.06973e-16)
(86.9425 -0.807146 -1.9291e-16)
(87.1363 -0.791321 2.20165e-16)
(87.3267 -0.776084 -4.39745e-16)
(87.5138 -0.761407 3.16534e-21)
(87.6977 -0.747265 1.37095e-17)
(87.8786 -0.733632 1.91649e-16)
(88.0567 -0.720489 1.94822e-23)
(88.2319 -0.707819 -2.73114e-17)
(88.4044 -0.695598 1.74635e-23)
(88.5744 -0.683807 0)
(88.7419 -0.672425 1.90515e-16)
(88.9071 -0.661437 -1.2234e-16)
(89.07 -0.650817 -1.22207e-16)
(89.2308 -0.640553 1.35639e-17)
(89.3895 -0.630615 -2.70999e-17)
(89.5462 -0.620993 -1.35359e-17)
(89.701 -0.611644 1.0818e-16)
(89.854 -0.602552 -1.08073e-16)
(90.0052 -0.593647 1.07971e-16)
(90.1546 -0.584896 -1.75281e-16)
(90.3024 -0.576172 -2.69419e-17)
(90.4485 -0.567395 1.21123e-16)
(90.5928 -0.558323 -2.68947e-17)
(90.7353 -0.548731 -8.0605e-17)
(90.8758 -0.538205 2.6848e-17)
(91.0137 -0.525941 -6.53201e-23)
(91.1502 -0.511287 -1.33982e-17)
(91.3147 -0.494273 -2.86296e-17)
(64.6885 -13.1357 -4.64657e-15)
(64.5895 -12.0206 2.37784e-15)
(64.6808 -11.2535 1.21275e-15)
(65.1985 -10.5683 -1.17353e-15)
(65.9059 -9.90349 -1.85821e-17)
(66.67 -9.28565 1.20139e-15)
(67.4652 -8.73159 -2.34804e-15)
(68.2835 -8.23724 1.16378e-15)
(69.1103 -7.79306 0)
(69.9316 -7.39194 0)
(70.7386 -7.02644 0)
(71.5274 -6.68996 1.7494e-17)
(72.2961 -6.37931 1.73191e-17)
(73.0416 -6.09154 1.715e-17)
(73.7652 -5.8241 1.6988e-17)
(74.4666 -5.57339 -1.07751e-15)
(75.1463 -5.33757 1.66094e-17)
(75.8039 -5.11591 1.07495e-15)
(76.4399 -4.90663 1.64002e-17)
(77.0546 -4.70862 1.62696e-17)
(77.6485 -4.52093 1.61451e-17)
(78.2221 -4.34284 0)
(78.7759 -4.17368 1.03437e-15)
(79.3105 -4.01286 -9.95731e-16)
(79.8265 -3.85985 1.57013e-17)
(80.3244 -3.71419 -4.62984e-22)
(80.8047 -3.57547 -9.76976e-16)
(81.2681 -3.44325 9.86709e-16)
(81.7151 -3.31717 1.53299e-17)
(82.1463 -3.19689 1.5247e-17)
(82.5622 -3.08204 -9.55532e-16)
(82.9629 -2.97227 1.51329e-17)
(83.3492 -2.86734 1.92262e-15)
(83.7214 -2.76709 -9.57003e-16)
(84.0803 -2.67139 -9.37949e-16)
(84.4269 -2.58008 4.3363e-20)
(84.7615 -2.49296 9.59951e-16)
(85.085 -2.40984 0)
(85.3979 -2.33052 -1.46577e-17)
(85.7007 -2.25481 1.46054e-17)
(85.9939 -2.18253 9.31508e-16)
(86.2779 -2.11352 -9.13926e-16)
(86.5534 -2.04763 0)
(86.8205 -1.98471 -1.30645e-22)
(87.0796 -1.92459 0)
(87.3311 -1.86713 1.43265e-17)
(87.5751 -1.81216 0)
(87.8122 -1.75958 -8.97406e-16)
(88.0422 -1.70925 9.09232e-16)
(88.2657 -1.66104 1.41694e-17)
(88.4829 -1.61484 4.66391e-16)
(88.694 -1.57055 -4.3706e-16)
(88.8992 -1.52805 1.40649e-17)
(89.0988 -1.48726 -1.40327e-17)
(89.2929 -1.44807 1.40017e-17)
(89.4817 -1.41043 0)
(89.6656 -1.37426 1.39433e-17)
(89.8448 -1.33951 0)
(90.0194 -1.30611 -1.38896e-17)
(90.1897 -1.27399 4.57511e-16)
(90.3559 -1.24311 -8.85738e-16)
(90.5183 -1.21345 4.55932e-16)
(90.6769 -1.18494 1.3793e-17)
(90.8321 -1.15755 4.40657e-16)
(90.9839 -1.13123 -4.39972e-16)
(91.1326 -1.10595 -4.11829e-16)
(91.2783 -1.08165 4.38633e-16)
(91.421 -1.05832 -4.24291e-16)
(91.5611 -1.03589 4.5102e-16)
(91.6985 -1.01435 1.36478e-17)
(91.8334 -0.993638 -4.22489e-16)
(91.9659 -0.973726 8.84661e-16)
(92.0962 -0.954576 -4.34946e-16)
(92.2243 -0.936152 0)
(92.3502 -0.918423 1.35565e-17)
(92.4742 -0.901364 0)
(92.5963 -0.884936 1.35227e-17)
(92.7166 -0.869104 1.35064e-17)
(92.8351 -0.853848 1.34904e-17)
(92.952 -0.839152 1.34748e-17)
(93.0673 -0.824988 -2.01891e-16)
(93.1812 -0.811335 2.15113e-16)
(93.2937 -0.79817 -2.01447e-16)
(93.4048 -0.785476 1.34178e-17)
(93.5148 -0.773221 1.34038e-17)
(93.6235 -0.761392 2.2697e-21)
(93.7312 -0.749954 2.27361e-16)
(93.8378 -0.738897 -9.35234e-17)
(93.9435 -0.728169 1.2013e-16)
(94.0482 -0.717755 0)
(94.1521 -0.707571 1.33222e-17)
(94.2552 -0.697582 1.3309e-17)
(94.3574 -0.687639 1.32973e-17)
(94.4589 -0.677657 0)
(94.5596 -0.667357 1.32733e-17)
(94.6596 -0.656482 0)
(94.7586 -0.644545 1.325e-17)
(94.8565 -0.630629 -2.64745e-17)
(94.9539 -0.613922 2.6448e-17)
(95.0723 -0.594563 2.81433e-17)
(86.5598 -13.1979 0)
(86.0838 -12.3649 1.70553e-17)
(85.6533 -11.7603 -2.21381e-15)
(85.6575 -11.157 4.37007e-15)
(85.8902 -10.549 1.89513e-17)
(86.1942 -9.96797 -2.24062e-15)
(86.535 -9.4276 2.20502e-15)
(86.9094 -8.92881 -2.19886e-15)
(87.3072 -8.46903 2.19276e-15)
(87.715 -8.04586 7.10206e-19)
(88.124 -7.6562 5.89738e-19)
(88.5273 -7.29499 -4.33008e-15)
(88.9203 -6.95961 -4.0615e-19)
(89.3011 -6.64683 4.26924e-15)
(89.6688 -6.35406 -2.13091e-15)
(90.0224 -6.08013 -1.65547e-17)
(90.3607 -5.82258 -1.84876e-21)
(90.6842 -5.58025 -1.63551e-17)
(90.9938 -5.35189 -1.4492e-21)
(91.2897 -5.13617 -1.28659e-21)
(91.5728 -4.9321 -1.14376e-21)
(91.8437 -4.73881 0)
(92.1029 -4.55549 -9.08846e-22)
(92.3509 -4.38142 -1.57833e-17)
(92.5884 -4.21597 -1.0358e-15)
(92.8159 -4.05861 9.83278e-16)
(93.0341 -3.90881 -9.93441e-16)
(93.2432 -3.76608 9.88207e-16)
(93.4439 -3.62999 9.52315e-16)
(93.6366 -3.50009 -1.97144e-15)
(93.8219 -3.37616 9.73263e-16)
(94.0002 -3.25795 -1.51355e-17)
(94.1724 -3.14506 -1.50665e-17)
(94.3388 -3.03711 9.45069e-16)
(94.4998 -2.9337 -9.56064e-16)
(94.6556 -2.83471 0)
(94.8064 -2.73999 9.48229e-16)
(94.9522 -2.64935 -9.44523e-16)
(95.0934 -2.56261 1.47006e-17)
(95.2299 -2.4796 -1.46451e-17)
(95.362 -2.40018 1.45905e-17)
(95.4896 -2.32417 -1.45375e-17)
(95.613 -2.25143 1.44855e-17)
(95.7323 -2.18181 -1.4435e-17)
(95.8476 -2.11516 1.43856e-17)
(95.9591 -2.05137 -9.31933e-16)
(96.0669 -1.99022 9.28954e-16)
(96.171 -1.93174 -1.42458e-17)
(96.2717 -1.87578 1.42032e-17)
(96.369 -1.82197 9.06343e-16)
(96.463 -1.77033 -9.1792e-16)
(96.5537 -1.72085 1.40827e-17)
(96.6413 -1.67349 -1.40457e-17)
(96.7263 -1.62815 1.40099e-17)
(96.8085 -1.58473 -1.39759e-17)
(96.8885 -1.54316 -8.784e-16)
(96.9661 -1.50336 -1.38863e-17)
(97.0417 -1.46525 1.39055e-17)
(97.1155 -1.42873 4.4328e-16)
(97.1874 -1.39373 1.12346e-20)
(97.2578 -1.36019 4.41484e-16)
(97.3266 -1.32806 -6.82281e-23)
(97.3941 -1.29725 0)
(97.4603 -1.2677 -2.74362e-17)
(97.5252 -1.23935 0)
(97.589 -1.21214 4.37404e-16)
(97.6518 -1.18602 -4.36654e-16)
(97.7135 -1.16094 -2.7244e-17)
(97.7742 -1.13686 0)
(97.8341 -1.11373 -4.2088e-16)
(97.893 -1.09149 -1.35477e-17)
(97.9512 -1.07012 4.19547e-16)
(98.0085 -1.04955 -1.35128e-17)
(98.0651 -1.02976 -4.18256e-16)
(98.1209 -1.01071 4.17643e-16)
(98.1762 -0.992362 4.43932e-16)
(98.2309 -0.974695 -4.43309e-16)
(98.2851 -0.957681 -4.15853e-16)
(98.3388 -0.941292 4.28684e-16)
(98.3922 -0.925512 0)
(98.4452 -0.91031 2.2713e-16)
(98.498 -0.89567 -2.00151e-16)
(98.5504 -0.881576 -1.99896e-16)
(98.6028 -0.868008 4.39221e-16)
(98.655 -0.854928 -2.12698e-16)
(98.7071 -0.842328 1.32774e-17)
(98.7591 -0.830168 2.25449e-16)
(98.8112 -0.818439 -1.98691e-16)
(98.8633 -0.807084 -2.11695e-16)
(98.9154 -0.796093 1.98233e-16)
(98.9677 -0.785371 0)
(99.0201 -0.774887 0)
(99.0727 -0.764481 0)
(99.1256 -0.754068 -1.31563e-17)
(99.1786 -0.743357 1.31433e-17)
(99.232 -0.732088 1.31277e-17)
(99.2857 -0.719727 0)
(99.3399 -0.705336 -1.30999e-17)
(99.3947 -0.687873 3.93038e-23)
(99.4629 -0.667398 2.76998e-17)
(103.803 -12.8936 -1.56481e-17)
(102.996 -12.3917 -1.58754e-17)
(102.153 -11.9652 0)
(101.73 -11.4485 1.04998e-20)
(101.582 -10.9013 2.05068e-15)
(101.557 -10.3683 3.38645e-17)
(101.602 -9.85866 -2.07764e-15)
(101.71 -9.37362 0)
(101.868 -8.91499 -2.09969e-15)
(102.064 -8.48398 2.08281e-15)
(102.284 -8.08032 1.62673e-17)
(102.518 -7.70204 -1.62601e-17)
(102.758 -7.34723 2.06259e-15)
(103 -7.01452 1.65823e-17)
(103.238 -6.70217 -1.58923e-17)
(103.468 -6.40811 1.64072e-17)
(103.69 -6.13069 -1.59373e-17)
(103.899 -5.86855 -4.12128e-15)
(104.096 -5.62068 2.05581e-15)
(104.28 -5.38619 2.03503e-15)
(104.449 -5.16399 5.61416e-20)
(104.604 -4.95347 -2.04038e-15)
(104.744 -4.75385 -1.58977e-17)
(104.87 -4.56437 1.58519e-17)
(104.982 -4.38447 1.58069e-17)
(105.079 -4.21361 -2.03291e-15)
(105.164 -4.05129 3.00075e-15)
(105.235 -3.89703 -2.61688e-20)
(105.294 -3.75045 -9.67872e-16)
(105.342 -3.61115 0)
(105.38 -3.47861 9.6136e-16)
(105.408 -3.35243 -1.97776e-15)
(105.428 -3.23248 1.98576e-15)
(105.44 -3.1187 -1.97815e-15)
(105.445 -3.01073 9.62337e-16)
(105.443 -2.90817 1.52145e-17)
(105.436 -2.81066 -1.51549e-17)
(105.425 -2.71791 0)
(105.409 -2.62959 -9.77234e-16)
(105.389 -2.54545 9.58424e-16)
(105.367 -2.46525 -2.56705e-22)
(105.342 -2.38872 0)
(105.315 -2.31566 -9.47145e-16)
(105.286 -2.24586 9.58269e-16)
(105.255 -2.17909 -1.46862e-17)
(105.224 -2.11517 9.50989e-16)
(105.192 -2.0539 -1.4613e-17)
(105.159 -1.99511 -9.29541e-16)
(105.126 -1.93879 -1.30268e-22)
(105.093 -1.88482 9.23078e-16)
(105.06 -1.83298 -9.05694e-16)
(105.028 -1.7831 9.02765e-16)
(104.996 -1.73507 -9.1428e-16)
(104.964 -1.68883 9.11472e-16)
(104.933 -1.64432 -9.08809e-16)
(104.902 -1.60151 -9.20308e-16)
(104.872 -1.56034 9.03624e-16)
(104.843 -1.52077 -1.408e-17)
(104.814 -1.48275 1.40422e-17)
(104.786 -1.44619 -1.40053e-17)
(104.759 -1.4111 0)
(104.732 -1.37744 -7.50183e-23)
(104.706 -1.34514 8.89505e-16)
(104.68 -1.31417 -1.33101e-15)
(104.656 -1.28447 8.85205e-16)
(104.632 -1.256 -1.38076e-17)
(104.608 -1.22871 -8.67308e-16)
(104.586 -1.20254 4.53276e-16)
(104.564 -1.17743 4.38561e-16)
(104.543 -1.15335 -4.51293e-16)
(104.522 -1.13025 0)
(104.502 -1.10811 -4.35789e-16)
(104.483 -1.0869 4.34922e-16)
(104.465 -1.06659 -4.60998e-23)
(104.447 -1.04713 0)
(104.43 -1.0285 -1.35127e-17)
(104.415 -1.01065 0)
(104.4 -0.993518 -1.34633e-17)
(104.386 -0.977103 1.34392e-17)
(104.373 -0.961376 0)
(104.361 -0.946277 -1.33926e-17)
(104.349 -0.931782 -2.67264e-23)
(104.339 -0.917863 -2.26907e-16)
(104.33 -0.904501 1.86558e-16)
(104.322 -0.891657 -1.33042e-17)
(104.315 -0.87932 -1.32827e-17)
(104.309 -0.86744 -2.65241e-17)
(104.305 -0.856008 -1.3241e-17)
(104.301 -0.844961 -2.24757e-16)
(104.298 -0.834294 2.08609e-21)
(104.297 -0.823911 2.10898e-16)
(104.296 -0.813786 -1.05283e-16)
(104.297 -0.80376 9.19943e-17)
(104.299 -0.793763 1.31214e-17)
(104.302 -0.783516 -2.62077e-17)
(104.307 -0.772803 -1.30832e-17)
(104.313 -0.761069 -1.30666e-17)
(104.322 -0.747467 3.91373e-17)
(104.332 -0.730701 -3.90838e-17)
(104.348 -0.710549 -2.73838e-17)
(116.142 -12.2474 1.93408e-15)
(115.071 -12.0409 -1.97098e-15)
(113.898 -11.7982 1.53992e-17)
(113.083 -11.3969 1.55221e-17)
(112.563 -10.9394 -2.01537e-15)
(112.211 -10.484 1.99304e-15)
(111.97 -10.04 2.01902e-15)
(111.818 -9.60719 -1.46892e-17)
(111.744 -9.18807 1.6836e-17)
(111.733 -8.78552 -1.5091e-17)
(111.771 -8.40102 -1.52519e-17)
(111.848 -8.03443 -2.05817e-15)
(111.953 -7.68524 0)
(112.081 -7.35268 -3.1967e-17)
(112.225 -7.03605 -2.04665e-15)
(112.382 -6.73456 -3.22567e-17)
(112.546 -6.44739 -2.26537e-19)
(112.716 -6.17386 2.0453e-15)
(112.888 -5.91323 -3.19389e-17)
(113.06 -5.66488 0)
(113.229 -5.42813 -3.18842e-17)
(113.395 -5.20234 0)
(113.556 -4.987 -2.05193e-15)
(113.711 -4.7816 -1.58998e-17)
(113.857 -4.5856 2.01477e-15)
(113.996 -4.39868 1.58417e-17)
(114.125 -4.2204 -2.0404e-15)
(114.244 -4.05028 4.04283e-15)
(114.352 -3.88801 -3.15802e-17)
(114.45 -3.73339 -2.01442e-15)
(114.535 -3.58618 2.0264e-15)
(114.608 -3.44609 -2.02261e-15)
(114.669 -3.31274 0)
(114.717 -3.18579 7.68629e-22)
(114.751 -3.06492 0)
(114.773 -2.94985 -3.10894e-17)
(114.781 -2.84033 -9.77006e-16)
(114.777 -2.73612 9.74678e-16)
(114.761 -2.63701 0)
(114.732 -2.54279 1.00046e-15)
(114.692 -2.45322 -1.98026e-15)
(114.642 -2.3681 9.95062e-16)
(114.58 -2.28725 -3.05297e-17)
(114.509 -2.21047 -1.52204e-17)
(114.429 -2.13757 -1.51747e-17)
(114.341 -2.06836 -1.51286e-17)
(114.246 -2.00267 0)
(114.144 -1.94036 0)
(114.036 -1.88121 9.29116e-16)
(113.924 -1.82501 -1.9119e-15)
(113.807 -1.77166 9.22981e-16)
(113.688 -1.7211 0)
(113.566 -1.67322 9.46167e-16)
(113.443 -1.6278 -9.57646e-16)
(113.318 -1.5847 0)
(113.193 -1.54374 -1.46312e-17)
(113.068 -1.5048 0)
(112.944 -1.46772 -9.30017e-16)
(112.82 -1.43239 1.83934e-15)
(112.698 -1.39872 -9.38266e-16)
(112.578 -1.36657 0)
(112.459 -1.33581 8.89078e-16)
(112.342 -1.30637 -9.14826e-16)
(112.227 -1.27816 8.24381e-23)
(112.115 -1.25109 0)
(112.004 -1.22511 1.41594e-17)
(111.896 -1.20013 -9.31658e-16)
(111.791 -1.17612 9.0071e-16)
(111.687 -1.15304 -1.4032e-17)
(111.587 -1.13082 0)
(111.488 -1.1094 -1.39519e-17)
(111.393 -1.08874 4.59128e-16)
(111.299 -1.0688 -4.57889e-16)
(111.208 -1.04958 -4.56644e-16)
(111.119 -1.03104 8.83292e-16)
(111.033 -1.01319 -8.80972e-16)
(110.949 -0.996006 8.78734e-16)
(110.867 -0.979486 -4.38248e-16)
(110.787 -0.963593 -3.92101e-23)
(110.709 -0.948343 0)
(110.634 -0.933706 -4.35031e-16)
(110.56 -0.919661 8.54397e-16)
(110.489 -0.906244 -8.65942e-16)
(110.419 -0.893396 4.45463e-16)
(110.352 -0.881085 -2.02025e-16)
(110.287 -0.869329 2.15002e-16)
(110.223 -0.858084 1.34082e-17)