/*--------------------------------*- C++ -*----------------------------------*\
  =========                 |
  \\      /  F ield         | OpenFOAM: The Open Source CFD Toolbox
   \\    /   O peration     | Website:  https://openfoam.org
    \\  /    A nd           | Version:  8
     \\/     M anipulation  |
\*---------------------------------------------------------------------------*/
FoamFile
{
    version     2.0;
    format      ascii;
    class       surfaceScalarField;
    location    "0.4";
    object      phi;
}
// * * * * * * * * * * * * * * * * * * * * * * * * * * * * * * * * * * * * * //

dimensions      [1 0 -1 0 0 0 0];

internalField   nonuniform List<scalar> 
2080
(
-2.9627347e-06
-0.00026925495
-7.5011911e-06
-2.2581404e-07
-0.00027490528
-7.5063423e-06
-3.2328186e-07
-0.00027208152
-7.5179245e-06
-7.9547582e-08
-0.00027242134
-7.5162476e-06
-7.724148e-08
-0.00027218141
-7.5174415e-06
-3.8970028e-08
-0.00027221648
-7.5174204e-06
-2.8697458e-08
-0.00027218941
-7.5174502e-06
-1.7111149e-08
-0.00027218981
-7.5175159e-06
-8.0300177e-09
-0.00027218776
-7.5174912e-06
4.2419867e-15
-0.00027218632
-7.5175187e-06
8.0300265e-09
-0.00027218632
-7.5175187e-06
1.7111152e-08
-0.00027218776
-7.5174911e-06
2.8697451e-08
-0.00027218981
-7.5175159e-06
3.8970015e-08
-0.00027218941
-7.5174502e-06
7.7241467e-08
-0.00027221648
-7.5174204e-06
7.9547577e-08
-0.00027218141
-7.5174415e-06
3.2328186e-07
-0.00027242134
-7.5162476e-06
2.2581405e-07
-0.00027208152
-7.5179245e-06
2.9627347e-06
-0.00027490528
-7.5063423e-06
-0.00026925495
-7.5011911e-06
7.247615e-07
-0.00027270236
2.7452229e-06
-7.1596744e-08
-0.00027685676
2.7558324e-06
-9.3011598e-08
-0.00027480043
2.7549889e-06
-5.321997e-08
-0.0002752032
2.7555902e-06
-4.635641e-08
-0.00027493081
2.7558735e-06
-2.9424769e-08
-0.00027497513
2.7559986e-06
-1.8602553e-08
-0.00027494279
2.755951e-06
-1.337595e-08
-0.00027493629
2.7560046e-06
-5.2560045e-09
-0.00027493767
2.7559791e-06
7.7966603e-15
-0.00027493281
2.7559966e-06
5.2560194e-09
-0.00027493281
2.7559966e-06
1.3375957e-08
-0.00027493767
2.7559791e-06
1.8602549e-08
-0.00027493629
2.7560046e-06
2.9424758e-08
-0.00027494279
2.755951e-06
4.6356396e-08
-0.00027497513
2.7559986e-06
5.3219969e-08
-0.00027493081
2.7558735e-06
9.3011598e-08
-0.0002752032
2.7555902e-06
7.1596759e-08
-0.00027480043
2.7549889e-06
-7.2476147e-07
-0.00027685676
2.7558324e-06
-0.00027270236
2.7452229e-06
4.8136067e-07
-0.0002769368
1.5366294e-06
-2.7350399e-07
-0.0002798504
1.5393617e-06
-2.2543823e-07
-0.0002786014
1.5400822e-06
-1.4231994e-07
-0.00027903631
1.5397746e-06
-1.2593054e-07
-0.00027869984
1.5409278e-06
-7.402861e-08
-0.00027877928
1.5409376e-06
-5.8353414e-08
-0.00027871152
1.5409983e-06
-3.2615211e-08
-0.00027871481
1.5410721e-06
-1.7186964e-08
-0.0002787062
1.541043e-06
2.4732294e-15
-0.00027870294
1.5410747e-06
1.7186968e-08
-0.00027870294
1.5410747e-06
3.2615208e-08
-0.0002787062
1.541043e-06
5.8353403e-08
-0.00027871481
1.5410721e-06
7.402859e-08
-0.00027871152
1.5409983e-06
1.2593052e-07
-0.00027877928
1.5409376e-06
1.4231993e-07
-0.00027869984
1.5409277e-06
2.2543822e-07
-0.00027903631
1.5397746e-06
2.73504e-07
-0.0002786014
1.5400822e-06
-4.8136065e-07
-0.0002798504
1.5393617e-06
-0.0002769368
1.5366294e-06
5.3263234e-07
-0.00027209955
9.8418099e-07
1.2016089e-07
-0.00027408222
9.88604e-07
1.8682549e-07
-0.00027330841
9.8817366e-07
3.5692849e-08
-0.00027352976
9.8879728e-07
7.2108029e-08
-0.00027337942
9.8770283e-07
1.1548204e-08
-0.00027336067
9.8781794e-07
2.8571096e-08
-0.00027337126
9.877012e-07
3.4299512e-09
-0.00027332988
9.8769501e-07
7.553429e-09
-0.00027335128
9.8769095e-07
1.369988e-14
-0.00027333525
9.8768212e-07
-7.5533986e-09
-0.00027333525
9.8768211e-07
-3.4299308e-09
-0.00027335128
9.8769094e-07
-2.8571078e-08
-0.00027332988
9.8769502e-07
-1.1548206e-08
-0.00027337126
9.877012e-07
-7.2108024e-08
-0.00027336067
9.8781793e-07
-3.5692857e-08
-0.00027337942
9.8770283e-07
-1.8682551e-07
-0.00027352976
9.8879729e-07
-1.201609e-07
-0.00027330841
9.8817366e-07
-5.3263234e-07
-0.00027408222
9.88604e-07
-0.00027209955
9.8418099e-07
-2.1711736e-08
-0.00027748194
-4.7598025e-07
-3.7770426e-07
-0.00027911645
-4.7829935e-07
-2.7579769e-07
-0.00027880475
-4.7803205e-07
-2.4917479e-07
-0.00027894591
-4.7827154e-07
-2.1496864e-07
-0.00027880382
-4.7797837e-07
-1.4375403e-07
-0.00027882287
-4.7793782e-07
-1.1850358e-07
-0.00027878757
-4.7792884e-07
-6.5450892e-08
-0.00027877534
-4.7785477e-07
-3.7076676e-08
-0.00027877226
-4.7788414e-07
-5.9574274e-15
-0.0002787654
-4.7785517e-07
3.7076663e-08
-0.0002787654
-4.7785516e-07
6.5450879e-08
-0.00027877226
-4.7788414e-07
1.1850356e-07
-0.00027877534
-4.7785476e-07
1.43754e-07
-0.00027878757
-4.7792884e-07
2.1496862e-07
-0.00027882287
-4.7793781e-07
2.4917476e-07
-0.00027880382
-4.7797837e-07
2.7579766e-07
-0.00027894591
-4.7827154e-07
3.7770425e-07
-0.00027880475
-4.7803205e-07
2.1711739e-08
-0.00027911645
-4.7829935e-07
-0.00027748194
-4.7598024e-07
7.8865678e-07
-0.00026337401
1.1263599e-06
3.5068604e-07
-0.0002637988
1.1286333e-06
5.4937647e-07
-0.00026412052
1.1293553e-06
2.071603e-07
-0.00026372955
1.1291336e-06
3.0270335e-07
-0.00026402468
1.1290797e-06
1.1161789e-07
-0.00026375654
1.1289826e-06
1.4338364e-07
-0.00026394473
1.1290092e-06
4.8045745e-08
-0.00026380139
1.128946e-06
4.1620764e-08
-0.00026388735
1.1289711e-06
2.9788202e-14
-0.00026384333
1.1289505e-06
-4.1620707e-08
-0.00026384333
1.1289505e-06
-4.8045709e-08
-0.00026388735
1.1289711e-06
-1.4338361e-07
-0.00026380139
1.128946e-06
-1.1161787e-07
-0.00026394473
1.1290092e-06
-3.0270334e-07
-0.00026375654
1.1289826e-06
-2.071603e-07
-0.00026402468
1.1290797e-06
-5.4937647e-07
-0.00026372955
1.1291336e-06
-3.5068605e-07
-0.00026412052
1.1293553e-06
-7.8865678e-07
-0.0002637988
1.1286333e-06
-0.00026337401
1.1263599e-06
-6.4728369e-07
-0.00026504474
-1.1848574e-06
-5.3297689e-07
-0.0002662233
-1.1876379e-06
-5.8293484e-07
-0.0002663812
-1.1886801e-06
-4.054257e-07
-0.00026621441
-1.188254e-06
-4.1784101e-07
-0.00026631868
-1.1885101e-06
-2.586534e-07
-0.00026622494
-1.188274e-06
-2.3919236e-07
-0.00026627322
-1.188406e-06
-1.239623e-07
-0.00026622853
-1.1882956e-06
-7.6953999e-08
-0.00026624648
-1.1883467e-06
3.8075063e-15
-0.00026623333
-1.1883162e-06
7.6954011e-08
-0.00026623333
-1.1883162e-06
1.2396232e-07
-0.00026624648
-1.1883466e-06
2.3919235e-07
-0.00026622853
-1.1882956e-06
2.5865339e-07
-0.00026627322
-1.188406e-06
4.1784101e-07
-0.00026622494
-1.1882739e-06
4.0542571e-07
-0.00026631868
-1.1885101e-06
5.8293484e-07
-0.00026621441
-1.188254e-06
5.329769e-07
-0.0002663812
-1.1886801e-06
6.4728369e-07
-0.0002662233
-1.1876379e-06
-0.00026504474
-1.1848574e-06
2.7339501e-06
-0.00026093257
3.1813615e-06
6.1003246e-07
-0.00025726735
3.191471e-06
1.2718679e-06
-0.0002602035
3.1901423e-06
4.6122691e-07
-0.00025857622
3.1910999e-06
6.5179603e-07
-0.0002596722
3.1901472e-06
2.9255341e-07
-0.00025903357
3.1907967e-06
3.2014689e-07
-0.00025946344
3.1902837e-06
1.3941785e-07
-0.00025921055
3.1906327e-06
9.6995374e-08
-0.00025936447
3.1903991e-06
-2.2968357e-14
-0.00025929626
3.1905101e-06
-9.6995435e-08
-0.00025929626
3.1905101e-06
-1.3941791e-07
-0.00025936447
3.1903991e-06
-3.2014696e-07
-0.00025921055
3.1906327e-06
-2.9255346e-07
-0.00025946344
3.1902837e-06
-6.517961e-07
-0.00025903357
3.1907968e-06
-4.612269e-07
-0.0002596722
3.1901471e-06
-1.2718679e-06
-0.00025857622
3.1910999e-06
-6.1003252e-07
-0.0002602035
3.1901424e-06
-2.7339501e-06
-0.00025726735
3.1914709e-06
-0.00026093257
3.1813615e-06
-2.700961e-06
-0.00026937693
-3.1778426e-06
-7.9621734e-07
-0.00027030718
-3.1874388e-06
-1.4646656e-06
-0.00027067893
-3.1869803e-06
-6.5387445e-07
-0.00027051436
-3.187813e-06
-8.5237808e-07
-0.00027061134
-3.1868829e-06
-4.4347315e-07
-0.00027057389
-3.1876423e-06
-4.5633656e-07
-0.0002705873
-3.1870416e-06
-2.2004578e-07
-0.00027058483
-3.1874912e-06
-1.4426432e-07
-0.00027058074
-3.187196e-06
5.2370515e-15
-0.0002705824
-3.1873445e-06
1.4426435e-07
-0.0002705824
-3.1873444e-06
2.2004582e-07
-0.00027058074
-3.187196e-06
4.5633662e-07
-0.00027058483
-3.1874912e-06
4.4347319e-07
-0.0002705873
-3.1870416e-06
8.5237814e-07
-0.00027057389
-3.1876423e-06
6.5387451e-07
-0.00027061134
-3.1868829e-06
1.4646657e-06
-0.00027051436
-3.187813e-06
7.962174e-07
-0.00027067893
-3.1869803e-06
2.700961e-06
-0.00027030718
-3.1874388e-06
-0.00026937693
-3.1778426e-06
1.1022461e-06
2.6854521e-06
1.1971e-06
2.8078383e-06
9.4674104e-07
2.7371447e-06
8.8532116e-07
2.7521815e-06
6.9926197e-07
2.7467675e-06
5.7813527e-07
2.7488125e-06
4.2168718e-07
2.7475371e-06
2.8476546e-07
2.7483616e-06
1.404577e-07
2.7478249e-06
7.5846351e-15
2.7480853e-06
-1.4045772e-07
2.7480853e-06
-2.8476548e-07
2.7478249e-06
-4.2168721e-07
2.7483616e-06
-5.7813528e-07
2.7475371e-06
-6.9926199e-07
2.7488125e-06
-8.8532117e-07
2.7467675e-06
-9.4674106e-07
2.7521815e-06
-1.1971e-06
2.7371447e-06
-1.1022461e-06
2.8078384e-06
2.6854522e-06
-2.9996288e-06
-0.00028410568
7.6361842e-14
-2.2568457e-07
-0.0002898396
7.4050866e-14
-3.2623848e-07
-0.00028699903
8.3410365e-14
-8.0287163e-08
-0.00028734078
7.9249212e-14
-7.7952479e-08
-0.00028710105
8.6023745e-14
-3.9300636e-08
-0.00028713642
8.5557214e-14
-2.8946003e-08
-0.00028710912
7.7974501e-14
-1.7253489e-08
-0.00028710968
7.9317708e-14
-8.1002396e-09
-0.00028710754
8.1483415e-14
5.1085922e-15
-0.00028710615
8.1987705e-14
8.1002502e-09
-0.00028710615
8.1045604e-14
1.7253494e-08
-0.00028710754
9.1317474e-14
2.8945996e-08
-0.00028710968
9.7144824e-14
3.9300624e-08
-0.00028710912
8.7897351e-14
7.7952463e-08
-0.00028713642
9.8730352e-14
8.0287153e-08
-0.00028710105
7.0905665e-14
3.2623848e-07
-0.00028734078
7.8735713e-14
2.2568457e-07
-0.00028699903
7.9345793e-14
2.9996288e-06
-0.0002898396
8.4048625e-14
-0.00028410568
1.1228253e-13
7.3039715e-07
-0.00028210309
1.19667e-13
-7.1781343e-08
-0.00028630859
1.2882502e-13
-9.3732413e-08
-0.00028424239
1.3222541e-13
-5.3567998e-08
-0.0002846468
1.2943113e-13
-4.6723217e-08
-0.00028437364
1.3650326e-13
-2.9688155e-08
-0.00028441815
1.3168765e-13
-1.8785114e-08
-0.00028438564
1.2779386e-13
-1.349324e-08
-0.00028437917
1.2975317e-13
-5.3090151e-09
-0.00028438052
1.358092e-13
8.0971719e-15
-0.00028437567
1.4115908e-13
5.3090294e-09
-0.00028437567
1.4045688e-13
1.3493247e-08
-0.00028438052
1.3908352e-13
1.8785109e-08
-0.00028437917
1.2168571e-13
2.9688144e-08
-0.00028438564
1.3600265e-13
4.6723205e-08
-0.00028441815
1.3907073e-13
5.3567997e-08
-0.00028437364
1.313789e-13
9.3732412e-08
-0.0002846468
1.3816055e-13
7.1781361e-08
-0.00028424239
1.3511432e-13
-7.3039712e-07
-0.00028630859
1.3511857e-13
-0.00028210309
1.0703249e-13
4.8263406e-07
-0.00028326287
9.9248266e-14
-2.7563566e-07
-0.00028621745
9.8405206e-14
-2.2731036e-07
-0.00028496079
9.9139521e-14
-1.4331918e-07
-0.00028539858
9.7513247e-14
-1.2687165e-07
-0.00028505822
9.0215777e-14
-7.4658352e-08
-0.00028513808
9.5921563e-14
-5.8845891e-08
-0.00028506985
1.026642e-13
-3.2896994e-08
-0.0002850731
9.934796e-14
-1.7335391e-08
-0.00028506444
1.0447058e-13
2.8096574e-15
-0.00028506113
1.0626012e-13
1.7335395e-08
-0.00028506113
9.9918151e-14
3.2896991e-08
-0.00028506444
1.027291e-13
5.8845879e-08
-0.0002850731
9.4956974e-14
7.4658333e-08
-0.00028506985
9.8684774e-14
1.2687163e-07
-0.00028513808
9.5652012e-14
1.4331917e-07
-0.00028505822
9.5981998e-14
2.2731036e-07
-0.00028539858
9.9589195e-14
2.7563567e-07
-0.00028496079
9.5297859e-14
-4.8263404e-07
-0.00028621745
1.0579153e-13
-0.00028326287
1.0666442e-13
5.3753424e-07
-0.00027646688
1.4715746e-14
1.2108512e-07
-0.00027847281
2.3547519e-14
1.8793346e-07
-0.00027769636
2.1169067e-14
3.577312e-08
-0.00027791812
2.5329463e-14
7.2389172e-08
-0.00027776733
1.2384147e-14
1.1615835e-08
-0.00027774834
3.0833312e-14
2.8706407e-08
-0.00027775898
2.9914425e-14
3.4546544e-09
-0.0002777174
2.6051669e-14
7.5900979e-09
-0.00027773887
3.5222349e-14
1.3541811e-14
-0.00027772277
3.1597283e-14
-7.5900686e-09
-0.00027772277
2.4788941e-14
-3.4546358e-09
-0.00027773887
3.6295565e-14
-2.8706388e-08
-0.0002777174
2.9251389e-14
-1.1615836e-08
-0.00027775898
2.9560252e-14
-7.2389165e-08
-0.00027774834
1.6629168e-14
-3.5773125e-08
-0.00027776733
2.3166637e-14
-1.8793347e-07
-0.00027791812
2.5889956e-14
-1.2108514e-07
-0.00027769636
2.6420887e-14
-5.3753425e-07
-0.00027847281
2.7452964e-14
-0.00027646688
2.0981428e-14
-2.4464664e-08
-0.00028279718
4.4504871e-14
-3.8077077e-07
-0.00028446207
1.8705751e-14
-2.7834855e-07
-0.00028414802
2.5503465e-14
-2.512407e-07
-0.00028429004
5.8907189e-14
-2.1677273e-07
-0.00028414668
4.0469716e-14
-1.4499304e-07
-0.00028416572
1.5435686e-14
-1.1950073e-07
-0.00028413013
1.3647984e-14
-6.6026077e-08
-0.00028411772
2.0235956e-14
-3.7390567e-08
-0.00028411462
1.4006787e-14
-8.3813948e-15
-0.00028410769
1.9565523e-14
3.7390557e-08
-0.00028410769
2.8221806e-14
6.602606e-08
-0.00028411462
2.4427935e-14
1.1950071e-07
-0.00028411772
1.9298698e-14
1.4499302e-07
-0.00028413013
2.6073973e-14
2.1677269e-07
-0.00028416572
2.5837895e-14
2.5124067e-07
-0.00028414668
2.5978207e-14
2.7834853e-07
-0.00028429004
5.2432034e-14
3.8077076e-07
-0.00028414802
5.7123971e-14
2.4464648e-08
-0.00028446207
2.5344175e-14
-0.00028279718
2.0558633e-14
7.9572994e-07
-0.00026645026
-1.6418874e-15
3.5340637e-07
-0.00026688948
-2.5044974e-14
5.5325042e-07
-0.00026721291
-5.1643955e-15
2.0893515e-07
-0.00026682
1.9047072e-15
3.0478159e-07
-0.00026711636
-1.0415791e-14
1.1262601e-07
-0.00026684703
1.753082e-14
1.4438781e-07
-0.00026703595
-3.2570448e-15
4.8499545e-08
-0.00026689201
1.5165914e-14
4.1918284e-08
-0.00026697829
7.4794952e-15
2.4981777e-14
-0.00026693409
2.9884235e-15
-4.1918223e-08
-0.00026693409
-2.4782914e-14
-4.849951e-08
-0.00026697829
8.3729277e-16
-1.4438779e-07
-0.00026689201
9.4432587e-15
-1.1262598e-07
-0.00026703595
-1.5344052e-15
-3.0478158e-07
-0.00026684703
5.8462978e-15
-2.0893515e-07
-0.00026711636
7.0499036e-17
-5.5325042e-07
-0.00026682
5.7416471e-15
-3.5340638e-07
-0.00026721291
7.0217745e-16
-7.9572994e-07
-0.00026688948
-1.177015e-14
-0.00026645026
-4.4130556e-15
-6.5445695e-07
-0.00027049215
1.805526e-14
-5.3737999e-07
-0.00027170069
2.2013361e-14
-5.8771789e-07
-0.00027185923
3.916525e-15
-4.0895558e-07
-0.00027169128
-5.045538e-15
-4.212067e-07
-0.0002717962
-9.5690869e-15
-2.6097094e-07
-0.00027170169
-1.110756e-14
-2.4113149e-07
-0.00027175029
1.6230978e-14
-1.2509384e-07
-0.00027170521
3.8064898e-15
-7.7581178e-08
-0.00027172328
-9.0978101e-15
2.067673e-15
-0.00027171002
6.5542328e-15
7.7581185e-08
-0.00027171002
4.3511755e-15
1.2509386e-07
-0.00027172328
1.3470552e-14
2.4113148e-07
-0.00027170521
2.2693773e-14
2.6097094e-07
-0.00027175029
1.5830888e-14
4.212067e-07
-0.00027170169
1.536491e-14
4.0895557e-07
-0.0002717962
1.2562567e-14
5.8771789e-07
-0.00027169128
-4.9496773e-15
5.3738e-07
-0.00027185923
-1.0346862e-15
6.5445695e-07
-0.00027170069
6.9484664e-15
-0.00027049215
6.2028134e-15
2.7547016e-06
-0.0002600469
-1.4579076e-14
6.1499854e-07
-0.00025635495
4.985341e-14
1.2808036e-06
-0.00025931417
1.7449045e-14
4.6556735e-07
-0.00025767524
-8.9339529e-15
6.5653067e-07
-0.00025877878
3.1921427e-14
2.9532975e-07
-0.00025813572
-1.2226942e-14
3.2254088e-07
-0.00025856851
1.9526662e-14
1.4075252e-07
-0.00025831386
-2.0938652e-15
9.7732248e-08
-0.00025846883
-3.562197e-14
-1.3518448e-14
-0.00025840014
-7.4086266e-15
-9.7732302e-08
-0.00025840014
2.8350382e-14
-1.407526e-07
-0.00025846883
-1.3374195e-15
-3.2254097e-07
-0.00025831386
-6.1308603e-15
-2.9532982e-07
-0.00025856851
3.5033194e-16
-6.565307e-07
-0.00025813572
-2.3726214e-14
-4.655674e-07
-0.00025877878
-2.8938853e-14
-1.2808036e-06
-0.00025767524
-2.2037679e-14
-6.1499851e-07
-0.00025931417
4.3174682e-14
-2.7547016e-06
-0.00025635495
4.3788966e-14
-0.0002600469
4.0240442e-14
-2.722237e-06
-0.00027484546
-3.1650798e-15
-8.0283041e-07
-0.00027580428
-1.4646258e-14
-1.4753115e-06
-0.00027617946
-2.918515e-15
-6.5990214e-07
-0.00027601357
1.9872974e-14
-8.5880155e-07
-0.00027611122
-1.0934956e-15
-4.4760539e-07
-0.00027607356
-1.5723463e-14
-4.5988092e-07
-0.00027608698
-3.2934015e-15
-2.2211825e-07
-0.00027608453
-8.4881646e-15
-1.4540317e-07
-0.00027608036
1.7870894e-14
-6.4098811e-15
-0.00027608204
7.6521274e-15
1.454032e-07
-0.00027608204
1.0759398e-14
2.221183e-07
-0.00027608036
1.7174855e-14
4.5988097e-07
-0.00027608453
-1.6936021e-14
4.4760544e-07
-0.00027608698
-1.7370357e-14
8.5880162e-07
-0.00027607356
-1.9399242e-14
6.599022e-07
-0.00027611122
-2.0466062e-14
1.4753116e-06
-0.00027601357
-1.9357711e-14
8.0283046e-07
-0.00027617946
1.10656e-14
2.7222371e-06
-0.00027580428
8.9956615e-15
-0.00027484546
-1.1366931e-14
1.0070318e-06
-5.9974391e-14
1.2228401e-06
3.5003076e-14
9.4858374e-07
4.1521979e-14
8.9466198e-07
-6.7784373e-14
7.0460182e-07
-1.632396e-14
5.837802e-07
1.0269857e-14
4.2507366e-07
4.9416593e-15
2.8751881e-07
-6.9162365e-15
1.4158711e-07
1.9627748e-15
2.2117984e-15
8.5317037e-15
-1.4158713e-07
3.4169038e-15
-2.8751883e-07
-3.2794341e-14
-4.2507368e-07
-2.302664e-14
-5.8378022e-07
1.5083174e-14
-7.0460185e-07
2.3992724e-14
-8.9466201e-07
-1.867731e-14
-9.4858376e-07
-3.2317154e-14
-1.2228401e-06
1.1494193e-14
-1.0070318e-06
5.0265514e-14
2.9823331e-14
-2.9996288e-06
-0.00028410568
7.5011912e-06
-2.2568457e-07
-0.0002898396
7.5063424e-06
-3.2623848e-07
-0.00028699903
7.5179245e-06
-8.0287161e-08
-0.00028734078
7.5162477e-06
-7.7952477e-08
-0.00028710105
7.5174416e-06
-3.9300631e-08
-0.00028713642
7.5174205e-06
-2.8946e-08
-0.00028710912
7.5174503e-06
-1.7253489e-08
-0.00028710968
7.5175159e-06
-8.1002401e-09
-0.00028710754
7.5174912e-06
4.8668054e-15
-0.00028710615
7.5175188e-06
8.1002487e-09
-0.00028710615
7.5175188e-06
1.7253491e-08
-0.00028710754
7.5174912e-06
2.8945994e-08
-0.00028710968
7.5175159e-06
3.9300622e-08
-0.00028710912
7.5174503e-06
7.7952465e-08
-0.00028713642
7.5174205e-06
8.0287156e-08
-0.00028710105
7.5174415e-06
3.2623848e-07
-0.00028734078
7.5162477e-06
2.2568458e-07
-0.00028699903
7.5179246e-06
2.9996288e-06
-0.0002898396
7.5063424e-06
-0.00028410568
7.5011912e-06
7.3039715e-07
-0.00028210309
-2.7452227e-06
-7.1781342e-08
-0.00028630859
-2.7558322e-06
-9.3732411e-08
-0.00028424239
-2.7549887e-06
-5.3567997e-08
-0.0002846468
-2.75559e-06
-4.6723219e-08
-0.00028437364
-2.7558733e-06
-2.9688154e-08
-0.00028441815
-2.7559984e-06
-1.8785112e-08
-0.00028438564
-2.7559508e-06
-1.3493237e-08
-0.00028437917
-2.7560044e-06
-5.309014e-09
-0.00028438052
-2.7559788e-06
7.3531573e-15
-0.00028437567
-2.7559964e-06
5.3090275e-09
-0.00028437567
-2.7559964e-06
1.3493244e-08
-0.00028438052
-2.7559788e-06
1.878511e-08
-0.00028437917
-2.7560044e-06
2.9688142e-08
-0.00028438564
-2.7559508e-06
4.6723205e-08
-0.00028441815
-2.7559984e-06
5.3567998e-08
-0.00028437364
-2.7558733e-06
9.3732413e-08
-0.0002846468
-2.75559e-06
7.1781357e-08
-0.00028424239
-2.7549887e-06
-7.3039713e-07
-0.00028630859
-2.7558322e-06
-0.00028210309
-2.7452227e-06
4.8263407e-07
-0.00028326287
-1.5366292e-06
-2.7563566e-07
-0.00028621745
-1.5393616e-06
-2.2731036e-07
-0.00028496079
-1.5400821e-06
-1.4331918e-07
-0.00028539858
-1.5397745e-06
-1.2687165e-07
-0.00028505822
-1.5409276e-06
-7.4658348e-08
-0.00028513808
-1.5409375e-06
-5.8845892e-08
-0.00028506985
-1.5409982e-06
-3.2896989e-08
-0.0002850731
-1.541072e-06
-1.7335388e-08
-0.00028506444
-1.5410428e-06
2.0841676e-15
-0.00028506113
-1.5410745e-06
1.733539e-08
-0.00028506113
-1.5410745e-06
3.2896988e-08
-0.00028506444
-1.5410429e-06
5.8845881e-08
-0.0002850731
-1.541072e-06
7.465833e-08
-0.00028506985
-1.5409982e-06
1.2687163e-07
-0.00028513808
-1.5409375e-06
1.4331917e-07
-0.00028505822
-1.5409276e-06
2.2731036e-07
-0.00028539858
-1.5397745e-06
2.7563567e-07
-0.00028496079
-1.5400821e-06
-4.8263405e-07
-0.00028621745
-1.5393616e-06
-0.00028326287
-1.5366293e-06
5.3753424e-07
-0.00027646688
-9.8418096e-07
1.2108513e-07
-0.00027847281
-9.8860397e-07
1.8793347e-07
-0.00027769636
-9.8817363e-07
3.577312e-08
-0.00027791812
-9.8879725e-07
7.2389162e-08
-0.00027776733
-9.8770279e-07
1.1615835e-08
-0.00027774834
-9.8781789e-07
2.8706407e-08
-0.00027775898
-9.8770116e-07
3.4546571e-09
-0.0002777174
-9.8769498e-07
7.5901009e-09
-0.00027773887
-9.876909e-07
1.433138e-14
-0.00027772277
-9.8768207e-07
-7.5900717e-09
-0.00027772277
-9.8768207e-07
-3.4546369e-09
-0.00027773887
-9.876909e-07
-2.8706391e-08
-0.0002777174
-9.8769498e-07
-1.1615837e-08
-0.00027775898
-9.8770116e-07
-7.2389164e-08
-0.00027774834
-9.878179e-07
-3.5773126e-08
-0.00027776733
-9.8770278e-07
-1.8793348e-07
-0.00027791812
-9.8879725e-07
-1.2108514e-07
-0.00027769636
-9.8817362e-07
-5.3753425e-07
-0.00027847281
-9.8860396e-07
-0.00027646688
-9.8418096e-07
-2.4464645e-08
-0.00028279718
4.7598028e-07
-3.8077078e-07
-0.00028446207
4.7829939e-07
-2.7834857e-07
-0.00028414802
4.7803209e-07
-2.5124069e-07
-0.00028429004
4.7827158e-07
-2.1677271e-07
-0.00028414668
4.779784e-07
-1.4499303e-07
-0.00028416572
4.7793785e-07
-1.1950073e-07
-0.00028413013
4.7792886e-07
-6.602607e-08
-0.00028411772
4.7785479e-07
-3.7390565e-08
-0.00028411462
4.7788417e-07
-4.1425823e-15
-0.00028410769
4.778552e-07
3.7390555e-08
-0.00028410769
4.778552e-07
6.6026056e-08
-0.00028411462
4.7788417e-07
1.1950071e-07
-0.00028411772
4.7785479e-07
1.4499302e-07
-0.00028413013
4.7792887e-07
2.1677269e-07
-0.00028416572
4.7793785e-07
2.5124065e-07
-0.00028414668
4.7797841e-07
2.7834853e-07
-0.00028429004
4.7827157e-07
3.8077078e-07
-0.00028414802
4.7803208e-07
2.446466e-08
-0.00028446207
4.7829938e-07
-0.00028279718
4.7598026e-07
7.9572994e-07
-0.00026645026
-1.1263599e-06
3.5340635e-07
-0.00026688948
-1.1286333e-06
5.5325042e-07
-0.00026721291
-1.1293553e-06
2.0893516e-07
-0.00026682
-1.1291336e-06
3.0478159e-07
-0.00026711636
-1.1290797e-06
1.1262602e-07
-0.00026684703
-1.1289826e-06
1.4438782e-07
-0.00026703595
-1.1290092e-06
4.849955e-08
-0.00026689201
-1.128946e-06
4.191827e-08
-0.00026697829
-1.1289711e-06
2.6517178e-14
-0.00026693409
-1.1289505e-06
-4.1918224e-08
-0.00026693409
-1.1289505e-06
-4.8499513e-08
-0.00026697829
-1.1289711e-06
-1.4438778e-07
-0.00026689201
-1.128946e-06
-1.1262598e-07
-0.00026703595
-1.1290092e-06
-3.0478157e-07
-0.00026684703
-1.1289826e-06
-2.0893516e-07
-0.00026711636
-1.1290797e-06
-5.5325043e-07
-0.00026682
-1.1291336e-06
-3.5340638e-07
-0.00026721291
-1.1293553e-06
-7.9572994e-07
-0.00026688948
-1.1286333e-06
-0.00026645026
-1.1263599e-06
-6.5445695e-07
-0.00027049215
1.1848574e-06
-5.3737998e-07
-0.00027170069
1.187638e-06
-5.8771789e-07
-0.00027185923
1.1886801e-06
-4.089556e-07
-0.00027169128
1.188254e-06
-4.212067e-07
-0.0002717962
1.1885101e-06
-2.6097096e-07
-0.00027170169
1.188274e-06
-2.4113147e-07
-0.00027175029
1.188406e-06
-1.2509382e-07
-0.00027170521
1.1882956e-06
-7.7581193e-08
-0.00027172328
1.1883467e-06
7.3131255e-15
-0.00027171002
1.1883162e-06
7.758118e-08
-0.00027171002
1.1883163e-06
1.2509385e-07
-0.00027172328
1.1883466e-06
2.4113148e-07
-0.00027170521
1.1882956e-06
2.6097094e-07
-0.00027175029
1.1884061e-06
4.212067e-07
-0.00027170169
1.188274e-06
4.0895557e-07
-0.0002717962
1.1885101e-06
5.8771789e-07
-0.00027169128
1.188254e-06
5.3738e-07
-0.00027185923
1.1886801e-06
6.5445695e-07
-0.00027170069
1.187638e-06
-0.00027049215
1.1848574e-06
2.7547015e-06
-0.0002600469
-3.1813615e-06
6.1499854e-07
-0.00025635495
-3.1914709e-06
1.2808036e-06
-0.00025931417
-3.1901424e-06
4.6556735e-07
-0.00025767524
-3.1910999e-06
6.5653067e-07
-0.00025877878
-3.1901471e-06
2.9532975e-07
-0.00025813572
-3.1907968e-06
3.2254091e-07
-0.00025856851
-3.1902837e-06
1.4075254e-07
-0.00025831386
-3.1906327e-06
9.7732211e-08
-0.00025846883
-3.1903991e-06
-3.9001115e-14
-0.00025840014
-3.1905101e-06
-9.7732284e-08
-0.00025840014
-3.1905101e-06
-1.4075259e-07
-0.00025846883
-3.1903991e-06
-3.2254094e-07
-0.00025831386
-3.1906327e-06
-2.953298e-07
-0.00025856851
-3.1902837e-06
-6.565307e-07
-0.00025813572
-3.1907968e-06
-4.655674e-07
-0.00025877878
-3.1901471e-06
-1.2808036e-06
-0.00025767524
-3.1910999e-06
-6.1499856e-07
-0.00025931417
-3.1901423e-06
-2.7547016e-06
-0.00025635495
-3.1914709e-06
-0.0002600469
-3.1813615e-06
-2.722237e-06
-0.00027484546
3.1778426e-06
-8.0283041e-07
-0.00027580428
3.1874388e-06
-1.4753115e-06
-0.00027617946
3.1869803e-06
-6.5990214e-07
-0.00027601357
3.187813e-06
-8.5880156e-07
-0.00027611122
3.1868829e-06
-4.4760539e-07
-0.00027607356
3.1876423e-06
-4.5988092e-07
-0.00027608698
3.1870416e-06
-2.2211826e-07
-0.00027608453
3.1874912e-06
-1.4540316e-07
-0.00027608036
3.187196e-06
6.8601815e-15
-0.00027608204
3.1873445e-06
1.454032e-07
-0.00027608204
3.1873445e-06
2.221183e-07
-0.00027608036
3.187196e-06
4.5988097e-07
-0.00027608453
3.1874912e-06
4.4760544e-07
-0.00027608698
3.1870416e-06
8.5880161e-07
-0.00027607356
3.1876423e-06
6.599022e-07
-0.00027611122
3.1868829e-06
1.4753116e-06
-0.00027601357
3.187813e-06
8.0283046e-07
-0.00027617946
3.1869803e-06
2.7222371e-06
-0.00027580428
3.1874388e-06
-0.00027484546
3.1778426e-06
1.0070318e-06
-2.6854521e-06
1.2228401e-06
-2.8078384e-06
9.4858381e-07
-2.7371447e-06
8.9466199e-07
-2.7521816e-06
7.0460183e-07
-2.7467676e-06
5.8378021e-07
-2.7488124e-06
4.2507366e-07
-2.7475371e-06
2.8751881e-07
-2.7483616e-06
1.415871e-07
-2.7478249e-06
-1.6583697e-16
-2.7480853e-06
-1.4158713e-07
-2.7480853e-06
-2.8751883e-07
-2.7478249e-06
-4.2507368e-07
-2.7483616e-06
-5.8378022e-07
-2.7475371e-06
-7.0460183e-07
-2.7488125e-06
-8.9466198e-07
-2.7467675e-06
-9.4858379e-07
-2.7521816e-06
-1.2228402e-06
-2.7371447e-06
-1.0070318e-06
-2.8078383e-06
-2.6854521e-06
-2.9627347e-06
-0.00026925495
-2.2581404e-07
-0.00027490528
-3.2328186e-07
-0.00027208152
-7.9547586e-08
-0.00027242134
-7.724148e-08
-0.00027218141
-3.8970025e-08
-0.00027221648
-2.8697457e-08
-0.00027218941
-1.7111147e-08
-0.00027218981
-8.030018e-09
-0.00027218776
6.2205151e-15
-0.00027218632
8.0300276e-09
-0.00027218632
1.7111151e-08
-0.00027218776
2.8697436e-08
-0.00027218981
3.8970013e-08
-0.00027218941
7.7241479e-08
-0.00027221648
7.9547578e-08
-0.00027218141
3.2328187e-07
-0.00027242134
2.2581405e-07
-0.00027208152
2.9627347e-06
-0.00027490528
-0.00026925495
7.2476151e-07
-0.00027270236
-7.1596742e-08
-0.00027685676
-9.3011598e-08
-0.00027480043
-5.321997e-08
-0.0002752032
-4.635641e-08
-0.00027493081
-2.9424768e-08
-0.00027497513
-1.8602552e-08
-0.00027494279
-1.3375948e-08
-0.00027493629
-5.2560057e-09
-0.00027493767
9.0452015e-15
-0.00027493281
5.2560188e-09
-0.00027493281
1.3375955e-08
-0.00027493767
1.860255e-08
-0.00027493629
2.9424758e-08
-0.00027494279
4.6356395e-08
-0.00027497513
5.321997e-08
-0.00027493081
9.3011598e-08
-0.0002752032
7.1596755e-08
-0.00027480043
-7.2476148e-07
-0.00027685676
-0.00027270236
4.8136067e-07
-0.0002769368
-2.7350399e-07
-0.0002798504
-2.2543823e-07
-0.0002786014
-1.4231994e-07
-0.00027903631
-1.2593054e-07
-0.00027869984
-7.4028608e-08
-0.00027877928
-5.8353413e-08
-0.00027871152
-3.2615209e-08
-0.00027871481
-1.7186963e-08
-0.0002787062
2.4045836e-15
-0.00027870294
1.7186965e-08
-0.00027870294
3.2615209e-08
-0.0002787062
5.8353405e-08
-0.00027871481
7.4028589e-08
-0.00027871152
1.2593052e-07
-0.00027877928
1.4231994e-07
-0.00027869984
2.2543822e-07
-0.00027903631
2.73504e-07
-0.0002786014
-4.8136065e-07
-0.0002798504
-0.0002769368
5.3263234e-07
-0.00027209955
1.2016089e-07
-0.00027408222
1.8682549e-07
-0.00027330841
3.5692849e-08
-0.00027352976
7.2108029e-08
-0.00027337942
1.1548203e-08
-0.00027336067
2.8571095e-08
-0.00027337126
3.4299533e-09
-0.00027332988
7.5534297e-09
-0.00027335128
1.5806153e-14
-0.00027333525
-7.5533998e-09
-0.00027333525
-3.4299333e-09
-0.00027335128
-2.8571078e-08
-0.00027332988
-1.1548205e-08
-0.00027337126
-7.2108023e-08
-0.00027336067
-3.5692851e-08
-0.00027337942
-1.8682551e-07
-0.00027352976
-1.2016091e-07
-0.00027330841
-5.3263234e-07
-0.00027408222
-0.00027209955
-2.1711734e-08
-0.00027748194
-3.7770425e-07
-0.00027911645
-2.7579769e-07
-0.00027880475
-2.4917479e-07
-0.00027894591
-2.1496864e-07
-0.00027880382
-1.4375403e-07
-0.00027882287
-1.1850359e-07
-0.00027878757
-6.545089e-08
-0.00027877534
-3.7076675e-08
-0.00027877226
-4.5467558e-15
-0.0002787654
3.7076664e-08
-0.0002787654
6.5450876e-08
-0.00027877226
1.1850356e-07
-0.00027877534
1.43754e-07
-0.00027878757
2.1496862e-07
-0.00027882287
2.4917476e-07
-0.00027880382
2.7579766e-07
-0.00027894591
3.7770425e-07
-0.00027880475
2.1711737e-08
-0.00027911645
-0.00027748194
7.8865678e-07
-0.00026337401
3.5068603e-07
-0.0002637988
5.4937647e-07
-0.00026412052
2.0716031e-07
-0.00026372955
3.0270335e-07
-0.00026402468
1.1161789e-07
-0.00026375654
1.4338364e-07
-0.00026394473
4.8045745e-08
-0.00026380139
4.162076e-08
-0.00026388735
2.5067516e-14
-0.00026384333
-4.1620703e-08
-0.00026384333
-4.8045708e-08
-0.00026388735
-1.4338361e-07
-0.00026380139
-1.1161787e-07
-0.00026394473
-3.0270334e-07
-0.00026375654
-2.071603e-07
-0.00026402468
-5.4937647e-07
-0.00026372955
-3.5068604e-07
-0.00026412052
-7.8865679e-07
-0.0002637988
-0.00026337401
-6.4728369e-07
-0.00026504474
-5.329769e-07
-0.0002662233
-5.8293484e-07
-0.0002663812
-4.0542571e-07
-0.00026621441
-4.1784101e-07
-0.00026631868
-2.586534e-07
-0.00026622494
-2.3919236e-07
-0.00026627322
-1.239623e-07
-0.00026622853
-7.6954005e-08
-0.00026624648
7.8103481e-15
-0.00026623333
7.6954014e-08
-0.00026623333
1.2396232e-07
-0.00026624648
2.3919235e-07
-0.00026622853
2.5865339e-07
-0.00026627322
4.17841e-07
-0.00026622494
4.054257e-07
-0.00026631868
5.8293484e-07
-0.00026621441
5.329769e-07
-0.0002663812
6.4728369e-07
-0.0002662233
-0.00026504474
2.7339501e-06
-0.00026093257
6.1003248e-07
-0.00025726735
1.2718679e-06
-0.0002602035
4.6122689e-07
-0.00025857622
6.5179604e-07
-0.0002596722
2.9255341e-07
-0.00025903357
3.201469e-07
-0.00025946344
1.3941784e-07
-0.00025921055
9.6995366e-08
-0.00025936447
-2.5236016e-14
-0.00025929626
-9.6995431e-08
-0.00025929626
-1.3941791e-07
-0.00025936447
-3.2014696e-07
-0.00025921055
-2.9255346e-07
-0.00025946344
-6.5179608e-07
-0.00025903357
-4.6122693e-07
-0.0002596722
-1.2718679e-06
-0.00025857622
-6.1003248e-07