/*--------------------------------*- C++ -*----------------------------------*\
  =========                 |
  \\      /  F ield         | OpenFOAM: The Open Source CFD Toolbox
   \\    /   O peration     | Website:  https://openfoam.org
    \\  /    A nd           | Version:  8
     \\/     M anipulation  |
\*---------------------------------------------------------------------------*/
FoamFile
{
    version     2.0;
    format      ascii;
    class       volVectorField;
    location    "0.4";
    object      U;
}
// * * * * * * * * * * * * * * * * * * * * * * * * * * * * * * * * * * * * * //

dimensions      [0 1 -1 0 0 0 0];

internalField   nonuniform List<vector> 
800
(
(-0.00090514249 0.53454787 -0.0016950181)
(4.6665431e-05 0.53528368 -0.0016987341)
(-0.00010673036 0.53545065 -0.0016998953)
(1.0012986e-05 0.53544241 -0.0016997564)
(-3.0882819e-05 0.5354511 -0.0016998683)
(7.081071e-06 0.53546188 -0.0016998832)
(-1.720853e-05 0.53545564 -0.0016998793)
(8.2008966e-06 0.53546527 -0.0016998992)
(-1.2631618e-05 0.53546027 -0.001699891)
(1.0094224e-05 0.53546387 -0.0016998987)
(-1.0094222e-05 0.53546387 -0.0016998987)
(1.2631619e-05 0.53546027 -0.001699891)
(-8.2008967e-06 0.53546527 -0.0016998992)
(1.7208529e-05 0.53545564 -0.0016998793)
(-7.0810731e-06 0.53546188 -0.0016998832)
(3.0882817e-05 0.5354511 -0.0016998683)
(-1.0012986e-05 0.53544241 -0.0016997564)
(0.00010673036 0.53545065 -0.0016998953)
(-4.6665431e-05 0.53528368 -0.0016987341)
(0.00090514249 0.53454787 -0.0016950181)
(0.00015686556 -0.65530625 0.00017793445)
(1.9859433e-05 -0.65684176 0.00017871869)
(-3.5431574e-05 -0.65669535 0.0001786608)
(1.0225202e-05 -0.65672681 0.00017870244)
(-2.196674e-05 -0.65670795 0.00017871617)
(9.2177394e-06 -0.65672478 0.00017872642)
(-1.5651313e-05 -0.65671421 0.00017872153)
(1.0413292e-05 -0.6567255 0.00017872617)
(-1.3324929e-05 -0.65671942 0.00017872372)
(1.1830181e-05 -0.65672345 0.00017872522)
(-1.1830179e-05 -0.65672345 0.00017872522)
(1.332493e-05 -0.65671942 0.00017872372)
(-1.0413292e-05 -0.6567255 0.00017872617)
(1.5651312e-05 -0.65671421 0.00017872153)
(-9.217741e-06 -0.65672478 0.00017872642)
(2.1966738e-05 -0.65670795 0.00017871617)
(-1.02252e-05 -0.65672681 0.00017870244)
(3.5431572e-05 -0.65669535 0.0001786608)
(-1.9859427e-05 -0.65684176 0.00017871869)
(-0.00015686556 -0.65530625 0.00017793445)
(0.0001023989 0.73488269 5.5292878e-05)
(-2.6904427e-06 0.73613821 5.5383551e-05)
(-5.2709834e-05 0.73623275 5.5440869e-05)
(2.4239515e-06 0.73621772 5.542349e-05)
(-3.1127133e-05 0.73623071 5.5485922e-05)
(3.0030758e-06 0.73624487 5.548797e-05)
(-1.7882631e-05 0.73623657 5.5490307e-05)
(4.788928e-06 0.73625074 5.549534e-05)
(-1.1336275e-05 0.73624336 5.5493163e-05)
(7.4720766e-06 0.73624874 5.5495223e-05)
(-7.472076e-06 0.73624874 5.5495223e-05)
(1.1336275e-05 0.73624336 5.5493163e-05)
(-4.7889286e-06 0.73625074 5.549534e-05)
(1.7882629e-05 0.73623657 5.5490305e-05)
(-3.0030777e-06 0.73624487 5.548797e-05)
(3.112713e-05 0.73623071 5.5485921e-05)
(-2.4239514e-06 0.73621772 5.542349e-05)
(5.2709832e-05 0.73623275 5.5440869e-05)
(2.6904455e-06 0.73613821 5.5383551e-05)
(-0.0001023989 0.73488269 5.5292873e-05)
(9.441908e-05 -0.90922125 7.4759377e-05)
(1.432826e-06 -0.91115599 7.5152422e-05)
(2.2104014e-05 -0.91106478 7.5113026e-05)
(1.0049033e-05 -0.91111769 7.514851e-05)
(-2.374505e-06 -0.91107838 7.5092361e-05)
(1.4165266e-05 -0.91110804 7.5099773e-05)
(-1.1434338e-05 -0.91108721 7.509248e-05)
(1.5902394e-05 -0.91110448 7.5092973e-05)
(-1.5021272e-05 -0.91109436 7.5092146e-05)
(1.6168563e-05 -0.91110018 7.5091956e-05)
(-1.616856e-05 -0.91110018 7.5091956e-05)
(1.5021274e-05 -0.91109436 7.5092146e-05)
(-1.5902392e-05 -0.91110448 7.5092973e-05)
(1.1434339e-05 -0.91108721 7.509248e-05)
(-1.4165268e-05 -0.91110804 7.5099776e-05)
(2.3745079e-06 -0.91107838 7.5092362e-05)
(-1.0049037e-05 -0.91111769 7.514851e-05)
(-2.2104012e-05 -0.91106478 7.5113026e-05)
(-1.432829e-06 -0.91115599 7.5152424e-05)
(-9.4419078e-05 -0.90922125 7.4759376e-05)
(1.8564301e-05 1.0371446 -4.8688446e-05)
(-2.2610577e-05 1.039168 -4.8886207e-05)
(-3.4993875e-05 1.0391528 -4.8869323e-05)
(-9.3914314e-06 1.0391888 -4.8878264e-05)
(-2.8680996e-05 1.0391604 -4.8866248e-05)
(-5.7015868e-06 1.0391976 -4.8862926e-05)
(-1.6302701e-05 1.0391718 -4.8863272e-05)
(-2.6184498e-06 1.0391971 -4.8859248e-05)
(-7.4186136e-06 1.0391826 -4.8860866e-05)
(1.5054305e-06 1.0391913 -4.8859374e-05)
(-1.5054316e-06 1.0391913 -4.8859374e-05)
(7.4186128e-06 1.0391826 -4.8860867e-05)
(2.6184485e-06 1.0391971 -4.8859248e-05)
(1.6302699e-05 1.0391718 -4.8863273e-05)
(5.7015847e-06 1.0391976 -4.8862922e-05)
(2.8680993e-05 1.0391604 -4.8866245e-05)
(9.3914294e-06 1.0391888 -4.8878264e-05)
(3.4993873e-05 1.0391528 -4.8869331e-05)
(2.2610578e-05 1.039168 -4.8886207e-05)
(-1.8564302e-05 1.0371446 -4.8688447e-05)
(0.00010579106 -1.2677791 6.9873664e-05)
(-1.4754334e-06 -1.2704196 7.014315e-05)
(5.0808985e-05 -1.2703483 7.0164922e-05)
(1.9981055e-05 -1.2704149 7.0157784e-05)
(1.0239013e-05 -1.2703571 7.0153735e-05)
(2.7855411e-05 -1.2704042 7.015141e-05)
(-1.1163659e-05 -1.2703678 7.0150654e-05)
(2.8868273e-05 -1.2703955 7.0149434e-05)
(-2.1570959e-05 -1.2703779 7.0149384e-05)
(2.6653108e-05 -1.270387 7.014905e-05)
(-2.6653104e-05 -1.270387 7.0149051e-05)
(2.1570963e-05 -1.2703779 7.0149384e-05)
(-2.8868272e-05 -1.2703955 7.0149434e-05)
(1.1163662e-05 -1.2703678 7.0150654e-05)
(-2.785541e-05 -1.2704042 7.015141e-05)
(-1.0239013e-05 -1.2703571 7.0153735e-05)
(-1.9981055e-05 -1.2704149 7.0157785e-05)
(-5.0808986e-05 -1.2703483 7.0164922e-05)
(1.4754325e-06 -1.2704196 7.014315e-05)
(-0.00010579106 -1.2677791 6.9873665e-05)
(-5.4697326e-05 1.4620441 -6.5081483e-05)
(-1.9331332e-05 1.4650795 -6.5309781e-05)
(-4.279982e-05 1.464962 -6.5344567e-05)
(-2.3166423e-05 1.4650816 -6.5327158e-05)
(-2.4615682e-05 1.4649825 -6.5337004e-05)
(-2.2354981e-05 1.4650664 -6.5328172e-05)
(-8.3332598e-06 1.4650035 -6.5332589e-05)
(-1.8440991e-05 1.4650514 -6.5328946e-05)
(3.6709245e-06 1.4650215 -6.5330395e-05)
(-1.2263967e-05 1.465037 -6.532949e-05)
(1.2263968e-05 1.465037 -6.532949e-05)
(-3.670924e-06 1.4650215 -6.5330395e-05)
(1.8440992e-05 1.4650514 -6.5328946e-05)
(8.3332583e-06 1.4650035 -6.5332589e-05)
(2.2354981e-05 1.4650664 -6.5328171e-05)
(2.4615681e-05 1.4649825 -6.5337005e-05)
(2.3166424e-05 1.4650816 -6.5327159e-05)
(4.2799819e-05 1.464962 -6.5344567e-05)
(1.9331333e-05 1.4650795 -6.5309781e-05)
(5.4697326e-05 1.4620441 -6.5081483e-05)
(0.00026793427 -1.7674088 0.00011033102)
(-2.1930526e-06 -1.7711651 0.00011085134)
(6.6783812e-05 -1.7710562 0.0001108487)
(5.289237e-05 -1.7711662 0.00011086034)
(-2.9095601e-06 -1.7710689 0.00011084196)
(6.2604285e-05 -1.7711504 0.0001108575)
(-3.0488559e-05 -1.7710853 0.00011084368)
(5.9289956e-05 -1.7711335 0.000110854)
(-4.3878044e-05 -1.7711016 0.00011084676)
(5.2528138e-05 -1.7711174 0.0001108503)
(-5.252814e-05 -1.7711174 0.00011085031)
(4.387804e-05 -1.7711016 0.00011084675)
(-5.9289959e-05 -1.7711335 0.000110854)
(3.0488555e-05 -1.7710853 0.00011084368)
(-6.2604286e-05 -1.7711504 0.00011085751)
(2.909555e-06 -1.7710689 0.00011084196)
(-5.2892364e-05 -1.7711662 0.00011086034)
(-6.6783817e-05 -1.7710562 0.00011084871)
(2.1930519e-06 -1.7711651 0.00011085134)
(-0.00026793427 -1.7674088 0.00011033102)
(-0.00022209961 2.0506355 -0.00010037172)
(-3.0028167e-06 2.0553538 -0.00010082352)
(-6.810105e-05 2.0549561 -0.00010084309)
(-5.0705973e-05 2.055235 -0.00010085019)
(-8.7212498e-06 2.0550199 -0.00010083473)
(-5.9103846e-05 2.0551745 -0.00010085143)
(1.8470919e-05 2.0550585 -0.00010083682)
(-5.4396945e-05 2.0551384 -0.00010084873)
(3.4157545e-05 2.0550868 -0.0001008406)
(-4.5463028e-05 2.0551117 -0.00010084478)
(4.5463028e-05 2.0551117 -0.00010084478)
(-3.4157542e-05 2.0550868 -0.0001008406)
(5.4396946e-05 2.0551384 -0.00010084873)
(-1.8470915e-05 2.0550585 -0.00010083682)
(5.9103846e-05 2.0551745 -0.00010085143)
(8.7212538e-06 2.0550199 -0.00010083473)
(5.0705974e-05 2.055235 -0.00010085019)
(6.8101053e-05 2.0549561 -0.00010084309)
(3.0028183e-06 2.0553538 -0.00010082352)
(0.00022209962 2.0506355 -0.00010037172)
(-0.00015684107 -2.4622617 -0.0013364535)
(0.0002248408 -2.4679479 -0.001339007)
(-0.00012404617 -2.467553 -0.0013400965)
(0.0001812106 -2.4678488 -0.0013399336)
(-0.00010686566 -2.4676148 -0.0013399527)
(0.00014946396 -2.4677894 -0.0013399702)
(-0.000100967 -2.4676556 -0.0013399527)
(0.00012675949 -2.4677492 -0.001339965)
(-0.00010288697 -2.4676876 -0.0013399569)
(0.00011149358 -2.4677172 -0.0013399606)
(-0.00011149358 -2.4677172 -0.0013399606)
(0.00010288697 -2.4676876 -0.0013399569)
(-0.00012675949 -2.4677492 -0.001339965)
(0.00010096699 -2.4676556 -0.0013399527)
(-0.00014946395 -2.4677894 -0.0013399702)
(0.00010686566 -2.4676148 -0.0013399527)
(-0.0001812106 -2.4678488 -0.0013399336)
(0.00012404616 -2.467553 -0.0013400965)
(-0.0002248408 -2.4679479 -0.001339007)
(0.00015684107 -2.4622617 -0.0013364535)
(-0.00091671499 0.53789954 0.00060468583)
(4.7596519e-05 0.53864083 0.00060759798)
(-0.0001076133 0.53880973 0.00060711282)
(1.0033495e-05 0.53880134 0.00060721181)
(-3.1108748e-05 0.53881021 0.00060715337)
(7.0976983e-06 0.53882104 0.00060717085)
(-1.7316804e-05 0.53881478 0.00060716292)
(8.2353967e-06 0.53882447 0.00060717317)
(-1.2705518e-05 0.53881944 0.00060716862)
(1.0147212e-05 0.53882307 0.00060717224)
(-1.014721e-05 0.53882307 0.00060717224)
(1.2705519e-05 0.53881944 0.00060716862)
(-8.2353966e-06 0.53882447 0.00060717317)
(1.7316802e-05 0.53881478 0.00060716292)
(-7.0976995e-06 0.53882104 0.00060717085)
(3.1108745e-05 0.53881021 0.00060715337)
(-1.0033495e-05 0.53880134 0.00060721181)
(0.0001076133 0.53880973 0.00060711282)
(-4.7596518e-05 0.53864083 0.00060759798)
(0.00091671499 0.53789954 0.00060468583)
(0.0001580795 -0.66099097 0.00016031063)
(2.0042552e-05 -0.66254579 0.00016084208)
(-3.5658706e-05 -0.66239799 0.00016079285)
(1.0268304e-05 -0.66242969 0.00016082554)
(-2.2093109e-05 -0.66241092 0.00016084675)
(9.2497701e-06 -0.66242787 0.00016085205)
(-1.5746151e-05 -0.66241724 0.00016085099)
(1.0460649e-05 -0.66242861 0.00016085306)
(-1.340021e-05 -0.66242249 0.00016085232)
(1.1891609e-05 -0.66242654 0.00016085301)
(-1.1891607e-05 -0.66242654 0.00016085301)
(1.3400212e-05 -0.66242249 0.00016085232)
(-1.0460649e-05 -0.66242861 0.00016085306)
(1.5746149e-05 -0.66241724 0.000160851)
(-9.2497715e-06 -0.66242787 0.00016085205)
(2.2093107e-05 -0.66241092 0.00016084675)
(-1.0268302e-05 -0.66242969 0.00016082554)
(3.5658704e-05 -0.66239799 0.00016079285)
(-2.0042545e-05 -0.66254579 0.00016084208)
(-0.0001580795 -0.66099097 0.00016031063)
(0.00010274228 0.74030132 0.00010639243)
(-2.762925e-06 0.7415714 0.0001065935)
(-5.3087393e-05 0.74166626 0.00010661099)
(2.3990081e-06 0.74165118 0.0001065964)
(-3.1312697e-05 0.74166447 0.00010665608)
(2.9859498e-06 0.74167873 0.00010665507)
(-1.7997787e-05 0.74167038 0.00010665916)
(4.7977204e-06 0.74168464 0.00010666182)
(-1.1404187e-05 0.74167722 0.00010666094)
(7.5078931e-06 0.74168264 0.00010666219)
(-7.5078924e-06 0.74168264 0.00010666219)
(1.1404187e-05 0.74167722 0.00010666095)
(-4.797721e-06 0.74168464 0.00010666182)
(1.7997785e-05 0.74167038 0.00010665916)
(-2.9859514e-06 0.74167873 0.00010665507)
(3.1312694e-05 0.74166447 0.00010665608)
(-2.3990089e-06 0.74165118 0.0001065964)
(5.3087393e-05 0.74166626 0.00010661099)
(2.7629275e-06 0.7415714 0.0001065935)
(-0.00010274228 0.74030132 0.00010639244)
(9.529458e-05 -0.91656293 1.5201551e-05)
(1.4504543e-06 -0.91852044 1.5210981e-05)
(2.225946e-05 -0.91842873 1.5212559e-05)
(1.0092459e-05 -0.91848192 1.5233128e-05)
(-2.4021367e-06 -0.91844242 1.5189787e-05)
(1.4242446e-05 -0.91847224 1.5192922e-05)
(-1.1497638e-05 -0.91845131 1.5189535e-05)
(1.5989169e-05 -0.91846868 1.5188671e-05)
(-1.5102744e-05 -0.9184585 1.5189041e-05)
(1.6256328e-05 -0.91846436 1.518851e-05)
(-1.6256326e-05 -0.91846436 1.5188509e-05)
(1.5102746e-05 -0.9184585 1.5189041e-05)
(-1.5989168e-05 -0.91846868 1.5188671e-05)
(1.149764e-05 -0.91845131 1.5189535e-05)
(-1.4242448e-05 -0.91847224 1.5192919e-05)
(2.40214e-06 -0.91844242 1.5189787e-05)
(-1.0092464e-05 -0.91848192 1.5233128e-05)
(-2.2259458e-05 -0.91842873 1.5212559e-05)
(-1.4504586e-06 -0.91852044 1.5210979e-05)
(-9.5294577e-05 -0.91656293 1.5201552e-05)
(1.829844e-05 1.0451947 1.0995697e-05)
(-2.2804355e-05 1.0472414 1.1014477e-05)
(-3.5279708e-05 1.0472261 1.1017142e-05)
(-9.5063209e-06 1.0472623 1.1007861e-05)
(-2.8888668e-05 1.0472338 1.1018549e-05)
(-5.7772976e-06 1.0472712 1.1018331e-05)
(-1.6420325e-05 1.0472453 1.1019404e-05)
(-2.657489e-06 1.0472707 1.1021034e-05)
(-7.4693272e-06 1.0472561 1.1020396e-05)
(1.50683e-06 1.047265 1.1021115e-05)
(-1.5068313e-06 1.047265 1.1021116e-05)
(7.4693269e-06 1.0472561 1.1020397e-05)
(2.6574864e-06 1.0472707 1.1021034e-05)
(1.6420325e-05 1.0472453 1.1019404e-05)
(5.7772946e-06 1.0472712 1.1018327e-05)
(2.8888666e-05 1.0472338 1.1018546e-05)
(9.5063193e-06 1.0472623 1.1007861e-05)
(3.5279707e-05 1.0472261 1.101715e-05)
(2.2804354e-05 1.0472414 1.1014478e-05)
(-1.8298441e-05 1.0451947 1.0995699e-05)
(0.00010673264 -1.27808 5.8527914e-06)
(-1.4679432e-06 -1.2807523 5.7379772e-06)
(5.1170581e-05 -1.2806806 5.7643377e-06)
(2.0135288e-05 -1.2807476 5.7567451e-06)
(1.0329353e-05 -1.2806894 5.7570076e-06)
(2.8039593e-05 -1.2807368 5.7530742e-06)
(-1.1207372e-05 -1.2807002 5.7554153e-06)
(2.9043717e-05 -1.280728 5.7526252e-06)
(-2.168271e-05 -1.2807103 5.7542422e-06)
(2.6803725e-05 -1.2807195 5.7532797e-06)
(-2.6803722e-05 -1.2807195 5.7532789e-06)
(2.1682715e-05 -1.2807103 5.7542424e-06)
(-2.9043717e-05 -1.280728 5.7526252e-06)
(1.1207374e-05 -1.2807002 5.7554155e-06)
(-2.8039591e-05 -1.2807368 5.7530735e-06)
(-1.0329353e-05 -1.2806894 5.7570076e-06)
(-2.0135288e-05 -1.2807476 5.7567451e-06)
(-5.117058e-05 -1.2806806 5.7643378e-06)
(1.467942e-06 -1.2807523 5.7379777e-06)
(-0.00010673264 -1.27808 5.8527911e-06)
(-5.5362544e-05 1.4737344 -3.0378313e-06)
(-1.9491475e-05 1.4768053 -2.9699428e-06)
(-4.3146902e-05 1.476687 -2.9949946e-06)
(-2.3368699e-05 1.4768073 -2.9879003e-06)
(-2.4821034e-05 1.4767076 -2.9926766e-06)
(-2.2535713e-05 1.476792 -2.9880722e-06)
(-8.4206001e-06 1.4767288 -2.991125e-06)
(-1.8575876e-05 1.476777 -2.9885524e-06)
(3.6747585e-06 1.4767469 -2.9899809e-06)
(-1.233963e-05 1.4767625 -2.9891887e-06)
(1.233963e-05 1.4767625 -2.989189e-06)
(-3.6747582e-06 1.4767469 -2.98998e-06)
(1.8575877e-05 1.476777 -2.9885519e-06)
(8.4205979e-06 1.4767288 -2.9911257e-06)
(2.2535715e-05 1.476792 -2.9880716e-06)
(2.4821033e-05 1.4767076 -2.9926762e-06)
(2.3368699e-05 1.4768073 -2.9879e-06)
(4.3146903e-05 1.476687 -2.9949942e-06)
(1.9491477e-05 1.4768053 -2.9699432e-06)
(5.5362543e-05 1.4737344 -3.037832e-06)
(0.00026994686 -1.7820383 4.6172935e-05)
(-2.1582094e-06 -1.785841 4.6157009e-05)
(6.724838e-05 -1.7857313 4.6092748e-05)
(5.330073e-05 -1.785842 4.6129159e-05)
(-2.8762034e-06 -1.785744 4.6100076e-05)
(6.3028808e-05 -1.7858261 4.6116847e-05)
(-3.062879e-05 -1.7857606 4.6105169e-05)
(5.9660089e-05 -1.785809 4.6112201e-05)
(-4.4111052e-05 -1.785777 4.6107837e-05)
(5.2831664e-05 -1.7857929 4.6109811e-05)
(-5.2831666e-05 -1.7857929 4.6109804e-05)
(4.4111048e-05 -1.785777 4.6107846e-05)
(-5.9660094e-05 -1.785809 4.6112201e-05)
(3.0628786e-05 -1.7857606 4.6105171e-05)
(-6.3028811e-05 -1.7858261 4.6116844e-05)
(2.8762026e-06 -1.785744 4.6100071e-05)
(-5.3300735e-05 -1.785842 4.6129156e-05)
(-6.7248377e-05 -1.7857313 4.6092747e-05)
(2.1582097e-06 -1.785841 4.6157008e-05)
(-0.00026994686 -1.7820383 4.6172934e-05)
(-0.00022382621 2.0677775 -3.3604149e-05)
(-3.074361e-06 2.0725518 -3.3562777e-05)
(-6.8595505e-05 2.0721514 -3.3522291e-05)
(-5.1104136e-05 2.072432 -3.3551185e-05)
(-8.8435181e-06 2.0722156 -3.3526881e-05)
(-5.951644e-05 2.0723711 -3.3542512e-05)
(1.852543e-05 2.0722545 -3.3531554e-05)
(-5.4745417e-05 2.0723348 -3.3538747e-05)
(3.4326122e-05 2.0722829 -3.3534334e-05)
(-4.5725896e-05 2.0723079 -3.3536451e-05)
(4.5725896e-05 2.0723079 -3.3536451e-05)
(-3.4326118e-05 2.0722829 -3.3534334e-05)
(5.4745418e-05 2.0723348 -3.3538747e-05)
(-1.8525427e-05 2.0722545 -3.3531554e-05)
(5.9516441e-05 2.0723711 -3.3542512e-05)
(8.8435222e-06 2.0722156 -3.3526881e-05)
(5.1104137e-05 2.072432 -3.3551181e-05)
(6.8595508e-05 2.0721514 -3.352229e-05)
(3.0743623e-06 2.0725518 -3.3562777e-05)
(0.00022382621 2.0677775 -3.3604149e-05)
(-0.00016658265 -2.4833114 0.001422682)
(0.00022804804 -2.4890678 0.0014294755)
(-0.00012526452 -2.4886701 0.0014281062)
(0.00018255109 -2.4889678 0.0014284657)
(-0.00010748791 -2.4887324 0.001428297)
(0.00015045008 -2.488908 0.0014283852)
(-0.0001015196 -2.4887734 0.0014283236)
(0.00012754338 -2.4888675 0.0014283644)
(-0.0001034595 -2.4888057 0.0014283378)
(0.00011214332 -2.4888354 0.0014283504)
(-0.00011214332 -2.4888354 0.0014283504)
(0.0001034595 -2.4888057 0.0014283378)
(-0.00012754338 -2.4888675 0.0014283644)
(0.0001015196 -2.4887734 0.0014283236)
(-0.00015045008 -2.488908 0.0014283852)
(0.00010748791 -2.4887324 0.001428297)
(-0.00018255109 -2.4889678 0.0014284656)
(0.00012526451 -2.4886701 0.0014281062)
(-0.00022804804 -2.4890678 0.0014294755)
(0.00016658265 -2.4833114 0.001422682)
(-0.00091671499 0.53789954 -0.00060468581)
(4.7596519e-05 0.53864083 -0.00060759797)
(-0.0001076133 0.53880973 -0.00060711281)
(1.0033495e-05 0.53880134 -0.0006072118)
(-3.1108748e-05 0.53881021 -0.00060715336)
(7.0976988e-06 0.53882104 -0.00060717084)
(-1.7316803e-05 0.53881478 -0.00060716291)
(8.2353968e-06 0.53882447 -0.00060717316)
(-1.2705518e-05 0.53881944 -0.00060716861)
(1.0147212e-05 0.53882307 -0.00060717223)
(-1.014721e-05 0.53882307 -0.00060717223)
(1.2705519e-05 0.53881944 -0.00060716861)
(-8.2353969e-06 0.53882447 -0.00060717316)
(1.7316802e-05 0.53881478 -0.00060716291)
(-7.0976999e-06 0.53882104 -0.00060717084)
(3.1108746e-05 0.53881021 -0.00060715336)
(-1.0033495e-05 0.53880134 -0.0006072118)
(0.0001076133 0.53880973 -0.00060711281)
(-4.7596517e-05 0.53864083 -0.00060759797)
(0.00091671499 0.53789954 -0.00060468581)
(0.0001580795 -0.66099097 -0.00016031062)
(2.0042553e-05 -0.66254579 -0.00016084207)
(-3.5658707e-05 -0.66239799 -0.00016079284)
(1.0268305e-05 -0.66242969 -0.00016082552)
(-2.2093109e-05 -0.66241092 -0.00016084674)
(9.2497705e-06 -0.66242787 -0.00016085203)
(-1.5746151e-05 -0.66241724 -0.00016085098)
(1.046065e-05 -0.66242861 -0.00016085305)
(-1.340021e-05 -0.66242249 -0.00016085231)
(1.1891609e-05 -0.66242654 -0.00016085299)
(-1.1891607e-05 -0.66242654 -0.00016085299)
(1.3400212e-05 -0.66242249 -0.00016085231)
(-1.046065e-05 -0.66242861 -0.00016085305)
(1.574615e-05 -0.66241724 -0.00016085098)
(-9.2497722e-06 -0.66242787 -0.00016085203)
(2.2093108e-05 -0.66241092 -0.00016084674)
(-1.0268303e-05 -0.66242969 -0.00016082552)
(3.5658705e-05 -0.66239799 -0.00016079284)
(-2.0042547e-05 -0.66254579 -0.00016084207)
(-0.0001580795 -0.66099097 -0.00016031062)
(0.00010274228 0.74030132 -0.00010639242)
(-2.7629233e-06 0.7415714 -0.00010659349)
(-5.3087395e-05 0.74166626 -0.00010661098)
(2.3990096e-06 0.74165118 -0.00010659639)
(-3.1312697e-05 0.74166447 -0.00010665608)
(2.9859502e-06 0.74167873 -0.00010665506)
(-1.7997787e-05 0.74167038 -0.00010665915)
(4.7977204e-06 0.74168464 -0.00010666181)
(-1.1404186e-05 0.74167722 -0.00010666093)
(7.507893e-06 0.74168264 -0.00010666218)
(-7.5078926e-06 0.74168264 -0.00010666218)
(1.1404186e-05 0.74167722 -0.00010666093)
(-4.7977207e-06 0.74168464 -0.00010666181)
(1.7997785e-05 0.74167038 -0.00010665915)
(-2.9859521e-06 0.74167873 -0.00010665506)
(3.1312695e-05 0.74166447 -0.00010665607)
(-2.3990096e-06 0.74165118 -0.00010659639)
(5.3087394e-05 0.74166626 -0.00010661098)
(2.7629266e-06 0.7415714 -0.00010659349)
(-0.00010274228 0.74030132 -0.00010639243)
(9.529458e-05 -0.91656293 -1.5201549e-05)
(1.4504554e-06 -0.91852044 -1.5210979e-05)
(2.225946e-05 -0.91842873 -1.5212557e-05)
(1.0092461e-05 -0.91848192 -1.5233126e-05)
(-2.4021385e-06 -0.91844242 -1.5189785e-05)
(1.4242446e-05 -0.91847224 -1.5192919e-05)
(-1.1497638e-05 -0.91845131 -1.5189533e-05)
(1.5989169e-05 -0.91846868 -1.5188668e-05)
(-1.5102743e-05 -0.9184585 -1.5189037e-05)
(1.6256328e-05 -0.91846436 -1.5188507e-05)
(-1.6256326e-05 -0.91846436 -1.5188507e-05)
(1.5102746e-05 -0.9184585 -1.5189038e-05)
(-1.5989167e-05 -0.91846868 -1.5188668e-05)
(1.1497639e-05 -0.91845131 -1.5189532e-05)
(-1.4242447e-05 -0.91847224 -1.5192918e-05)
(2.4021399e-06 -0.91844242 -1.5189785e-05)
(-1.0092464e-05 -0.91848192 -1.5233126e-05)
(-2.2259458e-05 -0.91842873 -1.5212556e-05)
(-1.4504585e-06 -0.91852044 -1.5210977e-05)
(-9.5294578e-05 -0.91656293 -1.520155e-05)
(1.8298441e-05 1.0451947 -1.0995694e-05)
(-2.2804353e-05 1.0472414 -1.1014476e-05)
(-3.5279711e-05 1.0472261 -1.101714e-05)
(-9.5063205e-06 1.0472623 -1.1007857e-05)
(-2.8888667e-05 1.0472338 -1.1018546e-05)
(-5.7772963e-06 1.0472712 -1.1018329e-05)
(-1.6420326e-05 1.0472453 -1.1019403e-05)
(-2.6574881e-06 1.0472707 -1.1021033e-05)
(-7.4693271e-06 1.0472561 -1.1020395e-05)
(1.5068304e-06 1.047265 -1.1021113e-05)
(-1.506831e-06 1.047265 -1.1021113e-05)
(7.4693261e-06 1.0472561 -1.1020395e-05)
(2.6574867e-06 1.0472707 -1.1021033e-05)
(1.6420324e-05 1.0472453 -1.1019402e-05)
(5.7772949e-06 1.0472712 -1.1018324e-05)
(2.8888665e-05 1.0472338 -1.1018544e-05)
(9.5063175e-06 1.0472623 -1.1007857e-05)
(3.5279709e-05 1.0472261 -1.1017145e-05)
(2.2804356e-05 1.0472414 -1.1014476e-05)
(-1.8298441e-05 1.0451947 -1.0995698e-05)
(0.00010673264 -1.27808 -5.8527916e-06)
(-1.4679422e-06 -1.2807523 -5.7379789e-06)
(5.1170577e-05 -1.2806806 -5.7643379e-06)
(2.0135291e-05 -1.2807476 -5.756745e-06)
(1.0329351e-05 -1.2806894 -5.7570082e-06)
(2.8039594e-05 -1.2807368 -5.7530731e-06)
(-1.1207372e-05 -1.2807002 -5.7554154e-06)
(2.9043719e-05 -1.280728 -5.7526243e-06)
(-2.1682711e-05 -1.2807103 -5.7542418e-06)
(2.6803725e-05 -1.2807195 -5.7532795e-06)
(-2.6803721e-05 -1.2807195 -5.7532803e-06)
(2.1682714e-05 -1.2807103 -5.7542423e-06)
(-2.9043716e-05 -1.280728 -5.7526247e-06)
(1.1207374e-05 -1.2807002 -5.7554156e-06)
(-2.8039591e-05 -1.2807368 -5.7530731e-06)
(-1.0329353e-05 -1.2806894 -5.7570076e-06)
(-2.0135289e-05 -1.2807476 -5.7567447e-06)
(-5.117058e-05 -1.2806806 -5.7643378e-06)
(1.4679421e-06 -1.2807523 -5.7379785e-06)
(-0.00010673264 -1.27808 -5.8527915e-06)
(-5.5362543e-05 1.4737344 3.0378322e-06)
(-1.9491476e-05 1.4768053 2.9699439e-06)
(-4.31469e-05 1.476687 2.9949948e-06)
(-2.3368701e-05 1.4768073 2.9878999e-06)
(-2.4821034e-05 1.4767076 2.9926761e-06)
(-2.2535714e-05 1.476792 2.9880715e-06)
(-8.4206015e-06 1.4767288 2.991126e-06)
(-1.8575872e-05 1.476777 2.9885527e-06)
(3.6747569e-06 1.4767469 2.9899805e-06)
(-1.233963e-05 1.4767625 2.9891892e-06)
(1.2339631e-05 1.4767625 2.9891894e-06)
(-3.6747593e-06 1.4767469 2.9899808e-06)
(1.8575878e-05 1.476777 2.9885531e-06)
(8.4205978e-06 1.4767288 2.9911267e-06)
(2.2535715e-05 1.476792 2.9880724e-06)
(2.4821033e-05 1.4767076 2.9926768e-06)
(2.3368699e-05 1.4768073 2.9878998e-06)
(4.3146902e-05 1.476687 2.9949942e-06)
(1.9491477e-05 1.4768053 2.9699437e-06)
(5.5362543e-05 1.4737344 3.0378324e-06)
(0.00026994686 -1.7820383 -4.6172936e-05)
(-2.1582119e-06 -1.785841 -4.6157007e-05)
(6.7248383e-05 -1.7857313 -4.6092747e-05)
(5.330073e-05 -1.785842 -4.6129159e-05)
(-2.8762029e-06 -1.785744 -4.6100074e-05)
(6.3028808e-05 -1.7858261 -4.6116847e-05)
(-3.062879e-05 -1.7857606 -4.6105168e-05)
(5.9660093e-05 -1.785809 -4.6112201e-05)
(-4.4111053e-05 -1.785777 -4.6107839e-05)
(5.2831662e-05 -1.7857929 -4.6109811e-05)
(-5.2831666e-05 -1.7857929 -4.6109803e-05)
(4.411105e-05 -1.785777 -4.6107846e-05)
(-5.9660094e-05 -1.785809 -4.6112201e-05)
(3.0628788e-05 -1.7857606 -4.6105171e-05)
(-6.3028811e-05 -1.7858261 -4.6116845e-05)
(2.8762026e-06 -1.785744 -4.6100072e-05)
(-5.3300735e-05 -1.785842 -4.6129157e-05)
(-6.7248382e-05 -1.7857313 -4.6092745e-05)
(2.1582084e-06 -1.785841 -4.6157006e-05)
(-0.00026994686 -1.7820383 -4.6172932e-05)
(-0.00022382621 2.0677775 3.3604149e-05)
(-3.0743617e-06 2.0725518 3.3562777e-05)
(-6.8595504e-05 2.0721514 3.3522291e-05)
(-5.1104135e-05 2.072432 3.3551186e-05)
(-8.8435184e-06 2.0722156 3.352688e-05)
(-5.951644e-05 2.0723711 3.3542511e-05)
(1.8525431e-05 2.0722545 3.3531554e-05)
(-5.4745417e-05 2.0723348 3.3538746e-05)
(3.4326121e-05 2.0722829 3.3534335e-05)
(-4.5725895e-05 2.0723079 3.3536451e-05)
(4.5725896e-05 2.0723079 3.3536451e-05)
(-3.4326119e-05 2.0722829 3.3534335e-05)
(5.4745418e-05 2.0723348 3.3538746e-05)
(-1.8525427e-05 2.0722545 3.3531553e-05)
(5.9516441e-05 2.0723711 3.3542511e-05)
(8.8435219e-06 2.0722156 3.352688e-05)
(5.1104137e-05 2.072432 3.355118e-05)
(6.8595508e-05 2.0721514 3.3522291e-05)
(3.0743632e-06 2.0725518 3.3562777e-05)
(0.00022382621 2.0677775 3.3604149e-05)
(-0.00016658265 -2.4833114 -0.001422682)
(0.00022804804 -2.4890678 -0.0014294755)
(-0.00012526451 -2.4886701 -0.0014281062)
(0.00018255109 -2.4889678 -0.0014284657)
(-0.00010748791 -2.4887324 -0.001428297)
(0.00015045008 -2.488908 -0.0014283852)
(-0.0001015196 -2.4887734 -0.0014283236)
(0.00012754338 -2.4888675 -0.0014283644)
(-0.0001034595 -2.4888057 -0.0014283378)
(0.00011214332 -2.4888354 -0.0014283504)
(-0.00011214332 -2.4888354 -0.0014283504)
(0.0001034595 -2.4888057 -0.0014283378)
(-0.00012754338 -2.4888675 -0.0014283644)
(0.0001015196 -2.4887734 -0.0014283236)
(-0.00015045008 -2.488908 -0.0014283852)
(0.00010748791 -2.4887324 -0.001428297)
(-0.00018255109 -2.4889678 -0.0014284656)
(0.00012526451 -2.4886701 -0.0014281062)
(-0.00022804804 -2.4890678 -0.0014294755)
(0.00016658265 -2.4833114 -0.001422682)
(-0.00090514249 0.53454787 0.0016950181)
(4.6665432e-05 0.53528368 0.0016987341)
(-0.00010673036 0.53545065 0.0016998953)
(1.0012986e-05 0.53544241 0.0016997564)
(-3.088282e-05 0.5354511 0.0016998683)
(7.081072e-06 0.53546188 0.0016998832)
(-1.720853e-05 0.53545564 0.0016998793)
(8.2008968e-06 0.53546527 0.0016998992)
(-1.2631617e-05 0.53546027 0.001699891)
(1.0094224e-05 0.53546387 0.0016998987)
(-1.0094222e-05 0.53546387 0.0016998987)
(1.2631618e-05 0.53546027 0.001699891)
(-8.2008969e-06 0.53546527 0.0016998992)
(1.7208524e-05 0.53545564 0.0016998793)
(-7.0810692e-06 0.53546188 0.0016998832)
(3.0882817e-05 0.5354511 0.0016998683)
(-1.0012986e-05 0.53544241 0.0016997564)
(0.00010673036 0.53545065 0.0016998953)
(-4.666543e-05 0.53528368 0.0016987341)
(0.00090514249 0.53454787 0.0016950181)
(0.00015686556 -0.65530625 -0.00017793444)
(1.9859433e-05 -0.65684176 -0.00017871868)
(-3.5431574e-05 -0.65669535 -0.00017866079)
(1.0225202e-05 -0.65672681 -0.00017870243)
(-2.196674e-05 -0.65670795 -0.00017871616)
(9.2177394e-06 -0.65672478 -0.00017872641)
(-1.5651313e-05 -0.65671421 -0.00017872152)
(1.0413293e-05 -0.6567255 -0.00017872616)
(-1.3324929e-05 -0.65671942 -0.00017872371)
(1.1830181e-05 -0.65672345 -0.00017872521)
(-1.1830179e-05 -0.65672345 -0.00017872521)
(1.332493e-05 -0.65671942 -0.00017872371)
(-1.0413292e-05 -0.6567255 -0.00017872616)
(1.5651312e-05 -0.65671421 -0.00017872152)
(-9.2177411e-06 -0.65672478 -0.00017872641)
(2.1966738e-05 -0.65670795 -0.00017871616)
(-1.02252e-05 -0.65672681 -0.00017870243)
(3.5431572e-05 -0.65669535 -0.00017866079)
(-1.9859428e-05 -0.65684176 -0.00017871868)
(-0.00015686556 -0.65530625 -0.00017793444)
(0.0001023989 0.73488269 -5.5292876e-05)
(-2.6904426e-06 0.73613821 -5.5383548e-05)
(-5.2709834e-05 0.73623275 -5.5440866e-05)
(2.4239515e-06 0.73621772 -5.5423487e-05)
(-3.1127133e-05 0.73623071 -5.5485918e-05)
(3.0030758e-06 0.73624487 -5.5487967e-05)
(-1.7882631e-05 0.73623657 -5.5490304e-05)
(4.7889282e-06 0.73625074 -5.5495338e-05)
(-1.1336275e-05 0.73624336 -5.549316e-05)
(7.4720766e-06 0.73624874 -5.549522e-05)
(-7.4720762e-06 0.73624874 -5.5495219e-05)
(1.1336275e-05 0.73624336 -5.549316e-05)
(-4.7889284e-06 0.73625074 -5.5495337e-05)
(1.788263e-05 0.73623657 -5.5490302e-05)
(-3.0030783e-06 0.73624487 -5.5487967e-05)
(3.112713e-05 0.73623071 -5.5485919e-05)
(-2.4239511e-06 0.73621772 -5.5423487e-05)
(5.2709832e-05 0.73623275 -5.5440866e-05)
(2.6904452e-06 0.73613821 -5.5383548e-05)
(-0.0001023989 0.73488269 -5.5292872e-05)
(9.441908e-05 -0.90922125 -7.4759376e-05)
(1.4328261e-06 -0.91115599 -7.5152421e-05)
(2.2104014e-05 -0.91106478 -7.5113025e-05)
(1.0049033e-05 -0.91111769 -7.5148509e-05)
(-2.374505e-06 -0.91107838 -7.5092359e-05)
(1.4165266e-05 -0.91110804 -7.5099772e-05)
(-1.1434338e-05 -0.91108721 -7.5092479e-05)
(1.5902394e-05 -0.91110448 -7.5092972e-05)
(-1.5021271e-05 -0.91109436 -7.5092145e-05)
(1.6168562e-05 -0.91110018 -7.5091954e-05)
(-1.616856e-05 -0.91110018 -7.5091955e-05)
(1.5021274e-05 -0.91109436 -7.5092145e-05)
(-1.5902392e-05 -0.91110448 -7.5092972e-05)
(1.1434339e-05 -0.91108721 -7.5092479e-05)
(-1.4165268e-05 -0.91110804 -7.5099774e-05)
(2.374508e-06 -0.91107838 -7.509236e-05)
(-1.0049036e-05 -0.91111769 -7.5148509e-05)
(-2.2104013e-05 -0.91106478 -7.5113025e-05)
(-1.4328292e-06 -0.91115599 -7.5152423e-05)
(-9.4419078e-05 -0.90922125 -7.4759375e-05)
(1.8564302e-05 1.0371446 4.8688445e-05)
(-2.2610577e-05 1.039168 4.8886208e-05)
(-3.4993875e-05 1.0391528 4.8869324e-05)
(-9.3914315e-06 1.0391888 4.8878263e-05)
(-2.8680996e-05 1.0391604 4.8866247e-05)
(-5.7015868e-06 1.0391976 4.8862928e-05)
(-1.6302701e-05 1.0391718 4.8863273e-05)
(-2.6184498e-06 1.0391971 4.8859249e-05)
(-7.4186136e-06 1.0391826 4.8860868e-05)
(1.5054307e-06 1.0391913 4.8859375e-05)
(-1.5054314e-06 1.0391913 4.8859375e-05)
(7.4186126e-06 1.0391826 4.8860868e-05)
(2.6184484e-06 1.0391971 4.8859249e-05)
(1.6302699e-05 1.0391718 4.8863273e-05)
(5.7015848e-06 1.0391976 4.8862923e-05)
(2.8680993e-05 1.0391604 4.8866246e-05)
(9.3914293e-06 1.0391888 4.8878263e-05)
(3.4993873e-05 1.0391528 4.8869329e-05)
(2.2610578e-05 1.039168 4.8886208e-05)
(-1.8564302e-05 1.0371446 4.8688448e-05)
(0.00010579106 -1.2677791 -6.9873664e-05)
(-1.4754337e-06 -1.2704196 -7.0143149e-05)
(5.0808985e-05 -1.2703483 -7.0164922e-05)
(1.9981055e-05 -1.2704149 -7.0157785e-05)
(1.0239013e-05 -1.2703571 -7.0153735e-05)
(2.7855411e-05 -1.2704042 -7.015141e-05)
(-1.1163659e-05 -1.2703678 -7.0150654e-05)