/*--------------------------------*- C++ -*----------------------------------*\
  =========                 |
  \\      /  F ield         | OpenFOAM: The Open Source CFD Toolbox
   \\    /   O peration     | Website:  https://openfoam.org
    \\  /    A nd           | Version:  8
     \\/     M anipulation  |
\*---------------------------------------------------------------------------*/
FoamFile
{
    version     2.0;
    format      ascii;
    class       volScalarField;
    location    "0.4";
    object      N;
}
// * * * * * * * * * * * * * * * * * * * * * * * * * * * * * * * * * * * * * //

dimensions      [0 -3 0 0 0 0 0];

internalField   nonuniform List<scalar> 
200
(
14116620
0.10137052
0.10035391
0.10007268
0.10001208
0.10000146
0.099999903
0.099999708
0.099999687
0.099999684
0.099999684
0.099999684
0.099999684
0.099999685
0.099999685
0.099999685
0.099999685
0.099999685
0.099999685
0.099999685
0.099999686
0.099999686
0.099999686
0.099999686
0.099999686
0.099999686
0.099999687
0.099999687
0.099999687
0.099999688
0.099999688
0.099999688
0.099999688
0.099999689
0.099999689
0.099999689
0.09999969
0.09999969
0.09999969
0.099999691
0.099999691
0.099999692
0.099999692
0.099999692
0.099999693
0.099999693
0.099999694
0.099999694
0.099999695
0.099999695
0.099999696
0.099999696
0.099999697
0.099999697
0.099999697
0.099999698
0.099999698
0.099999699
0.0999997
0.0999997
0.099999701
0.099999701
0.099999702
0.099999702
0.099999703
0.099999704
0.099999704
0.099999705
0.099999705
0.099999706
0.099999707
0.099999707
0.099999708
0.099999709
0.09999971
0.09999971
0.099999711
0.099999712
0.099999713
0.099999714
0.099999715
0.099999716
0.099999717
0.099999718
0.099999719
0.09999972
0.099999721
0.099999722
0.099999723
0.099999724
0.099999725
0.099999726
0.099999728
0.099999729
0.09999973
0.099999731
0.099999732
0.099999734
0.099999735
0.099999736
0.099999738
0.099999739
0.09999974
0.099999742
0.099999743
0.099999744
0.099999746
0.099999747
0.099999748
0.09999975
0.099999751
0.099999753
0.099999754
0.099999756
0.099999757
0.099999759
0.09999976
0.099999762
0.099999764
0.099999765
0.099999767
0.099999768
0.09999977
0.099999772
0.099999773
0.099999775
0.099999777
0.099999779
0.09999978
0.099999782
0.099999784
0.099999785
0.099999788
0.099999789
0.099999792
0.099999792
0.099999796
0.099999795
0.099999801
0.099999798
0.099999805
0.099999801
0.099999811
0.099999803
0.099999817
0.099999804
0.099999823
0.099999805
0.099999831
0.099999806
0.099999838
0.099999806
0.099999847
0.099999805
0.099999856
0.099999804
0.099999866
0.099999802
0.099999876
0.0999998
0.099999887
0.099999797
0.099999899
0.099999794
0.099999911
0.099999791
0.099999923
0.099999787
0.099999936
0.099999782
0.09999995
0.099999777
0.099999964
0.099999771
0.099999979
0.099999764
0.099999996
0.099999755
0.10000002
0.099999743
0.10000004
0.099999725
0.10000007
0.099999699
0.10000011
0.099999662
0.10000017
0.09999961
0.10000024
0.099999539
0.10000033
0.099999445
0.10000044
0.099999325
0.10000059
0.099999179
0.10000078
0.099998979
0.10000096
0.099998747
)
;

boundaryField
{
    left
    {
        type            zeroGradient;
    }
    right
    {
        type            zeroGradient;
    }
    walls
    {
        type            zeroGradient;
    }
    centreline
    {
        type            zeroGradient;
    }
    frontAndBack
    {
        type            zeroGradient;
    }
}


// ************************************************************************* //
