/*--------------------------------*- C++ -*----------------------------------*\
  =========                 |
  \\      /  F ield         | OpenFOAM: The Open Source CFD Toolbox
   \\    /   O peration     | Website:  https://openfoam.org
    \\  /    A nd           | Version:  8
     \\/     M anipulation  |
\*---------------------------------------------------------------------------*/
FoamFile
{
    version     2.0;
    format      ascii;
    class       volScalarField;
    location    "0.4";
    object      p;
}
// * * * * * * * * * * * * * * * * * * * * * * * * * * * * * * * * * * * * * //

dimensions      [1 -1 -2 0 0 0 0];

internalField   nonuniform List<scalar> 
200
(
4246.9849
4246.9849
4246.9849
4246.9849
4246.9849
4246.9849
4246.9849
4246.9849
4246.9849
4246.9849
4246.985
4246.985
4246.985
4246.985
4246.985
4246.985
4246.985
4246.985
4246.985
4246.985
4246.985
4246.985
4246.985
4246.985
4246.985
4246.9851
4246.9851
4246.9851
4246.9851
4246.9851
4246.9851
4246.9851
4246.9851
4246.9852
4246.9852
4246.9852
4246.9852
4246.9852
4246.9852
4246.9853
4246.9853
4246.9853
4246.9853
4246.9853
4246.9854
4246.9854
4246.9854
4246.9854
4246.9854
4246.9855
4246.9855
4246.9855
4246.9855
4246.9855
4246.9856
4246.9856
4246.9856
4246.9856
4246.9857
4246.9857
4246.9857
4246.9857
4246.9858
4246.9858
4246.9858
4246.9859
4246.9859
4246.9859
4246.9859
4246.986
4246.986
4246.986
4246.9861
4246.9861
4246.9861
4246.9862
4246.9862
4246.9863
4246.9863
4246.9863
4246.9864
4246.9864
4246.9865
4246.9865
4246.9866
4246.9866
4246.9867
4246.9867
4246.9868
4246.9868
4246.9869
4246.9869
4246.987
4246.9871
4246.9871
4246.9872
4246.9872
4246.9873
4246.9873
4246.9874
4246.9875
4246.9875
4246.9876
4246.9877
4246.9877
4246.9878
4246.9879
4246.9879
4246.988
4246.9881
4246.9881
4246.9882
4246.9883
4246.9883
4246.9884
4246.9885
4246.9886
4246.9886
4246.9887
4246.9888
4246.9889
4246.9889
4246.989
4246.9891
4246.9892
4246.9893
4246.9893
4246.9894
4246.9895
4246.9896
4246.9897
4246.9897
4246.9899
4246.9899
4246.99
4246.9901
4246.9902
4246.9902
4246.9905
4246.9903
4246.9907
4246.9905
4246.991
4246.9906
4246.9912
4246.9906
4246.9916
4246.9907
4246.9919
4246.9907
4246.9923
4246.9907
4246.9927
4246.9907
4246.9931
4246.9906
4246.9936
4246.9905
4246.9941
4246.9904
4246.9946
4246.9903
4246.9952
4246.9901
4246.9958
4246.9899
4246.9964
4246.9897
4246.997
4246.9895
4246.9977
4246.9893
4246.9984
4246.989
4246.9991
4246.9886
4246.9999
4246.9881
4247.0009
4246.9875
4247.0021
4246.9866
4247.0036
4246.9853
4247.0057
4246.9834
4247.0083
4246.9808
4247.0118
4246.9773
4247.0164
4246.9726
4247.0221
4246.9667
4247.0292
4246.9593
4247.0372
4246.951
4247.0483
4246.9397
)
;

boundaryField
{
    left
    {
        type            zeroGradient;
    }
    right
    {
        type            zeroGradient;
    }
    walls
    {
        type            zeroGradient;
    }
    centreline
    {
        type            fixedValue;
        value           uniform 4247;
    }
    frontAndBack
    {
        type            zeroGradient;
    }
}


// ************************************************************************* //
