/*--------------------------------*- C++ -*----------------------------------*\
  =========                 |
  \\      /  F ield         | OpenFOAM: The Open Source CFD Toolbox
   \\    /   O peration     | Website:  https://openfoam.org
    \\  /    A nd           | Version:  8
     \\/     M anipulation  |
\*---------------------------------------------------------------------------*/
FoamFile
{
    version     2.0;
    format      ascii;
    class       surfaceScalarField;
    location    "0.4";
    object      phi;
}
// * * * * * * * * * * * * * * * * * * * * * * * * * * * * * * * * * * * * * //

dimensions      [1 0 -1 0 0 0 0];

internalField   nonuniform List<scalar> 
199
(
-0.00013772731
-0.00025969832
-0.00031414101
-0.00033096639
-0.00033534569
-0.00033675506
-0.00033761304
-0.00033839087
-0.00033916289
-0.00033993895
-0.00034072022
-0.00034150682
-0.0003422988
-0.00034309615
-0.00034389886
-0.00034470692
-0.00034552028
-0.0003463389
-0.00034716271
-0.00034799166
-0.00034882567
-0.00034966467
-0.00035050856
-0.00035135725
-0.00035221062
-0.00035306857
-0.00035393094
-0.00035479761
-0.00035566839
-0.00035654313
-0.00035742163
-0.0003583037
-0.00035918915
-0.00036007775
-0.00036096931
-0.00036186359
-0.00036276038
-0.00036365946
-0.00036456059
-0.00036546357
-0.00036636817
-0.00036727417
-0.00036818136
-0.00036908955
-0.00036999853
-0.00037090813
-0.00037181816
-0.00037272848
-0.00037363895
-0.00037454945
-0.00037545986
-0.00037637012
-0.00037728015
-0.00037818992
-0.00037909943
-0.00038000867
-0.00038091768
-0.00038182652
-0.00038273528
-0.00038364406
-0.00038455299
-0.00038546223
-0.00038637193
-0.00038728229
-0.0003881935
-0.00038910576
-0.00039001929
-0.00039093429
-0.00039185098
-0.00039276953
-0.00039369015
-0.00039461298
-0.00039553817
-0.00039646581
-0.00039739598
-0.00039832871
-0.00039926398
-0.00040020173
-0.00040114184
-0.00040208415
-0.00040302842
-0.00040397438
-0.00040492169
-0.00040586996
-0.00040681877
-0.00040776763
-0.00040871602
-0.00040966339
-0.00041060917
-0.00041155278
-0.00041249361
-0.00041343109
-0.00041436462
-0.00041529366
-0.00041621767
-0.00041713617
-0.00041804871
-0.0004189549
-0.00041985437
-0.00042074686
-0.0004216321
-0.00042250991
-0.00042338015
-0.00042424273
-0.00042509757
-0.00042594466
-0.00042678398
-0.00042761555
-0.00042843938
-0.0004292555
-0.00043006394
-0.0004308647
-0.00043165781
-0.00043244325
-0.00043322101
-0.00043399107
-0.00043475339
-0.00043550793
-0.00043625464
-0.00043699346
-0.00043772434
-0.0004384472
-0.00043916204
-0.00043986871
-0.00044056727
-0.00044125752
-0.00044193959
-0.00044261317
-0.00044327854
-0.0004439352
-0.00044458367
-0.00044522315
-0.00044585452
-0.00044647659
-0.00044709072
-0.00044769523
-0.00044829196
-0.00044887898
-0.00044945814
-0.00045002803
-0.00045058935
-0.00045114279
-0.00045168588
-0.00045222389
-0.00045274817
-0.00045327197
-0.00045377667
-0.00045428758
-0.00045477175
-0.00045527107
-0.00045573357
-0.00045622255
-0.00045666205
-0.00045714189
-0.00045755697
-0.00045802884
-0.00045841805
-0.00045888318
-0.00045924515
-0.00045970485
-0.00046003843
-0.00046049404
-0.00046079846
-0.00046125119
-0.00046152618
-0.0004619768
-0.00046222292
-0.00046267122
-0.00046289023
-0.00046333428
-0.00046352982
-0.0004639649
-0.00046414352
-0.00046456079
-0.00046473332
-0.00046511816
-0.00046530152
-0.00046563183
-0.00046585062
-0.00046609564
-0.00046638292
-0.00046650364
-0.00046689956
-0.00046685173
-0.0004673991
-0.00046713939
-0.00046787656
-0.00046737044
-0.00046832334
-0.00046755263
-0.00046872838
-0.00046769318
-0.00046904914
-0.00046796186
-0.00047178766
-0.00046552659
-0.00042408319
-0.00046675267
-0.00049357564
)
;

boundaryField
{
    left
    {
        type            calculated;
        value           uniform 0;
    }
    right
    {
        type            calculated;
        value           uniform 0;
    }
    walls
    {
        type            calculated;
        value           uniform 0;
    }
    centreline
    {
        type            calculated;
        value           uniform -0.00047067212;
    }
    frontAndBack
    {
        type            calculated;
        value           uniform 0;
    }
}


// ************************************************************************* //
