/*--------------------------------*- C++ -*----------------------------------*\
  =========                 |
  \\      /  F ield         | OpenFOAM: The Open Source CFD Toolbox
   \\    /   O peration     | Website:  https://openfoam.org
    \\  /    A nd           | Version:  8
     \\/     M anipulation  |
\*---------------------------------------------------------------------------*/
FoamFile
{
    version     2.0;
    format      ascii;
    class       volVectorField;
    location    "0.4";
    object      U;
}
// * * * * * * * * * * * * * * * * * * * * * * * * * * * * * * * * * * * * * //

dimensions      [0 1 -1 0 0 0 0];

internalField   nonuniform List<vector> 
200
(
(0 -0.00039270724 0)
(0 -0.0016547904 0)
(0 -0.0025162901 0)
(0 -0.002664529 0)
(0 -0.002772378 0)
(0 -0.0027572038 0)
(0 -0.0027838402 0)
(0 -0.0027785387 0)
(0 -0.0027921782 0)
(0 -0.0027940059 0)
(0 -0.0028032506 0)
(0 -0.0028079314 0)
(0 -0.0028155435 0)
(0 -0.0028213858 0)
(0 -0.0028284156 0)
(0 -0.0028347673 0)
(0 -0.0028416204 0)
(0 -0.0028482266 0)
(0 -0.0028550608 0)
(0 -0.0028618197 0)
(0 -0.002868696 0)
(0 -0.0028755656 0)
(0 -0.0028825069 0)
(0 -0.0028894685 0)
(0 -0.0028964819 0)
(0 -0.0029035254 0)
(0 -0.0029106113 0)
(0 -0.0029177299 0)
(0 -0.0029248853 0)
(0 -0.0029320727 0)
(0 -0.0029392929 0)
(0 -0.0029465428 0)
(0 -0.0029538217 0)
(0 -0.0029611274 0)
(0 -0.0029684585 0)
(0 -0.0029758129 0)
(0 -0.002983189 0)
(0 -0.0029905848 0)
(0 -0.0029979986 0)
(0 -0.0030054285 0)
(0 -0.0030128727 0)
(0 -0.0030203293 0)
(0 -0.0030277965 0)
(0 -0.0030352728 0)
(0 -0.0030427564 0)
(0 -0.0030502457 0)
(0 -0.0030577394 0)
(0 -0.0030652359 0)
(0 -0.0030727341 0)
(0 -0.0030802329 0)
(0 -0.0030877314 0)
(0 -0.0030952287 0)
(0 -0.0031027244 0)
(0 -0.0031102178 0)
(0 -0.0031177089 0)
(0 -0.0031251976 0)
(0 -0.003132684 0)
(0 -0.0031401686 0)
(0 -0.0031476519 0)
(0 -0.0031551347 0)
(0 -0.003162618 0)
(0 -0.0031701028 0)
(0 -0.0031775907 0)
(0 -0.0031850829 0)
(0 -0.003192581 0)
(0 -0.0032000868 0)
(0 -0.0032076019 0)
(0 -0.0032151282 0)
(0 -0.0032226672 0)
(0 -0.0032302207 0)
(0 -0.0032377903 0)
(0 -0.0032453775 0)
(0 -0.0032529834 0)
(0 -0.0032606091 0)
(0 -0.0032682554 0)
(0 -0.0032759227 0)
(0 -0.0032836112 0)
(0 -0.0032913204 0)
(0 -0.0032990498 0)
(0 -0.0033067982 0)
(0 -0.003314564 0)
(0 -0.0033223452 0)
(0 -0.0033301391 0)
(0 -0.003337943 0)
(0 -0.0033457534 0)
(0 -0.0033535665 0)
(0 -0.0033613783 0)
(0 -0.0033691843 0)
(0 -0.0033769799 0)
(0 -0.0033847602 0)
(0 -0.0033925204 0)
(0 -0.0034002556 0)
(0 -0.0034079608 0)
(0 -0.0034156315 0)
(0 -0.0034232629 0)
(0 -0.0034308511 0)
(0 -0.0034383918 0)
(0 -0.0034458819 0)
(0 -0.0034533177 0)
(0 -0.0034606974 0)
(0 -0.0034680174 0)
(0 -0.0034752781 0)
(0 -0.0034824746 0)
(0 -0.0034896115 0)
(0 -0.0034966791 0)
(0 -0.0035036916 0)
(0 -0.0035106257 0)
(0 -0.0035175178 0)
(0 -0.0035243114 0)
(0 -0.0035310948 0)
(0 -0.0035377318 0)
(0 -0.003544433 0)
(0 -0.0035508755 0)
(0 -0.0035575529 0)
(0 -0.0035637146 0)
(0 -0.0035704969 0)
(0 -0.0035761869 0)
(0 -0.0035833528 0)
(0 -0.003588161 0)
(0 -0.003596304 0)
(0 -0.0035993677 0)
(0 -0.0036097253 0)
(0 -0.0036092691 0)
(0 -0.0036243612 0)
(0 -0.0036168205 0)
(0 -0.0036416456 0)
(0 -0.0036200475 0)
(0 -0.0036642516 0)
(0 -0.0036153426 0)
(0 -0.0036969774 0)
(0 -0.0035963753 0)
(0 -0.0037480489 0)
(0 -0.0035525892 0)
(0 -0.0038307677 0)
(0 -0.0034675273 0)
(0 -0.003965027 0)
(0 -0.0033177341 0)
(0 -0.0041777002 0)
(0 -0.0030733383 0)
(0 -0.0045009515 0)
(0 -0.0027007909 0)
(0 -0.0049687273 0)
(0 -0.0021667106 0)
(0 -0.0056130498 0)
(0 -0.0014410501 0)
(0 -0.006461628 0)
(0 -0.00049863841 0)
(0 -0.007537088 0)
(0 0.00068067537 0)
(0 -0.0088572729 0)
(0 0.0021126043 0)
(0 -0.010435973 0)
(0 0.0038092047 0)
(0 -0.012283687 0)
(0 0.0057795818 0)
(0 -0.014408254 0)
(0 0.0080304286 0)
(0 -0.016815307 0)
(0 0.010566402 0)
(0 -0.019508581 0)
(0 0.013390378 0)
(0 -0.022490149 0)
(0 0.016503672 0)
(0 -0.025760642 0)
(0 0.019906295 0)
(0 -0.029319583 0)
(0 0.023597398 0)
(0 -0.033165965 0)
(0 0.02757603 0)
(0 -0.037299243 0)
(0 0.031842429 0)
(0 -0.041720981 0)
(0 0.036400108 0)
(0 -0.046437432 0)
(0 0.041258994 0)
(0 -0.051463317 0)
(0 0.046439886 0)
(0 -0.056826922 0)
(0 0.051980121 0)
(0 -0.06257619 0)
(0 0.057939776 0)
(0 -0.068784615 0)
(0 0.064406717 0)
(0 -0.075554821 0)
(0 0.071498057 0)
(0 -0.083017406 0)
(0 0.079356112 0)
(0 -0.091324033 0)
(0 0.088139033 0)
(0 -0.10063634 0)
(0 0.098008928 0)
(0 -0.11111416 0)
(0 0.10912108 0)
(0 -0.12290669 0)
(0 0.12161733 0)
(0 -0.13614048 0)
(0 0.13561417 0)
(0 -0.15090635 0)
(0 0.15119421 0)
(0 -0.16744872 0)
)
;

boundaryField
{
    left
    {
        type            noSlip;
    }
    right
    {
        type            noSlip;
    }
    walls
    {
        type            noSlip;
    }
    centreline
    {
        type            noSlip;
    }
    frontAndBack
    {
        type            noSlip;
    }
}


// ************************************************************************* //
