/*--------------------------------*- C++ -*----------------------------------*\
  =========                 |
  \\      /  F ield         | OpenFOAM: The Open Source CFD Toolbox
   \\    /   O peration     | Website:  https://openfoam.org
    \\  /    A nd           | Version:  8
     \\/     M anipulation  |
\*---------------------------------------------------------------------------*/
FoamFile
{
    version     2.0;
    format      ascii;
    class       surfaceScalarField;
    location    "0.5";
    object      phi;
}
// * * * * * * * * * * * * * * * * * * * * * * * * * * * * * * * * * * * * * //

dimensions      [1 0 -1 0 0 0 0];

internalField   nonuniform List<scalar> 
2080
(
-6.7030376e-06
-0.0091284954
-1.7296082e-05
-3.6484991e-07
-0.0091413752
-1.7278148e-05
-6.3893062e-07
-0.0091348498
-1.7280079e-05
-1.3695889e-07
-0.0091356131
-1.7279474e-05
-1.4846027e-07
-0.0091351036
-1.7279599e-05
-6.8950525e-08
-0.0091351942
-1.7279586e-05
-5.2128569e-08
-0.0091351281
-1.7279592e-05
-2.9803662e-08
-0.0091351363
-1.7279601e-05
-1.3646626e-08
-0.0091351271
-1.7279597e-05
-4.2648942e-14
-0.009135126
-1.7279601e-05
1.3646681e-08
-0.009135126
-1.7279601e-05
2.9804038e-08
-0.0091351271
-1.7279597e-05
5.2129113e-08
-0.0091351363
-1.7279601e-05
6.8951205e-08
-0.0091351281
-1.7279592e-05
1.4846079e-07
-0.0091351942
-1.7279586e-05
1.3695917e-07
-0.0091351036
-1.7279599e-05
6.389306e-07
-0.0091356131
-1.7279474e-05
3.6484937e-07
-0.0091348498
-1.7280079e-05
6.7030369e-06
-0.0091413752
-1.7278148e-05
-0.0091284954
-1.7296083e-05
1.837052e-06
-0.0092289954
7.4267457e-06
-1.4831718e-07
-0.009238058
7.4115645e-06
-2.4609444e-07
-0.0092334084
7.4120267e-06
-1.0390452e-07
-0.0092344041
7.4116644e-06
-1.0415983e-07
-0.0092337485
7.4116978e-06
-5.5584175e-08
-0.0092338879
7.411699e-06
-3.5460478e-08
-0.0092337875
7.4116961e-06
-2.4060226e-08
-0.0092337906
7.4117033e-06
-8.7289526e-09
-0.0092337808
7.4116995e-06
1.2491552e-13
-0.0092337749
7.4117021e-06
8.7292538e-09
-0.0092337749
7.4117021e-06
2.4060882e-08
-0.0092337808
7.4116995e-06
3.5461327e-08
-0.0092337906
7.4117031e-06
5.5585283e-08
-0.0092337875
7.4116959e-06
1.041606e-07
-0.0092338879
7.4116988e-06
1.0390509e-07
-0.0092337485
7.4116976e-06
2.4609432e-07
-0.0092344041
7.4116644e-06
1.4831643e-07
-0.0092334084
7.4120266e-06
-1.8370528e-06
-0.009238058
7.4115644e-06
-0.0092289954
7.4267457e-06
1.2507288e-06
-0.0091806638
4.006225e-06
-4.3731488e-07
-0.0091867802
3.9851857e-06
-3.8581408e-07
-0.0091838632
3.9853059e-06
-2.3157686e-07
-0.009184968
3.9844573e-06
-2.2348911e-07
-0.0091841633
3.9845183e-06
-1.2287487e-07
-0.009184398
3.9844759e-06
-1.0130889e-07
-0.0091842167
3.984486e-06
-5.3768098e-08
-0.009184249
3.9844887e-06
-2.8792126e-08
-0.0091842156
3.984488e-06
-2.3118045e-13
-0.0091842152
3.9844908e-06
2.8791656e-08
-0.0091842152
3.9844906e-06
5.3768037e-08
-0.0091842156
3.9844881e-06
1.0130921e-07
-0.009184249
3.9844887e-06
1.2287533e-07
-0.0091842167
3.9844858e-06
2.2348949e-07
-0.009184398
3.9844759e-06
2.315771e-07
-0.0091841633
3.9845179e-06
3.8581386e-07
-0.009184968
3.9844573e-06
4.3731414e-07
-0.0091838632
3.9853059e-06
-1.2507296e-06
-0.0091867802
3.9851857e-06
-0.0091806638
4.0062249e-06
1.0648633e-06
-0.0093678149
1.7178351e-06
1.4861191e-07
-0.0093719457
1.7366652e-06
3.1385251e-07
-0.0093701253
1.7366679e-06
3.0246617e-08
-0.0093707572
1.7375105e-06
1.1662586e-07
-0.0093703279
1.7374688e-06
9.3904413e-09
-0.0093703639
1.7375166e-06
5.3457734e-08
-0.0093703303
1.7375054e-06
4.5591064e-09
-0.0093702755
1.7375077e-06
1.6351817e-08
-0.0093702982
1.7375062e-06
4.5303485e-13
-0.0093702733
1.7375056e-06
-1.6350662e-08
-0.0093702733
1.7375056e-06
-4.5578126e-09
-0.0093702982
1.7375061e-06
-5.3455905e-08
-0.0093702755
1.7375076e-06
-9.3887594e-09
-0.0093703303
1.7375054e-06
-1.1662371e-07
-0.0093703639
1.7375166e-06
-3.0245115e-08
-0.0093703279
1.7374687e-06
-3.1385142e-07
-0.0093707572
1.7375106e-06
-1.4861145e-07
-0.0093701253
1.7366677e-06
-1.0648634e-06
-0.0093719457
1.736665e-06
-0.0093678149
1.7178352e-06
2.3377297e-07
-0.0091803051
-5.0272484e-07
-5.9477986e-07
-0.0091834002
-5.0345526e-07
-4.051279e-07
-0.0091825899
-5.0340313e-07
-3.9370324e-07
-0.009183067
-5.0363128e-07
-3.5756747e-07
-0.0091826655
-5.035903e-07
-2.319415e-07
-0.0091827962
-5.0361399e-07
-2.0187606e-07
-0.0091826741
-5.0360555e-07
-1.0611084e-07
-0.0091826877
-5.0360364e-07
-6.2823376e-08
-0.0091826633
-5.0360382e-07
-7.5223366e-13
-0.0091826598
-5.0360205e-07
6.2822e-08
-0.0091826598
-5.0360207e-07
1.0610972e-07
-0.0091826633
-5.0360383e-07
2.0187537e-07
-0.0091826877
-5.0360384e-07
2.3194125e-07
-0.0091826741
-5.0360571e-07
3.5756751e-07
-0.0091827962
-5.0361437e-07
3.9370352e-07
-0.0091826655
-5.0359019e-07
4.0512787e-07
-0.009183067
-5.036313e-07
5.9477953e-07
-0.0091825899
-5.0340332e-07
-2.3377342e-07
-0.0091834002
-5.0345545e-07
-0.0091803051
-5.0272465e-07
1.3240837e-06
-0.0093147677
1.6893173e-06
4.9684628e-07
-0.0093156728
1.6909601e-06
9.4534903e-07
-0.0093161748
1.6910399e-06
2.9640114e-07
-0.0093155049
1.6911641e-06
5.3724295e-07
-0.0093160165
1.6911684e-06
1.7491707e-07
-0.0093155243
1.6911681e-06
2.6960514e-07
-0.0093158671
1.6911728e-06
8.3477331e-08
-0.0093156009
1.691166e-06
8.2124438e-08
-0.0093157615
1.6911696e-06
7.9852795e-13
-0.0093156803
1.6911671e-06
-8.2122541e-08
-0.0093156803
1.6911672e-06
-8.3475518e-08
-0.0093157615
1.69117e-06
-2.6960329e-07
-0.0093156009
1.691166e-06
-1.7491496e-07
-0.0093158671
1.6911728e-06
-5.3724068e-07
-0.0093155243
1.6911679e-06
-2.9639863e-07
-0.0093160165
1.6911682e-06
-9.4534661e-07
-0.009315505
1.6911645e-06
-4.9684455e-07
-0.0093161748
1.6910402e-06
-1.3240827e-06
-0.0093156729
1.6909602e-06
-0.0093147677
1.6893171e-06
-1.0831621e-06
-0.0096327518
-2.0694849e-06
-8.5639962e-07
-0.009634989
-2.0695709e-06
-9.5092286e-07
-0.0096351499
-2.0696191e-06
-6.5975578e-07
-0.0096348889
-2.0695881e-06
-7.1919757e-07
-0.0096350406
-2.0696003e-06
-4.3995248e-07
-0.0096348875
-2.0695833e-06
-4.3168468e-07
-0.0096349535
-2.0695929e-06
-2.186316e-07
-0.0096348846
-2.0695837e-06
-1.4199704e-07
-0.0096349059
-2.0695882e-06
8.1417344e-14
-0.0096348869
-2.069585e-06
1.4199698e-07
-0.0096348869
-2.0695854e-06
2.1863117e-07
-0.0096349059
-2.069588e-06
4.3168386e-07
-0.0096348846
-2.0695837e-06
4.3995202e-07
-0.0096349535
-2.0695927e-06
7.1919749e-07
-0.0096348875
-2.0695831e-06
6.5975597e-07
-0.0096350406
-2.0696005e-06
9.5092302e-07
-0.0096348889
-2.0695882e-06
8.563995e-07
-0.0096351499
-2.0696186e-06
1.0831618e-06
-0.009634989
-2.0695703e-06
-0.0096327518
-2.0694847e-06
5.2296832e-06
-0.0077853878
5.2309072e-06
8.5305826e-07
-0.0077779396
5.2315161e-06
2.3982163e-06
-0.0077841456
5.2315056e-06
7.3149375e-07
-0.0077805651
5.2315006e-06
1.2423066e-06
-0.0077829984
5.231473e-06
5.0836672e-07
-0.0077815449
5.2314961e-06
6.3152189e-07
-0.0077825378
5.2314726e-06
2.5954388e-07
-0.0077819619
5.2314912e-06
1.966813e-07
-0.0077823278
5.2314779e-06
-2.4792808e-12
-0.0077821752
5.2314843e-06
-1.9668617e-07
-0.0077821752
5.2314843e-06
-2.5954856e-07
-0.0077823278
5.2314777e-06
-6.3152664e-07
-0.0077819619
5.2314916e-06
-5.0837134e-07
-0.0077825378
5.2314732e-06
-1.2423115e-06
-0.0077815449
5.2314972e-06
-7.3149614e-07
-0.0077829984
5.2314717e-06
-2.3982175e-06
-0.0077805651
5.231501e-06
-8.5306008e-07
-0.0077841456
5.2315067e-06
-5.2296835e-06
-0.0077779396
5.2315148e-06
-0.0077853877
5.2309076e-06
-5.1015303e-06
-0.0085508573
-5.3009296e-06
-1.1962001e-06
-0.0085525469
-5.3014651e-06
-2.7046676e-06
-0.0085532054
-5.3015676e-06
-1.0564939e-06
-0.0085529169
-5.3015337e-06
-1.5818531e-06
-0.0085530747
-5.3015144e-06
-7.6773331e-07
-0.0085530259
-5.3015464e-06
-8.7564927e-07
-0.008553034
-5.3015153e-06
-4.041172e-07
-0.008553045
-5.3015441e-06
-2.8457815e-07
-0.0085530284
-5.301525e-06
7.5544687e-13
-0.008553037
-5.3015356e-06
2.8458006e-07
-0.008553037
-5.3015347e-06
4.04119e-07
-0.0085530284
-5.3015241e-06
8.756508e-07
-0.008553045
-5.3015436e-06
7.6773431e-07
-0.008553034
-5.3015151e-06
1.5818535e-06
-0.0085530259
-5.3015462e-06
1.0564938e-06
-0.0085530747
-5.3015138e-06
2.7046666e-06
-0.0085529169
-5.3015336e-06
1.1961993e-06
-0.0085532054
-5.3015673e-06
5.1015299e-06
-0.0085525469
-5.3014651e-06
-0.0085508573
-5.3009293e-06
1.8840405e-06
4.9881606e-06
2.1450562e-06
5.0018186e-06
1.668566e-06
4.9939268e-06
1.5596528e-06
4.9956144e-06
1.2363195e-06
4.9950122e-06
1.0057662e-06
4.9952365e-06
7.4232985e-07
4.9950993e-06
4.8912449e-07
4.9951861e-06
2.4533526e-07
4.9951293e-06
9.729635e-13
4.9951561e-06
-2.4533346e-07
4.9951563e-06
-4.8912265e-07
4.9951293e-06
-7.4232855e-07
4.9951856e-06
-1.0057654e-06
4.995099e-06
-1.2363191e-06
4.9952362e-06
-1.5596524e-06
4.995013e-06
-1.6685654e-06
4.9956147e-06
-2.1450554e-06
4.9939256e-06
-1.8840399e-06
5.0018194e-06
4.9881616e-06
-6.7028623e-06
-0.0091626141
-3.0959445e-12
-3.6246852e-07
-0.0091754608
-3.4727881e-12
-6.3920685e-07
-0.0091689343
-3.14848e-12
-1.3696538e-07
-0.0091696993
-3.1401228e-12
-1.4852562e-07
-0.0091691897
-3.1311077e-12
-6.897824e-08
-0.0091692804
-3.1806524e-12
-5.2151555e-08
-0.0091692143
-3.3717404e-12
-2.9816011e-08
-0.0091692225
-3.357255e-12
-1.3652928e-08
-0.0091692133
-3.3479601e-12
-3.4509509e-14
-0.0091692122
-3.437369e-12
1.3653026e-08
-0.0091692122
-3.4813263e-12
2.9816425e-08
-0.0091692133
-3.4858928e-12
5.2152069e-08
-0.0091692225
-3.063298e-12
6.8978942e-08
-0.0091692143
-3.419852e-12
1.4852606e-07
-0.0091692804
-2.9779542e-12
1.3696557e-07
-0.0091691897
-3.399726e-12
6.3920686e-07
-0.0091696993
-3.4633718e-12
3.6246797e-07
-0.0091689343
-3.6137585e-12
6.7028615e-06
-0.0091754608
-3.5430626e-12
-0.0091626141
-3.6931363e-12
1.8337341e-06
-0.0092483356
-4.407564e-12
-1.5037266e-07
-0.0092573998
-4.8152217e-12
-2.4620871e-07
-0.0092527489
-4.8557438e-12
-1.039854e-07
-0.0092537451
-4.869311e-12
-1.0419667e-07
-0.0092530894
-4.7716185e-12
-5.560672e-08
-0.0092532288
-4.8265442e-12
-3.5475922e-08
-0.0092531284
-5.0004001e-12
-2.4069986e-08
-0.0092531315
-4.9476965e-12
-8.7333197e-09
-0.0092531218
-4.9765585e-12
1.2737481e-13
-0.0092531159
-4.9087267e-12
8.7336428e-09
-0.0092531159
-4.9544488e-12
2.4070609e-08
-0.0092531218
-5.0596373e-12
3.5476727e-08
-0.0092531315
-5.1985942e-12
5.5607794e-08
-0.0092531284
-5.0991506e-12
1.0419745e-07
-0.0092532288
-4.87976e-12
1.0398599e-07
-0.0092530894
-4.8398258e-12
2.4620856e-07
-0.0092537451
-4.8241835e-12
1.5037194e-07
-0.0092527489
-4.7381922e-12
-1.833735e-06
-0.0092573998
-4.8189774e-12
-0.0092483356
-3.9234683e-12
1.2456521e-06
-0.0091919917
-3.4049609e-12
-4.4028719e-07
-0.0091981589
-3.4681758e-12
-3.8617898e-07
-0.009195241
-3.4795048e-12
-2.3178027e-07
-0.0091963455
-3.509249e-12
-2.2358897e-07
-0.0091955405
-3.6764494e-12
-1.2293277e-07
-0.0091957753
-3.4174015e-12
-1.0135297e-07
-0.009195594
-3.4964126e-12
-5.3792063e-08
-0.0091956263
-3.4379047e-12
-2.8805143e-08
-0.0091955929
-3.6345558e-12
-2.6374944e-13
-0.0091955924
-3.5868293e-12
2.8804745e-08
-0.0091955924
-3.8110437e-12
5.3791987e-08
-0.0091955929
-3.5603725e-12
1.0135314e-07
-0.0091956263
-3.8103413e-12
1.2293326e-07
-0.009195594
-3.828297e-12
2.2358938e-07
-0.0091957753
-3.7078035e-12
2.3178047e-07
-0.0091955405
-3.4531257e-12
3.861788e-07
-0.0091963455
-3.5822845e-12
4.4028655e-07
-0.009195241
-3.8110467e-12
-1.245653e-06
-0.0091981589
-3.5079814e-12
-0.0091919917
-3.2278167e-12
1.0699677e-06
-0.0093757164
-1.2179291e-12
1.5101966e-07
-0.0093798526
-9.6733824e-13
3.1417613e-07
-0.0093780318
-1.147256e-12
3.0360094e-08
-0.0093786637
-1.3390488e-12
1.1667353e-07
-0.0093782343
-1.5930304e-12
9.400509e-09
-0.0093782703
-1.3051436e-12
5.3473241e-08
-0.0093782367
-1.2372049e-12
4.5613784e-09
-0.0093781818
-1.1039167e-12
1.6355819e-08
-0.0093782046
-1.0211668e-12
4.6189222e-13
-0.0093781797
-1.2352153e-12
-1.6354677e-08
-0.0093781797
-1.334191e-12
-4.5601461e-09
-0.0093782046
-1.114e-12
-5.3471358e-08
-0.0093781818
-1.2073866e-12
-9.3987781e-09
-0.0093782367
-1.2714626e-12
-1.1667138e-07
-0.0093782703
-1.3432316e-12
-3.0358606e-08
-0.0093782343
-1.4219828e-12
-3.1417495e-07
-0.0093786637
-1.1410702e-12
-1.5101929e-07
-0.0093780318
-1.1964426e-12
-1.0699679e-06
-0.0093798526
-1.303379e-12
-0.0093757164
-1.1183899e-12
2.3345684e-07
-0.0091892219
-6.7012058e-13
-5.9513811e-07
-0.0091923242
-1.3497227e-12
-4.0538264e-07
-0.0091915135
-1.1372163e-12
-3.9390609e-07
-0.009191991
-5.857331e-13
-3.5773007e-07
-0.0091915893
-8.6720031e-13
-2.3204925e-07
-0.00919172
-1.4632327e-12
-2.0196495e-07
-0.0091915979
-1.2814147e-12
-1.0616009e-07
-0.0091916115
-1.1572046e-12
-6.2851345e-08
-0.0091915871
-1.3065754e-12
-7.970571e-13
-0.0091915836
-1.0775845e-12
6.2849987e-08
-0.0091915836
-1.3560274e-12
1.0615883e-07
-0.0091915871
-1.4422762e-12
2.019643e-07
-0.0091916115
-1.5114944e-12
2.3204908e-07
-0.0091915979
-1.1967369e-12
3.5772996e-07
-0.00919172
-1.1653169e-12
3.9390625e-07
-0.0091915893
-1.2243157e-12
4.0538295e-07
-0.009191991
-7.3667798e-13
5.9513766e-07
-0.0091915135
-5.7814092e-13
-2.3345774e-07
-0.0091923242
-1.1858682e-12
-0.0091892219
-1.3153168e-12
1.3250844e-06
-0.0093203206
-2.2544684e-14
4.9726733e-07
-0.0093212281
-4.6057749e-13
9.4575549e-07
-0.0093217301
-6.4419811e-14
2.9657091e-07
-0.0093210602
1.9161697e-13
5.3744478e-07
-0.0093215718
-3.8829838e-13
1.7500486e-07
-0.0093210795
4.2498832e-14
2.6970091e-07
-0.0093214224
-4.4228083e-16
8.3516556e-08
-0.0093211562
5.7305012e-14
8.2152575e-08
-0.0093213168
-1.5615722e-13
7.1418647e-13
-0.0093212356
-5.4863261e-14
-8.215064e-08
-0.0093212356
-4.7828761e-13
-8.3514756e-08
-0.0093213168
1.8275315e-13
-2.6969924e-07
-0.0093211562
1.858427e-13
-1.7500256e-07
-0.0093214224
-1.8937413e-13
-5.3744239e-07
-0.0093210795
-3.1987869e-14
-2.9656867e-07
-0.0093215718
-1.7059252e-13
-9.4575298e-07
-0.0093210602
-2.6476908e-13
-4.9726543e-07
-0.0093217301
-4.3367232e-13
-1.3250835e-06
-0.0093212281
-2.8754634e-13
-0.0093203206
-4.3336706e-13
-1.0837427e-06
-0.0096424533
-7.8251385e-13
-8.5674494e-07
-0.0096446938
-2.5260663e-13
-9.51337e-07
-0.0096448546
-4.2192442e-13
-6.6005766e-07
-0.0096445936
-4.5938819e-13
-7.1949583e-07
-0.0096447453
-3.1662059e-14
-4.4015177e-07
-0.0096445921
-7.0804322e-14
-4.3185797e-07
-0.0096446582
6.3294406e-14
-2.1872891e-07
-0.0096445892
-4.7259871e-13
-1.4205353e-07
-0.0096446105
-4.9867388e-13
-3.0741544e-14
-0.0096445915
7.1377174e-14
1.4205338e-07
-0.0096445915
-2.924191e-13
2.1872867e-07
-0.0096446105
4.4660304e-14
4.318571e-07
-0.0096445892
1.1298964e-13
4.401513e-07
-0.0096446582
-7.2628991e-14
7.1949599e-07
-0.0096445921
2.7215465e-14
6.6005739e-07
-0.0096447453
-1.4161701e-13
9.5133702e-07
-0.0096445936
-2.1307281e-13
8.5674519e-07
-0.0096448546
-1.977149e-13
1.0837426e-06
-0.0096446938
-5.7022751e-14
-0.0096424533
-4.771831e-13
5.2316359e-06
-0.0077846725
-7.7947398e-13
8.5340041e-07
-0.0077772229
8.4415832e-13
2.3990804e-06
-0.0077834309
1.9675464e-13
7.3185173e-07
-0.0077798494
-4.8637734e-13
1.2427549e-06
-0.0077822833
4.8560299e-13
5.0860297e-07
-0.0077808295
-5.1688471e-13
6.3174397e-07
-0.0077818226
4.4808064e-13
2.5965886e-07
-0.0077812465
-3.7353591e-13
1.9674933e-07
-0.0077816126
-6.875141e-13
-2.3832096e-12
-0.0077814599
1.8091864e-14
-1.9675405e-07
-0.0077814599
2.7477447e-13
-2.5966375e-07
-0.0077816126
-2.0022865e-13
-6.3174913e-07
-0.0077812465
2.0493294e-13
-5.0860801e-07
-0.0077818226
2.4897266e-13
-1.2427588e-06
-0.0077808295
3.3152326e-14
-7.3185541e-07
-0.0077822833
-6.4585984e-13
-2.3990825e-06
-0.0077798494
-4.1051528e-13
-8.5340046e-07
-0.0077834309
6.3660972e-13
-5.2316354e-06
-0.0077772229
3.1599174e-13
-0.0077846725
4.4354337e-13
-5.1035108e-06
-0.0085608086
-2.0481955e-13
-1.1966955e-06
-0.0085625012
1.2182501e-13
-2.7056784e-06
-0.00856316
-4.9577989e-13
-1.0569989e-06
-0.0085628715
-2.4255407e-13
-1.5824478e-06
-0.0085630292
-1.8257642e-13
-7.6808635e-07
-0.0085629805
-2.6426706e-13
-8.7597195e-07
-0.0085629885
-1.5409507e-13
-4.0429534e-07
-0.0085629996
-5.968286e-13
-2.8468104e-07
-0.0085629829
-3.4930359e-13
6.9677956e-13
-0.0085629916
-2.9216662e-13
2.84683e-07
-0.0085629916
-2.4734523e-13
4.0429719e-07
-0.0085629829
6.0251647e-14
8.759734e-07
-0.0085629995
-1.5145102e-14
7.6808753e-07
-0.0085629885
-2.5409343e-13
1.5824483e-06
-0.0085629805
-1.0288854e-13
1.0569987e-06
-0.0085630292
-1.8430039e-13
2.7056775e-06
-0.0085628715
-2.8468117e-13
1.1966947e-06
-0.00856316
1.8835989e-13
5.1035105e-06
-0.0085625012
3.3160339e-15
-0.0085608086
-1.5956803e-13
1.8732349e-06
-1.4016269e-12
2.1476626e-06
1.0056001e-12
1.6685694e-06
1.3764379e-12
1.5604871e-06
-1.2787153e-12
1.2367706e-06
-9.5612166e-13
1.0062591e-06
4.19012e-13
7.4262151e-07
2.1761282e-13
4.8936386e-07
-3.6707901e-13
2.4543286e-07
1.336316e-13
1.079207e-12
-2.4998694e-13
-2.4543111e-07
1.1603522e-13
-4.8936217e-07
-2.3820437e-13
-7.4262038e-07
-4.431612e-13
-1.0062583e-06
7.2383842e-13
-1.2367703e-06
9.9853235e-13
-1.560487e-06
-3.1401729e-14
-1.6685691e-06
-6.8152533e-13
-2.1476623e-06
4.8204025e-14
-1.8732335e-06
7.33637e-13
3.7915925e-13
-6.7028623e-06
-0.0091626141
1.7296079e-05
-3.6246854e-07
-0.0091754608
1.7278144e-05
-6.3920687e-07
-0.0091689343
1.7280075e-05
-1.3696539e-07
-0.0091696993
1.7279471e-05
-1.4852558e-07
-0.0091691897
1.7279595e-05
-6.8978101e-08
-0.0091692804
1.7279583e-05
-5.2151495e-08
-0.0091692143
1.7279588e-05
-2.9816012e-08
-0.0091692225
1.7279597e-05
-1.3652945e-08
-0.0091692133
1.7279593e-05
-2.4317549e-14
-0.0091692122
1.7279598e-05
1.3652931e-08
-0.0091692122
1.7279598e-05
2.9816327e-08
-0.0091692133
1.7279593e-05
5.215207e-08
-0.0091692225
1.7279597e-05
6.8978942e-08
-0.0091692143
1.7279588e-05
1.4852613e-07
-0.0091692804
1.7279583e-05
1.3696561e-07
-0.0091691897
1.7279595e-05
6.392068e-07
-0.0091696993
1.7279471e-05
3.6246787e-07
-0.0091689343
1.7280075e-05
6.7028613e-06
-0.0091754608
1.7278144e-05
-0.0091626141
1.7296079e-05
1.8337341e-06
-0.0092483356
-7.4267523e-06
-1.5037272e-07
-0.0092573998
-7.4115716e-06
-2.4620869e-07
-0.0092527489
-7.4120338e-06
-1.039854e-07
-0.0092537451
-7.4116715e-06
-1.0419671e-07
-0.0092530894
-7.4117048e-06
-5.5606652e-08
-0.0092532288
-7.4117061e-06
-3.5475925e-08
-0.0092531284
-7.4117034e-06
-2.4069954e-08
-0.0092531315
-7.4117105e-06
-8.7333082e-09
-0.0092531218
-7.4117069e-06
1.2403002e-13
-0.0092531159
-7.4117095e-06
8.7335714e-09
-0.0092531159
-7.4117094e-06
2.4070553e-08
-0.0092531218
-7.4117069e-06
3.5476778e-08
-0.0092531315
-7.4117105e-06
5.5607797e-08
-0.0092531284
-7.4117033e-06
1.0419751e-07
-0.0092532288
-7.411706e-06
1.0398598e-07
-0.0092530894
-7.4117049e-06
2.4620855e-07
-0.0092537451
-7.4116715e-06
1.5037202e-07
-0.0092527489
-7.4120339e-06
-1.8337349e-06
-0.0092573998
-7.4115714e-06
-0.0092483356
-7.4267518e-06
1.2456524e-06
-0.0091919917
-4.006229e-06
-4.4028724e-07
-0.0091981589
-3.98519e-06
-3.8617902e-07
-0.009195241
-3.9853102e-06
-2.3178014e-07
-0.0091963455
-3.9844614e-06
-2.2358904e-07
-0.0091955405
-3.9845224e-06
-1.2293272e-07
-0.0091957753
-3.9844801e-06
-1.0135298e-07
-0.009195594
-3.9844903e-06
-5.3792015e-08
-0.0091956263
-3.9844932e-06
-2.8805096e-08
-0.0091955929
-3.9844925e-06
-2.9776963e-13
-0.0091955924
-3.9844952e-06
2.8804672e-08
-0.0091955924
-3.9844952e-06
5.3791928e-08
-0.0091955929
-3.9844926e-06
1.0135324e-07
-0.0091956263
-3.9844934e-06
1.2293323e-07
-0.009195594
-3.9844903e-06
2.2358943e-07
-0.0091957753
-3.9844803e-06
2.3178042e-07
-0.0091955405
-3.9845223e-06
3.8617876e-07
-0.0091963455
-3.9844616e-06
4.4028651e-07
-0.009195241
-3.9853105e-06
-1.2456531e-06
-0.0091981589
-3.98519e-06
-0.0091919917
-4.0062286e-06
1.0699678e-06
-0.0093757164
-1.7178367e-06
1.5101974e-07
-0.0093798526
-1.736667e-06
3.141762e-07
-0.0093780318
-1.7366697e-06
3.0360135e-08
-0.0093786637
-1.7375123e-06
1.1667329e-07
-0.0093782343
-1.7374705e-06
9.4004752e-09
-0.0093782703
-1.7375186e-06
5.3473239e-08
-0.0093782367
-1.7375075e-06
4.5614788e-09
-0.0093781818
-1.7375095e-06
1.6355897e-08
-0.0093782046
-1.737508e-06
4.4788422e-13
-0.0093781797
-1.7375075e-06
-1.6354777e-08
-0.0093781797
-1.7375075e-06
-4.5601981e-09
-0.0093782046
-1.7375082e-06
-5.3471403e-08
-0.0093781818
-1.7375096e-06
-9.398787e-09
-0.0093782367
-1.7375074e-06
-1.1667132e-07
-0.0093782703
-1.7375186e-06
-3.0358643e-08
-0.0093782343
-1.7374706e-06
-3.14175e-07
-0.0093786637
-1.7375123e-06
-1.5101936e-07
-0.0093780318
-1.7366697e-06
-1.0699679e-06
-0.0093798526
-1.7366669e-06
-0.0093757164
-1.7178368e-06
2.3345729e-07
-0.0091892219
5.0272329e-07
-5.9513824e-07
-0.0091923242
5.0345381e-07
-4.0538298e-07
-0.0091915135
5.0340171e-07
-3.9390582e-07
-0.009191991
5.0363e-07
-3.5772979e-07
-0.0091915893
5.0358879e-07
-2.3204922e-07
-0.00919172
5.0361239e-07
-2.0196495e-07
-0.0091915979
5.0360404e-07
-1.0615989e-07
-0.0091916115
5.0360248e-07
-6.2851294e-08
-0.0091915871
5.0360245e-07
-7.5821047e-13
-0.0091915836
5.0360058e-07
6.2849904e-08
-0.0091915836
5.0360044e-07
1.0615876e-07
-0.0091915871
5.0360218e-07
2.0196426e-07
-0.0091916115
5.0360216e-07
2.3204905e-07
-0.0091915979
5.0360417e-07
3.5772995e-07
-0.00919172
5.0361261e-07
3.9390589e-07
-0.0091915893
5.0358874e-07
4.0538279e-07
-0.009191991
5.0362987e-07
5.951381e-07
-0.0091915135
5.034018e-07
-2.3345744e-07
-0.0091923242
5.0345409e-07
-0.0091892219
5.0272327e-07
1.3250845e-06
-0.0093203206
-1.6893174e-06
4.9726677e-07
-0.0093212281
-1.6909603e-06
9.4575544e-07
-0.0093217301
-1.69104e-06
2.9657121e-07
-0.0093210602
-1.6911643e-06
5.374446e-07
-0.0093215718
-1.6911686e-06
1.7500508e-07
-0.0093210795
-1.6911682e-06
2.697012e-07
-0.0093214224
-1.6911728e-06
8.3516669e-08
-0.0093211562
-1.6911662e-06
8.2152401e-08
-0.0093213168
-1.6911695e-06
8.1687558e-13
-0.0093212356
-1.6911674e-06
-8.2150708e-08
-0.0093212356
-1.6911676e-06
-8.3514891e-08
-0.0093213168
-1.6911697e-06
-2.6969916e-07
-0.0093211562
-1.6911661e-06
-1.7500263e-07
-0.0093214224
-1.691173e-06
-5.3744239e-07
-0.0093210795
-1.6911679e-06
-2.965687e-07
-0.0093215718
-1.6911683e-06
-9.4575307e-07
-0.0093210602
-1.6911645e-06
-4.972654e-07
-0.0093217301
-1.6910403e-06
-1.3250835e-06
-0.0093212281
-1.6909603e-06
-0.0093203206
-1.6893174e-06
-1.0837429e-06
-0.0096424533
2.0694842e-06
-8.5674483e-07
-0.0096446938
2.0695704e-06
-9.5133674e-07
-0.0096448546
2.0696187e-06
-6.6005773e-07
-0.0096445936
2.069588e-06
-7.1949592e-07
-0.0096447453
2.0696003e-06
-4.4015215e-07
-0.0096445921
2.0695831e-06
-4.3185762e-07
-0.0096446582
2.0695928e-06
-2.1872851e-07
-0.0096445892
2.0695835e-06
-1.4205377e-07
-0.0096446105
2.0695876e-06
1.0312163e-13
-0.0096445915
2.0695852e-06
1.420532e-07
-0.0096445915
2.0695853e-06
2.1872855e-07
-0.0096446105
2.0695878e-06
4.318573e-07
-0.0096445892
2.0695835e-06
4.4015127e-07
-0.0096446582
2.0695928e-06
7.1949589e-07
-0.0096445921
2.069583e-06
6.6005753e-07
-0.0096447453
2.0696004e-06
9.5133705e-07
-0.0096445936
2.069588e-06
8.5674506e-07
-0.0096448546
2.0696183e-06
1.0837426e-06
-0.0096446938
2.0695702e-06
-0.0096424533
2.0694842e-06
5.231635e-06
-0.0077846725
-5.2309077e-06
8.5340045e-07
-0.0077772229
-5.2315154e-06
2.3990809e-06
-0.0077834309
-5.2315065e-06
7.318517e-07
-0.0077798494
-5.2315009e-06
1.242755e-06
-0.0077822833
-5.2314723e-06
5.0860299e-07
-0.0077808295
-5.2314967e-06
6.3174475e-07
-0.0077818226
-5.2314728e-06
2.5965935e-07
-0.0077812465
-5.2314917e-06
1.9674868e-07
-0.0077816126
-5.2314775e-06
-2.8866633e-12
-0.0077814599
-5.2314845e-06
-1.9675378e-07
-0.0077814599
-5.2314847e-06
-2.5966334e-07
-0.0077816126
-5.2314778e-06
-6.3174863e-07
-0.0077812465
-5.2314911e-06
-5.0860753e-07
-0.0077818226
-5.2314729e-06
-1.2427589e-06
-0.0077808295
-5.2314964e-06
-7.3185554e-07
-0.0077822833
-5.231473e-06
-2.3990834e-06
-0.0077798494
-5.2315006e-06
-8.5340157e-07
-0.0077834309
-5.2315056e-06
-5.2316357e-06
-0.0077772229
-5.2315158e-06
-0.0077846725
-5.2309077e-06
-5.103511e-06
-0.0085608086
5.3009298e-06
-1.1966956e-06
-0.0085625012
5.3014648e-06
-2.7056782e-06
-0.00856316
5.3015671e-06
-1.0569989e-06
-0.0085628715
5.3015331e-06
-1.5824478e-06
-0.0085630292
5.3015142e-06
-7.6808637e-07
-0.0085629805
5.3015463e-06
-8.7597203e-07
-0.0085629885
5.3015151e-06
-4.0429559e-07
-0.0085629995
5.3015434e-06
-2.8468089e-07
-0.0085629829
5.3015243e-06
9.3090527e-13
-0.0085629916
5.3015351e-06
2.8468297e-07
-0.0085629916
5.3015346e-06
4.0429732e-07
-0.0085629829
5.3015242e-06
8.7597337e-07
-0.0085629995
5.3015434e-06
7.6808738e-07
-0.0085629885
5.301515e-06
1.5824484e-06
-0.0085629805
5.3015466e-06
1.0569988e-06
-0.0085630292
5.3015138e-06
2.7056772e-06
-0.0085628715
5.3015334e-06
1.1966946e-06
-0.00856316
5.3015672e-06
5.1035105e-06
-0.0085625012
5.3014647e-06
-0.0085608086
5.3009292e-06
1.8732333e-06
-4.9881614e-06
2.1476632e-06
-5.0018187e-06
1.6685711e-06
-4.9939253e-06
1.5604871e-06
-4.9956151e-06
1.2367708e-06
-4.9950141e-06
1.0062592e-06
-4.9952353e-06
7.4262158e-07
-4.9950986e-06
4.8936386e-07
-4.9951866e-06
2.4543287e-07
-4.995129e-06
1.1186241e-12
-4.9951566e-06
-2.4543115e-07
-4.9951561e-06
-4.8936225e-07
-4.9951299e-06
-7.4262015e-07
-4.9951857e-06
-1.0062582e-06
-4.9950982e-06
-1.2367698e-06
-4.9952351e-06
-1.5604866e-06
-4.995013e-06
-1.6685696e-06
-4.9956153e-06
-2.1476627e-06
-4.9939255e-06
-1.8732336e-06
-5.0018184e-06
-4.988161e-06
-6.7030377e-06
-0.0091284954
-3.6484996e-07
-0.0091413752
-6.389306e-07
-0.0091348498
-1.3695895e-07
-0.0091356131
-1.484603e-07
-0.0091351036
-6.8950478e-08
-0.0091351942
-5.2128548e-08
-0.0091351281
-2.9803691e-08
-0.0091351363
-1.3646657e-08
-0.0091351271
-2.8110063e-14
-0.009135126
1.3646648e-08
-0.009135126
2.9804024e-08
-0.0091351271
5.2128821e-08
-0.0091351363
6.8951242e-08
-0.0091351281
1.484611e-07
-0.0091351942
1.3695919e-07
-0.0091351036
6.3893055e-07
-0.0091356131
3.6484934e-07
-0.0091348498
6.7030369e-06
-0.0091413752
-0.0091284954
1.8370518e-06
-0.0092289954
-1.4831721e-07
-0.009238058
-2.4609445e-07
-0.0092334084
-1.0390452e-07
-0.0092344041
-1.0415984e-07
-0.0092337485
-5.5584216e-08
-0.0092338879
-3.54605e-08
-0.0092337875
-2.4060245e-08
-0.0092337906
-8.728989e-09
-0.0092337808
1.1397887e-13
-0.0092337749
8.7292628e-09
-0.0092337749
2.406089e-08
-0.0092337808
3.5461347e-08
-0.0092337906
5.5585299e-08
-0.0092337875
1.041606e-07
-0.0092338879
1.0390511e-07
-0.0092337485
2.4609431e-07
-0.0092344041
1.483166e-07
-0.0092334084
-1.8370525e-06
-0.009238058
-0.0092289954
1.2507288e-06
-0.0091806638
-4.3731489e-07
-0.0091867802
-3.8581405e-07
-0.0091838632
-2.3157685e-07
-0.009184968
-2.2348913e-07
-0.0091841633
-1.2287492e-07
-0.009184398
-1.0130895e-07
-0.0091842167
-5.3768096e-08
-0.009184249
-2.879211e-08
-0.0091842156
-2.712151e-13
-0.0091842151
2.8791671e-08
-0.0091842151
5.376801e-08
-0.0091842156
1.0130921e-07
-0.009184249
1.2287539e-07
-0.0091842167
2.2348954e-07
-0.009184398
2.315771e-07
-0.0091841633
3.8581379e-07
-0.009184968
4.3731423e-07
-0.0091838632
-1.2507294e-06
-0.0091867802
-0.0091806638
1.0648633e-06
-0.0093678149
1.4861187e-07
-0.0093719457
3.1385245e-07
-0.0093701253
3.0246619e-08
-0.0093707572
1.1662577e-07
-0.0093703279
9.3904426e-09
-0.0093703639
5.3457798e-08
-0.0093703303
4.5591283e-09
-0.0093702755
1.635175e-08
-0.0093702982
4.2073229e-13
-0.0093702733
-1.6350677e-08
-0.0093702733
-4.5578291e-09
-0.0093702982
-5.3455912e-08
-0.0093702755
-9.3887469e-09
-0.0093703303
-1.1662363e-07
-0.0093703639
-3.0244938e-08
-0.0093703279
-3.1385146e-07
-0.0093707572
-1.4861162e-07
-0.0093701253
-1.0648633e-06
-0.0093719457
-0.0093678149
2.3377297e-07
-0.0091803051
-5.9477977e-07
-0.0091834002
-4.0512788e-07
-0.0091825899
-3.9370332e-07
-0.009183067
-3.5756748e-07
-0.0091826655
-2.319415e-07
-0.0091827962
-2.0187598e-07
-0.0091826741
-1.0611083e-07
-0.0091826877
-6.2823467e-08
-0.0091826633
-7.8009098e-13
-0.0091826598
6.2821976e-08
-0.0091826598
1.0610968e-07
-0.0091826633
2.0187537e-07
-0.0091826877
2.3194125e-07
-0.0091826741
3.5756756e-07
-0.0091827962
3.9370353e-07
-0.0091826655
4.0512784e-07
-0.009183067
5.947796e-07
-0.0091825899
-2.3377335e-07
-0.0091834002
-0.0091803051
1.3240836e-06
-0.0093147677
4.9684626e-07
-0.0093156728
9.4534907e-07
-0.0093161748
2.9640114e-07
-0.0093155049
5.3724291e-07
-0.0093160165
1.7491709e-07
-0.0093155243
2.6960515e-07
-0.0093158671
8.3477346e-08
-0.0093156009
8.2124394e-08
-0.0093157615
8.3260153e-13
-0.0093156803
-8.2122422e-08
-0.0093156803
-8.3475536e-08
-0.0093157615
-2.6960335e-07
-0.0093156009
-1.7491493e-07
-0.0093158671
-5.3724072e-07
-0.0093155243
-2.9639865e-07
-0.0093160165
-9.4534665e-07
-0.009315505
-4.9684454e-07
-0.0093161748
-1.3240828e-06
-0.0093156729
-0.0093147677
-1.083162e-06
-0.0096327518
-8.5639963e-07
-0.009634989
-9.5092269e-07
-0.0096351499
-6.5975575e-07
-0.0096348889
-7.1919758e-07
-0.0096350406
-4.3995251e-07
-0.0096348875
-4.3168483e-07
-0.0096349535
-2.1863155e-07
-0.0096348846
-1.4199694e-07
-0.0096349059
9.4426268e-14
-0.0096348869
1.419969e-07
-0.0096348869
2.1863116e-07
-0.0096349059
4.3168403e-07
-0.0096348846
4.3995203e-07
-0.0096349535
7.1919741e-07
-0.0096348875
6.5975598e-07
-0.0096350406
9.5092298e-07
-0.0096348889
8.5639942e-07
-0.0096351499
1.0831618e-06
-0.009634989
-0.0096327518
5.2296834e-06
-0.0077853878
8.5305862e-07
-0.0077779396
2.3982159e-06
-0.0077841456
7.3149336e-07
-0.0077805651
1.2423069e-06
-0.0077829984
5.0836671e-07
-0.0077815449
6.31522e-07
-0.0077825378
2.5954388e-07
-0.0077819619
1.9668122e-07
-0.0077823278
-2.5882218e-12
-0.0077821752
-1.9668606e-07
-0.0077821752
-2.595484e-07
-0.0077823278
-6.3152654e-07
-0.0077819619
-5.0837145e-07
-0.0077825378
-1.2423109e-06
-0.0077815449
-7.3149695e-07
-0.0077829984
-2.3982181e-06
-0.0077805651
-8.5305941e-07
-0.0077841456
-5.2296836e-06
-0.0077779396
-0.0077853877
-5.1015305e-06
-0.0085508573
-1.1962003e-06
-0.0085525469
-2.7046675e-06
-0.0085532054
-1.0564939e-06
-0.0085529169
-1.5818531e-06
-0.0085530747
-7.6773329e-07
-0.0085530259
-8.7564938e-07
-0.008553034
-4.0411726e-07
-0.008553045
-2.8457804e-07
-0.0085530284
9.0520322e-13
-0.008553037
2.8458007e-07
-0.008553037
4.0411893e-07
-0.0085530284
8.7565085e-07
-0.008553045
7.6773433e-07
-0.008553034
1.5818535e-06
-0.0085530259
1.0564938e-06
-0.0085530747
2.7046667e-06
-0.0085529169