/*--------------------------------*- C++ -*----------------------------------*\
  =========                 |
  \\      /  F ield         | OpenFOAM: The Open Source CFD Toolbox
   \\    /   O peration     | Website:  https://openfoam.org
    \\  /    A nd           | Version:  8
     \\/     M anipulation  |
\*---------------------------------------------------------------------------*/
FoamFile
{
    version     2.0;
    format      ascii;
    class       volVectorField;
    location    "0.5";
    object      U;
}
// * * * * * * * * * * * * * * * * * * * * * * * * * * * * * * * * * * * * * //

dimensions      [0 1 -1 0 0 0 0];

internalField   nonuniform List<vector> 
800
(
(-8.4627586e-05 0.9454504 -0.00015926182)
(5.0103383e-06 0.94552254 -0.00015922562)
(-8.9873205e-06 0.94553589 -0.00015923295)
(1.172932e-06 0.94553535 -0.00015923105)
(-2.6545914e-06 0.94553571 -0.00015923153)
(7.9062209e-07 0.94553669 -0.00015923156)
(-1.5302272e-06 0.945536 -0.00015923154)
(8.601082e-07 0.94553688 -0.00015923164)
(-1.1757933e-06 0.94553638 -0.00015923159)
(9.9736675e-07 0.94553671 -0.00015923163)
(-9.9736733e-07 0.94553671 -0.00015923163)
(1.1757947e-06 0.94553638 -0.00015923159)
(-8.6010538e-07 0.94553688 -0.00015923164)
(1.530231e-06 0.945536 -0.00015923154)
(-7.9061819e-07 0.94553669 -0.00015923157)
(2.6545936e-06 0.94553571 -0.00015923152)
(-1.1729307e-06 0.94553535 -0.00015923105)
(8.9873189e-06 0.94553589 -0.00015923295)
(-5.0103431e-06 0.94552254 -0.00015922562)
(8.4627584e-05 0.9454504 -0.00015926182)
(1.6082261e-05 -1.1459583 1.9658051e-05)
(2.4758624e-06 -1.1460994 1.9619833e-05)
(-3.814926e-06 -1.1460862 1.9621008e-05)
(1.1214448e-06 -1.1460889 1.9620101e-05)
(-2.0867381e-06 -1.1460871 1.962017e-05)
(9.3292736e-07 -1.1460887 1.9620184e-05)
(-1.4455568e-06 -1.1460876 1.962017e-05)
(1.0392415e-06 -1.1460886 1.9620193e-05)
(-1.2573299e-06 -1.146088 1.962018e-05)
(1.1544266e-06 -1.1460884 1.9620188e-05)
(-1.1544256e-06 -1.1460884 1.9620188e-05)
(1.2573323e-06 -1.146088 1.962018e-05)
(-1.0392375e-06 -1.1460886 1.9620193e-05)
(1.4455621e-06 -1.1460876 1.9620169e-05)
(-9.3292185e-07 -1.1460887 1.9620184e-05)
(2.0867407e-06 -1.1460871 1.962017e-05)
(-1.1214416e-06 -1.1460889 1.9620101e-05)
(3.8149216e-06 -1.1460862 1.9621007e-05)
(-2.4758655e-06 -1.1460994 1.9619832e-05)
(-1.6082266e-05 -1.1459583 1.9658051e-05)
(1.0367291e-05 1.2953433 6.9528369e-06)
(4.8608525e-07 1.2954597 6.9064536e-06)
(-4.1682114e-06 1.295469 6.9068438e-06)
(6.2494908e-07 1.295467 6.9049543e-06)
(-2.5551606e-06 1.2954683 6.905103e-06)
(4.9770813e-07 1.2954694 6.9050122e-06)
(-1.5162377e-06 1.2954686 6.9050343e-06)
(5.7628646e-07 1.2954698 6.9050421e-06)
(-1.0190404e-06 1.2954692 6.9050379e-06)
(7.4997162e-07 1.2954696 6.9050454e-06)
(-7.4997389e-07 1.2954696 6.9050454e-06)
(1.0190388e-06 1.2954692 6.905038e-06)
(-5.7628546e-07 1.2954698 6.9050427e-06)
(1.5162394e-06 1.2954686 6.9050319e-06)
(-4.9770595e-07 1.2954694 6.9050125e-06)
(2.5551616e-06 1.2954683 6.9051021e-06)
(-6.2494783e-07 1.295467 6.9049544e-06)
(4.1682081e-06 1.295469 6.9068442e-06)
(-4.8608866e-07 1.2954597 6.9064534e-06)
(-1.0367294e-05 1.2953433 6.9528315e-06)
(8.1869491e-06 -1.5820845 5.3314657e-06)
(-3.0983521e-07 -1.5822611 5.3677576e-06)
(1.5467839e-06 -1.5822525 5.3676399e-06)
(6.9667552e-07 -1.5822575 5.3692771e-06)
(-4.1538649e-07 -1.5822537 5.3691662e-06)
(1.2207243e-06 -1.5822565 5.3692644e-06)
(-1.1239727e-06 -1.5822544 5.3692363e-06)
(1.4830268e-06 -1.5822561 5.3692431e-06)
(-1.4350625e-06 -1.5822551 5.3692387e-06)
(1.5430194e-06 -1.5822556 5.3692383e-06)
(-1.5430163e-06 -1.5822556 5.3692385e-06)
(1.435068e-06 -1.5822551 5.3692384e-06)
(-1.483021e-06 -1.5822561 5.3692431e-06)
(1.1239805e-06 -1.5822544 5.3692364e-06)
(-1.2207176e-06 -1.5822565 5.3692663e-06)
(4.1539618e-07 -1.5822537 5.369166e-06)
(-6.9667313e-07 -1.5822575 5.3692772e-06)
(-1.5467779e-06 -1.5822525 5.3676392e-06)
(3.0983257e-07 -1.5822611 5.3677589e-06)
(-8.1869472e-06 -1.5820845 5.331465e-06)
(2.7758781e-06 1.8116489 -2.9261541e-06)
(-1.3037231e-06 1.8118348 -2.9277238e-06)
(-2.4519145e-06 1.8118337 -2.9275847e-06)
(-2.6516446e-07 1.8118364 -2.9279708e-06)
(-2.1985359e-06 1.811834 -2.9278952e-06)
(-1.8154374e-07 1.8118371 -2.9279264e-06)
(-1.273614e-06 1.8118349 -2.9279188e-06)
(-6.3016818e-08 1.8118371 -2.9279115e-06)
(-6.0475004e-07 1.8118358 -2.9279138e-06)
(1.8965141e-07 1.8118366 -2.9279097e-06)
(-1.8965616e-07 1.8118366 -2.9279096e-06)
(6.0474598e-07 1.8118358 -2.9279137e-06)
(6.301366e-08 1.8118371 -2.9279114e-06)
(1.2736127e-06 1.8118349 -2.9279194e-06)
(1.8154329e-07 1.8118371 -2.927924e-06)
(2.1985364e-06 1.811834 -2.9278931e-06)
(2.6516583e-07 1.8118364 -2.9279708e-06)
(2.451913e-06 1.8118337 -2.9275917e-06)
(1.3037226e-06 1.8118348 -2.9277244e-06)
(-2.77588e-06 1.8116489 -2.926155e-06)
(8.276688e-06 -2.1923895 4.5879621e-06)
(-1.0555934e-06 -2.1926282 4.5910035e-06)
(3.9453993e-06 -2.1926212 4.5910966e-06)
(1.141501e-06 -2.1926277 4.5912735e-06)
(6.2591443e-07 -2.1926222 4.5912707e-06)
(2.223106e-06 -2.1926267 4.5912723e-06)
(-1.163111e-06 -2.1926232 4.5912739e-06)
(2.5718091e-06 -2.1926259 4.5912665e-06)
(-2.060614e-06 -2.1926242 4.5912695e-06)
(2.4856071e-06 -2.1926251 4.5912669e-06)
(-2.4856026e-06 -2.1926251 4.5912676e-06)
(2.0606199e-06 -2.1926242 4.5912698e-06)
(-2.5718048e-06 -2.1926259 4.5912665e-06)
(1.1631169e-06 -2.1926232 4.5912745e-06)
(-2.2230999e-06 -2.1926267 4.5912722e-06)
(-6.2590773e-07 -2.1926222 4.59127e-06)
(-1.1414938e-06 -2.1926277 4.5912746e-06)
(-3.9453929e-06 -2.1926212 4.5910978e-06)
(1.0555968e-06 -2.1926282 4.591003e-06)
(-8.276686e-06 -2.1923895 4.5879622e-06)
(-4.0725225e-06 2.5317504 -4.6521555e-06)
(-1.040908e-06 2.5320249 -4.6528178e-06)
(-3.0583832e-06 2.5320145 -4.6528918e-06)
(-1.4326191e-06 2.5320251 -4.6528347e-06)
(-1.7402884e-06 2.5320163 -4.6528603e-06)
(-1.6367641e-06 2.5320238 -4.6528306e-06)
(-4.9824768e-07 2.5320182 -4.6528461e-06)
(-1.5130208e-06 2.5320225 -4.6528316e-06)
(4.4445018e-07 2.5320198 -4.6528376e-06)
(-1.1030779e-06 2.5320212 -4.6528336e-06)
(1.1030785e-06 2.5320212 -4.6528338e-06)
(-4.4445101e-07 2.5320198 -4.6528379e-06)
(1.5130196e-06 2.5320225 -4.652832e-06)
(4.982449e-07 2.5320182 -4.6528454e-06)
(1.6367645e-06 2.5320238 -4.6528304e-06)
(1.7402874e-06 2.5320163 -4.6528603e-06)
(1.4326209e-06 2.5320251 -4.6528348e-06)
(3.058382e-06 2.5320145 -4.6528913e-06)
(1.0409087e-06 2.5320249 -4.6528171e-06)
(4.0725211e-06 2.5317504 -4.6521555e-06)
(2.2324997e-05 -3.0446641 7.5646528e-06)
(-1.4758194e-06 -3.045001 7.5663618e-06)
(5.3581193e-06 -3.0449899 7.5665131e-06)
(3.8865741e-06 -3.0450004 7.5664337e-06)
(-5.5002391e-07 -3.0449912 7.5664449e-06)
(5.250975e-06 -3.0449989 7.5664543e-06)
(-2.937879e-06 -3.0449928 7.5664345e-06)
(5.3037714e-06 -3.0449974 7.5664542e-06)
(-4.1245736e-06 -3.0449944 7.5664449e-06)
(4.8580934e-06 -3.0449959 7.5664456e-06)
(-4.8581031e-06 -3.0449959 7.5664518e-06)
(4.1245634e-06 -3.0449944 7.5664375e-06)
(-5.3037806e-06 -3.0449974 7.5664543e-06)
(2.9378688e-06 -3.0449928 7.5664334e-06)
(-5.250984e-06 -3.0449989 7.5664578e-06)
(5.5001316e-07 -3.0449912 7.5664461e-06)
(-3.8865734e-06 -3.0450004 7.5664367e-06)
(-5.3581254e-06 -3.0449899 7.5665173e-06)
(1.4758181e-06 -3.045001 7.5663606e-06)
(-2.2324997e-05 -3.0446641 7.5646543e-06)
(-1.8282578e-05 3.5389525 -7.0189935e-06)
(8.5851484e-07 3.5393721 -7.0204631e-06)
(-5.398199e-06 3.5393368 -7.020709e-06)
(-3.604343e-06 3.539362 -7.020616e-06)
(-4.0267698e-07 3.5393425 -7.0206328e-06)
(-4.8088031e-06 3.5393568 -7.0206532e-06)
(1.908237e-06 3.539346 -7.0206252e-06)
(-4.7780027e-06 3.5393535 -7.0206558e-06)
(3.2537171e-06 3.5393486 -7.0206339e-06)
(-4.1838286e-06 3.5393509 -7.0206467e-06)
(4.1838312e-06 3.5393509 -7.0206457e-06)
(-3.253713e-06 3.5393486 -7.0206334e-06)
(4.7780048e-06 3.5393535 -7.0206555e-06)
(-1.9082334e-06 3.539346 -7.020625e-06)
(4.8088029e-06 3.5393568 -7.0206534e-06)
(4.0267833e-07 3.5393425 -7.0206321e-06)
(3.6043414e-06 3.539362 -7.0206195e-06)
(5.3981976e-06 3.5393368 -7.0207089e-06)
(-8.5851636e-07 3.5393721 -7.0204632e-06)
(1.8282578e-05 3.5389525 -7.0189933e-06)
(-1.3838447e-05 -4.2225527 -0.00011998806)
(1.8636285e-05 -4.2230557 -0.00011999987)
(-1.1195667e-05 -4.2230196 -0.00012000486)
(1.5370955e-05 -4.2230468 -0.00012000414)
(-9.9680349e-06 -4.2230252 -0.00012000419)
(1.3088558e-05 -4.2230415 -0.00012000431)
(-9.6008813e-06 -4.223029 -0.0001200042)
(1.1476541e-05 -4.2230378 -0.00012000427)
(-9.7765219e-06 -4.223032 -0.00012000422)
(1.0395528e-05 -4.2230348 -0.00012000425)
(-1.0395525e-05 -4.2230348 -0.00012000425)
(9.7765241e-06 -4.223032 -0.00012000422)
(-1.1476537e-05 -4.2230378 -0.00012000428)
(9.6008815e-06 -4.223029 -0.0001200042)
(-1.3088555e-05 -4.2230415 -0.00012000431)
(9.9680339e-06 -4.2230252 -0.00012000419)
(-1.5370953e-05 -4.2230468 -0.00012000414)
(1.1195666e-05 -4.2230196 -0.00012000486)
(-1.8636282e-05 -4.2230557 -0.00011999986)
(1.3838446e-05 -4.2225527 -0.00011998806)
(-8.4657458e-05 0.94577067 5.6304016e-05)
(5.0419834e-06 0.94584277 5.6373178e-05)
(-8.9915396e-06 0.94585613 5.6369219e-05)
(1.1738406e-06 0.94585559 5.6370875e-05)
(-2.6555719e-06 0.94585595 5.6370622e-05)
(7.9081362e-07 0.94585693 5.637073e-05)
(-1.5307341e-06 0.94585624 5.6370678e-05)
(8.6033428e-07 0.94585712 5.637072e-05)
(-1.1761591e-06 0.94585662 5.6370697e-05)
(9.976549e-07 0.94585695 5.6370712e-05)
(-9.9765533e-07 0.94585695 5.6370711e-05)
(1.1761608e-06 0.94585662 5.6370697e-05)
(-8.603313e-07 0.94585712 5.6370724e-05)
(1.5307374e-06 0.94585624 5.6370676e-05)
(-7.9080897e-07 0.94585693 5.6370732e-05)
(2.6555724e-06 0.94585595 5.637062e-05)
(-1.1738389e-06 0.94585559 5.6370874e-05)
(8.9915381e-06 0.94585613 5.6369216e-05)
(-5.0419885e-06 0.94584277 5.6373179e-05)
(8.4657455e-05 0.94577067 5.6304014e-05)
(1.6067632e-05 -1.1464829 1.8151639e-05)
(2.4565714e-06 -1.1466238 1.8112128e-05)
(-3.8159106e-06 -1.1466106 1.8113277e-05)
(1.121245e-06 -1.1466133 1.8112335e-05)
(-2.0873465e-06 -1.1466115 1.8112431e-05)
(9.3314914e-07 -1.146613 1.8112424e-05)
(-1.4460021e-06 -1.146612 1.8112425e-05)
(1.0395215e-06 -1.146613 1.8112438e-05)
(-1.2577057e-06 -1.1466124 1.8112432e-05)
(1.1547549e-06 -1.1466128 1.8112437e-05)
(-1.1547537e-06 -1.1466128 1.8112437e-05)
(1.2577081e-06 -1.1466124 1.8112432e-05)
(-1.0395177e-06 -1.146613 1.8112437e-05)
(1.446007e-06 -1.146612 1.8112424e-05)
(-9.3314361e-07 -1.146613 1.8112424e-05)
(2.0873492e-06 -1.1466115 1.8112431e-05)
(-1.121242e-06 -1.1466133 1.8112335e-05)
(3.8159062e-06 -1.1466106 1.8113277e-05)
(-2.4565744e-06 -1.1466238 1.8112128e-05)
(-1.6067637e-05 -1.1464829 1.815164e-05)
(1.0346236e-05 1.2958523 1.0604896e-05)
(4.6254848e-07 1.2959685 1.0558767e-05)
(-4.1705907e-06 1.2959778 1.0558935e-05)
(6.2407679e-07 1.2959757 1.055708e-05)
(-2.5560533e-06 1.2959771 1.0557202e-05)
(4.9771181e-07 1.2959781 1.0557105e-05)
(-1.5167435e-06 1.2959774 1.0557126e-05)
(5.763994e-07 1.2959786 1.0557131e-05)
(-1.0193609e-06 1.2959779 1.055713e-05)
(7.5017569e-07 1.2959784 1.0557135e-05)
(-7.5017803e-07 1.2959784 1.0557134e-05)
(1.0193598e-06 1.2959779 1.0557131e-05)
(-5.7639907e-07 1.2959786 1.055713e-05)
(1.5167448e-06 1.2959774 1.0557128e-05)
(-4.9770912e-07 1.2959781 1.0557105e-05)
(2.5560543e-06 1.2959771 1.0557202e-05)
(-6.2407608e-07 1.2959757 1.055708e-05)
(4.1705885e-06 1.2959778 1.0558934e-05)
(-4.6255212e-07 1.2959685 1.0558767e-05)
(-1.0346239e-05 1.2958523 1.0604901e-05)
(8.2080355e-06 -1.5827537 1.0815229e-06)
(-2.9249733e-07 -1.5829304 1.1161952e-06)
(1.548207e-06 -1.5829218 1.1162886e-06)
(6.9767583e-07 -1.5829268 1.1178436e-06)
(-4.1545193e-07 -1.582923 1.1177934e-06)
(1.2211412e-06 -1.5829258 1.1178775e-06)
(-1.1243015e-06 -1.5829237 1.1178646e-06)
(1.4834681e-06 -1.5829254 1.117866e-06)
(-1.4354836e-06 -1.5829244 1.1178663e-06)
(1.5434693e-06 -1.5829249 1.117864e-06)
(-1.5434661e-06 -1.5829249 1.1178638e-06)
(1.4354889e-06 -1.5829244 1.1178659e-06)
(-1.4834626e-06 -1.5829254 1.1178657e-06)
(1.12431e-06 -1.5829237 1.1178646e-06)
(-1.2211348e-06 -1.5829258 1.1178757e-06)
(4.1546182e-07 -1.582923 1.1177937e-06)
(-6.9767366e-07 -1.5829268 1.1178442e-06)
(-1.5482002e-06 -1.5829218 1.1162884e-06)
(2.9249323e-07 -1.5829304 1.1161928e-06)
(-8.2080329e-06 -1.5827537 1.081524e-06)
(2.7749242e-06 1.8123911 1.3308252e-06)
(-1.3048199e-06 1.8125771 1.3300026e-06)
(-2.4531138e-06 1.8125759 1.3300393e-06)
(-2.6562953e-07 1.8125787 1.3296843e-06)
(-2.1993737e-06 1.8125763 1.3297418e-06)
(-1.8176299e-07 1.8125794 1.3296965e-06)
(-1.2740889e-06 1.8125772 1.3297147e-06)
(-6.3118369e-08 1.8125794 1.3297139e-06)
(-6.0496633e-07 1.8125781 1.3297148e-06)
(1.8968657e-07 1.8125789 1.3297166e-06)
(-1.8969173e-07 1.8125789 1.3297162e-06)
(6.0496289e-07 1.8125781 1.3297147e-06)
(6.3113772e-08 1.8125794 1.3297134e-06)
(1.274089e-06 1.8125772 1.3297148e-06)
(1.8176175e-07 1.8125794 1.3296929e-06)
(2.1993739e-06 1.8125763 1.3297397e-06)
(2.6563063e-07 1.8125787 1.3296841e-06)
(2.4531146e-06 1.8125759 1.3300455e-06)
(1.3048165e-06 1.8125771 1.3300027e-06)
(-2.7749264e-06 1.8123911 1.3308264e-06)
(8.2814776e-06 -2.1933182 7.3800354e-08)
(-1.0548364e-06 -2.1935571 7.5320134e-08)
(3.9469991e-06 -2.19355 7.5440875e-08)
(1.1421485e-06 -2.1935566 7.5612019e-08)
(6.2622755e-07 -2.193551 7.562526e-08)
(2.2239025e-06 -2.1935556 7.5623155e-08)
(-1.1634065e-06 -2.1935521 7.5635026e-08)
(2.572628e-06 -2.1935548 7.562352e-08)
(-2.0612077e-06 -2.1935531 7.5631009e-08)
(2.4863539e-06 -2.1935539 7.5627005e-08)
(-2.48635e-06 -2.1935539 7.5626438e-08)
(2.0612144e-06 -2.1935531 7.5631853e-08)
(-2.5726244e-06 -2.1935548 7.5623938e-08)
(1.1634123e-06 -2.1935521 7.5634898e-08)
(-2.2238954e-06 -2.1935556 7.5622885e-08)
(-6.2622117e-07 -2.193551 7.5625239e-08)
(-1.1421424e-06 -2.1935566 7.5611842e-08)
(-3.9469911e-06 -2.19355 7.5440484e-08)
(1.054839e-06 -2.1935571 7.5320609e-08)
(-8.2814754e-06 -2.1933182 7.3799764e-08)
(-4.0749244e-06 2.5328093 -2.5639531e-07)
(-1.0412691e-06 2.533084 -2.5594466e-07)
(-3.0596612e-06 2.5330736 -2.5598422e-07)
(-1.4333104e-06 2.5330842 -2.5596927e-07)
(-1.7410323e-06 2.5330754 -2.5597171e-07)
(-1.637437e-06 2.5330829 -2.5596148e-07)
(-4.9852451e-07 2.5330773 -2.5596844e-07)
(-1.5135654e-06 2.5330816 -2.5596143e-07)
(4.4452988e-07 2.5330789 -2.5596601e-07)
(-1.103425e-06 2.5330803 -2.5596214e-07)
(1.1034249e-06 2.5330803 -2.5596283e-07)
(-4.4453042e-07 2.5330789 -2.5596497e-07)
(1.5135648e-06 2.5330816 -2.5596061e-07)
(4.9852089e-07 2.5330773 -2.5596855e-07)
(1.6374384e-06 2.5330829 -2.5596094e-07)
(1.7410312e-06 2.5330754 -2.5597214e-07)
(1.4333106e-06 2.5330842 -2.5596901e-07)
(3.0596609e-06 2.5330736 -2.5598349e-07)
(1.0412707e-06 2.533084 -2.5594435e-07)
(4.0749229e-06 2.5328093 -2.5639492e-07)
(2.2333394e-05 -3.045971 3.0723379e-06)
(-1.4762828e-06 -3.0463082 3.0718679e-06)
(5.3600376e-06 -3.0462971 3.0717186e-06)
(3.8881264e-06 -3.0463076 3.0717772e-06)
(-5.5005563e-07 -3.0462984 3.0717171e-06)
(5.2527963e-06 -3.0463061 3.0717509e-06)
(-2.9386984e-06 -3.0463 3.071726e-06)
(5.305474e-06 -3.0463046 3.0717422e-06)
(-4.1257891e-06 -3.0463016 3.0717253e-06)
(4.859579e-06 -3.0463031 3.0717373e-06)
(-4.8595883e-06 -3.0463031 3.071731e-06)
(4.1257792e-06 -3.0463016 3.0717324e-06)
(-5.3054844e-06 -3.0463046 3.0717428e-06)
(2.9386877e-06 -3.0463 3.071728e-06)
(-5.2528063e-06 -3.0463061 3.0717497e-06)
(5.5004941e-07 -3.0462984 3.0717133e-06)
(-3.8881355e-06 -3.0463076 3.0717751e-06)
(-5.3600374e-06 -3.0462971 3.0717169e-06)
(1.4762827e-06 -3.0463082 3.071867e-06)
(-2.2333393e-05 -3.045971 3.072337e-06)
(-1.8289705e-05 3.5404789 -2.2106334e-06)
(8.5875275e-07 3.5408987 -2.2100941e-06)
(-5.4002167e-06 3.5408635 -2.2100463e-06)
(-3.6058121e-06 3.5408886 -2.210071e-06)
(-4.03019e-07 3.5408692 -2.210027e-06)
(-4.8105066e-06 3.5408834 -2.2100591e-06)
(1.908677e-06 3.5408726 -2.2100355e-06)
(-4.7795505e-06 3.5408801 -2.2100533e-06)
(3.2546277e-06 3.5408752 -2.2100431e-06)
(-4.185092e-06 3.5408775 -2.2100482e-06)
(4.1850943e-06 3.5408775 -2.2100478e-06)
(-3.2546231e-06 3.5408752 -2.2100423e-06)
(4.7795523e-06 3.5408801 -2.2100528e-06)
(-1.9086734e-06 3.5408726 -2.2100353e-06)
(4.810507e-06 3.5408834 -2.2100587e-06)
(4.0302005e-07 3.5408692 -2.2100269e-06)
(3.6058104e-06 3.5408886 -2.2100674e-06)
(5.4002153e-06 3.5408635 -2.2100456e-06)
(-8.587542e-07 3.5408987 -2.2100941e-06)
(1.8289705e-05 3.5404789 -2.2106331e-06)
(-1.3883228e-05 -4.2244118 0.0001266534)
(1.8650386e-05 -4.2249151 0.00012668483)
(-1.120146e-05 -4.224879 0.00012667845)
(1.5376746e-05 -4.2249062 0.00012668016)
(-9.9711759e-06 -4.2248846 0.00012667934)
(1.309297e-05 -4.2249009 0.00012667978)
(-9.6037281e-06 -4.2248884 0.00012667948)
(1.148021e-05 -4.2248972 0.00012667968)
(-9.7794306e-06 -4.2248914 0.00012667955)
(1.0398712e-05 -4.2248942 0.00012667961)
(-1.0398708e-05 -4.2248942 0.00012667961)
(9.7794324e-06 -4.2248914 0.00012667955)
(-1.1480207e-05 -4.2248972 0.00012667968)
(9.603728e-06 -4.2248884 0.00012667948)
(-1.3092967e-05 -4.2249009 0.00012667978)
(9.9711742e-06 -4.2248846 0.00012667934)
(-1.5376744e-05 -4.2249062 0.00012668016)
(1.1201459e-05 -4.224879 0.00012667845)
(-1.8650384e-05 -4.2249151 0.00012668483)
(1.3883229e-05 -4.2244118 0.0001266534)
(-8.4657457e-05 0.94577067 -5.6304033e-05)
(5.0419833e-06 0.94584277 -5.6373198e-05)
(-8.9915397e-06 0.94585613 -5.6369236e-05)
(1.1738406e-06 0.94585559 -5.6370893e-05)
(-2.655572e-06 0.94585595 -5.637064e-05)
(7.908143e-07 0.94585693 -5.6370748e-05)
(-1.5307333e-06 0.94585624 -5.6370697e-05)
(8.6033433e-07 0.94585712 -5.6370739e-05)
(-1.1761593e-06 0.94585662 -5.6370716e-05)
(9.9765505e-07 0.94585695 -5.6370731e-05)
(-9.976554e-07 0.94585695 -5.6370731e-05)
(1.1761597e-06 0.94585662 -5.6370716e-05)
(-8.6033137e-07 0.94585712 -5.6370741e-05)
(1.5307374e-06 0.94585624 -5.6370695e-05)
(-7.9080904e-07 0.94585693 -5.6370748e-05)
(2.6555734e-06 0.94585595 -5.637064e-05)
(-1.1738394e-06 0.94585559 -5.6370893e-05)
(8.991538e-06 0.94585613 -5.6369236e-05)
(-5.0419895e-06 0.94584277 -5.6373198e-05)
(8.4657454e-05 0.94577067 -5.6304034e-05)
(1.6067632e-05 -1.1464829 -1.8151662e-05)
(2.456572e-06 -1.1466238 -1.8112153e-05)
(-3.8159117e-06 -1.1466106 -1.8113302e-05)
(1.1212464e-06 -1.1466133 -1.811236e-05)
(-2.0873477e-06 -1.1466115 -1.8112456e-05)
(9.3314998e-07 -1.146613 -1.8112449e-05)
(-1.4460023e-06 -1.146612 -1.8112451e-05)
(1.0395216e-06 -1.146613 -1.8112463e-05)
(-1.2577056e-06 -1.1466124 -1.8112457e-05)
(1.154755e-06 -1.1466128 -1.8112462e-05)
(-1.1547538e-06 -1.1466128 -1.8112462e-05)
(1.2577075e-06 -1.1466124 -1.8112458e-05)
(-1.0395177e-06 -1.146613 -1.8112464e-05)
(1.4460076e-06 -1.146612 -1.811245e-05)
(-9.3314417e-07 -1.146613 -1.8112449e-05)
(2.0873503e-06 -1.1466115 -1.8112456e-05)
(-1.1212432e-06 -1.1466133 -1.8112359e-05)
(3.8159072e-06 -1.1466106 -1.8113302e-05)
(-2.4565746e-06 -1.1466238 -1.8112153e-05)
(-1.6067637e-05 -1.1464829 -1.815166e-05)
(1.0346236e-05 1.2958523 -1.060491e-05)
(4.6255048e-07 1.2959685 -1.0558781e-05)
(-4.1705931e-06 1.2959778 -1.0558949e-05)
(6.2407881e-07 1.2959757 -1.0557095e-05)
(-2.5560543e-06 1.2959771 -1.0557217e-05)
(4.977121e-07 1.2959781 -1.055712e-05)
(-1.5167434e-06 1.2959774 -1.0557141e-05)
(5.7639914e-07 1.2959786 -1.0557145e-05)
(-1.0193602e-06 1.2959779 -1.0557146e-05)
(7.5017537e-07 1.2959784 -1.055715e-05)
(-7.5017786e-07 1.2959784 -1.0557151e-05)
(1.019359e-06 1.2959779 -1.0557146e-05)
(-5.7639868e-07 1.2959786 -1.0557146e-05)
(1.5167453e-06 1.2959774 -1.0557144e-05)
(-4.9770979e-07 1.2959781 -1.0557121e-05)
(2.5560553e-06 1.2959771 -1.0557216e-05)
(-6.2407751e-07 1.2959757 -1.0557095e-05)
(4.1705897e-06 1.2959778 -1.0558951e-05)
(-4.6255369e-07 1.2959685 -1.0558782e-05)
(-1.0346238e-05 1.2958523 -1.0604914e-05)
(8.2080346e-06 -1.5827537 -1.0815275e-06)
(-2.9249544e-07 -1.5829304 -1.1161992e-06)
(1.5482058e-06 -1.5829218 -1.1162931e-06)
(6.9767764e-07 -1.5829268 -1.1178487e-06)
(-4.1545342e-07 -1.582923 -1.1177993e-06)
(1.221141e-06 -1.5829258 -1.1178825e-06)
(-1.1243016e-06 -1.5829237 -1.1178692e-06)
(1.4834682e-06 -1.5829254 -1.1178702e-06)
(-1.4354828e-06 -1.5829244 -1.1178704e-06)
(1.5434691e-06 -1.5829249 -1.1178689e-06)
(-1.543466e-06 -1.5829249 -1.1178689e-06)
(1.4354881e-06 -1.5829244 -1.1178703e-06)
(-1.4834623e-06 -1.5829254 -1.1178703e-06)
(1.1243094e-06 -1.5829237 -1.1178693e-06)
(-1.2211343e-06 -1.5829258 -1.117881e-06)
(4.1546174e-07 -1.582923 -1.1177992e-06)
(-6.9767384e-07 -1.5829268 -1.1178486e-06)
(-1.5482003e-06 -1.5829218 -1.116293e-06)
(2.9249292e-07 -1.5829304 -1.1161978e-06)
(-8.2080327e-06 -1.5827537 -1.0815283e-06)
(2.7749249e-06 1.8123911 -1.3308273e-06)
(-1.3048177e-06 1.8125771 -1.3300068e-06)
(-2.453117e-06 1.8125759 -1.3300428e-06)
(-2.6562848e-07 1.8125787 -1.329686e-06)
(-2.1993731e-06 1.8125763 -1.3297445e-06)
(-1.817618e-07 1.8125794 -1.329701e-06)
(-1.2740898e-06 1.8125772 -1.3297187e-06)
(-6.3117338e-08 1.8125794 -1.3297174e-06)
(-6.049661e-07 1.8125781 -1.3297189e-06)
(1.8968666e-07 1.8125789 -1.32972e-06)
(-1.8969149e-07 1.8125789 -1.3297203e-06)
(6.0496203e-07 1.8125781 -1.3297192e-06)
(6.3114228e-08 1.8125794 -1.3297181e-06)
(1.2740883e-06 1.8125772 -1.3297184e-06)
(1.8176217e-07 1.8125794 -1.3296964e-06)
(2.1993734e-06 1.8125763 -1.3297434e-06)
(2.6562871e-07 1.8125787 -1.3296862e-06)
(2.4531155e-06 1.8125759 -1.330047e-06)
(1.3048183e-06 1.8125771 -1.3300063e-06)
(-2.7749263e-06 1.8123911 -1.3308304e-06)
(8.2814768e-06 -2.1933182 -7.3800418e-08)
(-1.0548353e-06 -2.1935571 -7.5321525e-08)
(3.9469949e-06 -2.19355 -7.5441037e-08)
(1.1421522e-06 -2.1935566 -7.5611571e-08)
(6.262256e-07 -2.193551 -7.562635e-08)
(2.2239035e-06 -2.1935556 -7.5622989e-08)
(-1.1634063e-06 -2.1935521 -7.5635041e-08)
(2.5726293e-06 -2.1935548 -7.5623322e-08)
(-2.0612083e-06 -2.1935531 -7.5631385e-08)
(2.4863535e-06 -2.1935539 -7.5627228e-08)
(-2.486349e-06 -2.1935539 -7.5627854e-08)
(2.061213e-06 -2.1935531 -7.563137e-08)
(-2.5726238e-06 -2.1935548 -7.562351e-08)
(1.1634121e-06 -2.1935521 -7.5635536e-08)
(-2.2238956e-06 -2.1935556 -7.5622932e-08)
(-6.2622094e-07 -2.193551 -7.5625659e-08)
(-1.1421428e-06 -2.1935566 -7.5612538e-08)
(-3.9469911e-06 -2.19355 -7.5441564e-08)
(1.0548392e-06 -2.1935571 -7.5321294e-08)
(-8.2814754e-06 -2.1933182 -7.3800934e-08)
(-4.074924e-06 2.5328093 2.5639343e-07)
(-1.0412704e-06 2.533084 2.5594419e-07)
(-3.0596593e-06 2.5330736 2.5598322e-07)
(-1.4333111e-06 2.5330842 2.5596825e-07)
(-1.7410319e-06 2.5330754 2.5597168e-07)
(-1.6374378e-06 2.5330829 2.5596134e-07)
(-4.985255e-07 2.5330773 2.5596864e-07)
(-1.5135625e-06 2.5330816 2.5596051e-07)
(4.4452872e-07 2.5330789 2.5596476e-07)
(-1.1034248e-06 2.5330803 2.559624e-07)
(1.1034254e-06 2.5330803 2.5596221e-07)
(-4.4453189e-07 2.5330789 2.559651e-07)
(1.5135658e-06 2.5330816 2.5596087e-07)
(4.9852077e-07 2.5330773 2.559683e-07)
(1.6374383e-06 2.5330829 2.55961e-07)
(1.741031e-06 2.5330754 2.559718e-07)
(1.4333112e-06 2.5330842 2.5596852e-07)
(3.0596603e-06 2.5330736 2.5598297e-07)
(1.0412707e-06 2.533084 2.5594424e-07)
(4.0749225e-06 2.5328093 2.5639384e-07)
(2.2333393e-05 -3.045971 -3.0723394e-06)
(-1.4762852e-06 -3.0463082 -3.071866e-06)
(5.3600401e-06 -3.0462971 -3.0717183e-06)
(3.8881263e-06 -3.0463076 -3.0717781e-06)
(-5.5005559e-07 -3.0462984 -3.0717159e-06)
(5.2527966e-06 -3.0463061 -3.0717519e-06)
(-2.9386985e-06 -3.0463 -3.071725e-06)
(5.3054771e-06 -3.0463046 -3.071743e-06)
(-4.12579e-06 -3.0463016 -3.0717266e-06)
(4.8595773e-06 -3.0463031 -3.0717373e-06)
(-4.8595887e-06 -3.0463031 -3.0717305e-06)
(4.1257807e-06 -3.0463016 -3.0717327e-06)
(-5.3054842e-06 -3.0463046 -3.0717424e-06)
(2.9386895e-06 -3.0463 -3.0717275e-06)
(-5.2528062e-06 -3.0463061 -3.0717497e-06)
(5.5004886e-07 -3.0462984 -3.0717147e-06)
(-3.8881354e-06 -3.0463076 -3.071776e-06)
(-5.3600414e-06 -3.0462971 -3.0717157e-06)
(1.476282e-06 -3.0463082 -3.0718664e-06)
(-2.2333393e-05 -3.045971 -3.0723362e-06)
(-1.8289705e-05 3.5404789 2.2106331e-06)
(8.5875168e-07 3.5408987 2.2100942e-06)
(-5.4002157e-06 3.5408635 2.2100456e-06)
(-3.6058124e-06 3.5408886 2.2100705e-06)
(-4.0301883e-07 3.5408692 2.2100267e-06)
(-4.8105066e-06 3.5408834 2.2100587e-06)
(1.9086769e-06 3.5408726 2.2100352e-06)
(-4.7795506e-06 3.5408801 2.2100522e-06)
(3.254627e-06 3.5408752 2.2100424e-06)
(-4.1850908e-06 3.5408775 2.2100478e-06)
(4.1850939e-06 3.5408775 2.2100474e-06)
(-3.2546229e-06 3.5408752 2.2100424e-06)
(4.7795524e-06 3.5408801 2.2100527e-06)
(-1.9086738e-06 3.5408726 2.2100348e-06)
(4.8105069e-06 3.5408834 2.2100586e-06)
(4.030203e-07 3.5408692 2.2100266e-06)
(3.6058105e-06 3.5408886 2.2100669e-06)
(5.4002144e-06 3.5408635 2.2100459e-06)
(-8.587536e-07 3.5408987 2.2100941e-06)
(1.8289705e-05 3.5404789 2.2106328e-06)
(-1.3883229e-05 -4.2244118 -0.0001266534)
(1.8650383e-05 -4.2249151 -0.00012668483)
(-1.1201454e-05 -4.224879 -0.00012667845)
(1.5376745e-05 -4.2249062 -0.00012668016)
(-9.9711753e-06 -4.2248846 -0.00012667934)
(1.309297e-05 -4.2249009 -0.00012667978)
(-9.6037281e-06 -4.2248884 -0.00012667948)
(1.148021e-05 -4.2248972 -0.00012667968)
(-9.7794306e-06 -4.2248914 -0.00012667955)
(1.0398712e-05 -4.2248942 -0.00012667961)
(-1.0398708e-05 -4.2248942 -0.00012667961)
(9.7794322e-06 -4.2248914 -0.00012667955)
(-1.1480207e-05 -4.2248972 -0.00012667968)
(9.6037286e-06 -4.2248884 -0.00012667947)
(-1.3092967e-05 -4.2249009 -0.00012667978)
(9.9711754e-06 -4.2248846 -0.00012667934)
(-1.5376744e-05 -4.2249062 -0.00012668016)
(1.1201457e-05 -4.224879 -0.00012667845)
(-1.8650384e-05 -4.2249151 -0.00012668483)
(1.3883229e-05 -4.2244118 -0.0001266534)
(-8.4627587e-05 0.9454504 0.00015926182)
(5.0103378e-06 0.94552254 0.00015922562)
(-8.9873205e-06 0.94553589 0.00015923294)
(1.1729323e-06 0.94553535 0.00015923105)
(-2.6545925e-06 0.94553571 0.00015923152)
(7.9062274e-07 0.94553669 0.00015923156)
(-1.5302272e-06 0.945536 0.00015923154)
(8.601083e-07 0.94553688 0.00015923163)
(-1.1757937e-06 0.94553638 0.00015923159)
(9.9736682e-07 0.94553671 0.00015923163)
(-9.9736724e-07 0.94553671 0.00015923163)
(1.1757943e-06 0.94553638 0.00015923159)
(-8.6010516e-07 0.94553688 0.00015923163)
(1.5302272e-06 0.945536 0.00015923153)
(-7.9061407e-07 0.94553669 0.00015923156)
(2.6545934e-06 0.94553571 0.00015923152)
(-1.1729307e-06 0.94553535 0.00015923105)
(8.9873187e-06 0.94553589 0.00015923294)
(-5.0103434e-06 0.94552254 0.00015922562)
(8.4627584e-05 0.9454504 0.00015926182)
(1.6082261e-05 -1.1459583 -1.9658061e-05)
(2.4758619e-06 -1.1460994 -1.9619844e-05)
(-3.8149259e-06 -1.1460862 -1.9621018e-05)
(1.1214446e-06 -1.1460889 -1.9620112e-05)
(-2.0867381e-06 -1.1460871 -1.9620181e-05)
(9.3292712e-07 -1.1460887 -1.9620195e-05)
(-1.4455569e-06 -1.1460876 -1.962018e-05)
(1.0392414e-06 -1.1460886 -1.9620203e-05)
(-1.2573301e-06 -1.146088 -1.9620191e-05)
(1.1544265e-06 -1.1460884 -1.9620199e-05)
(-1.1544255e-06 -1.1460884 -1.9620199e-05)
(1.2573323e-06 -1.146088 -1.9620191e-05)
(-1.0392374e-06 -1.1460886 -1.9620203e-05)
(1.4455621e-06 -1.1460876 -1.962018e-05)
(-9.3292169e-07 -1.1460887 -1.9620195e-05)
(2.0867407e-06 -1.1460871 -1.9620182e-05)
(-1.1214415e-06 -1.1460889 -1.9620112e-05)
(3.8149218e-06 -1.1460862 -1.9621019e-05)
(-2.475864e-06 -1.1460994 -1.9619843e-05)
(-1.6082265e-05 -1.1459583 -1.9658061e-05)
(1.0367291e-05 1.2953433 -6.9528415e-06)
(4.8608509e-07 1.2954597 -6.9064585e-06)
(-4.1682112e-06 1.295469 -6.9068487e-06)
(6.2494915e-07 1.295467 -6.9049588e-06)
(-2.5551606e-06 1.2954683 -6.9051072e-06)
(4.9770788e-07 1.2954694 -6.9050175e-06)
(-1.5162378e-06 1.2954686 -6.9050395e-06)
(5.7628618e-07 1.2954698 -6.9050479e-06)
(-1.0190402e-06 1.2954692 -6.905043e-06)
(7.4997149e-07 1.2954696 -6.9050502e-06)
(-7.4997394e-07 1.2954696 -6.90505e-06)
(1.0190389e-06 1.2954692 -6.9050431e-06)
(-5.762857e-07 1.2954698 -6.9050478e-06)
(1.5162397e-06 1.2954686 -6.9050367e-06)
(-4.9770572e-07 1.2954694 -6.9050173e-06)
(2.5551618e-06 1.2954683 -6.9051074e-06)
(-6.2494808e-07 1.295467 -6.9049589e-06)
(4.168208e-06 1.295469 -6.9068488e-06)
(-4.8608775e-07 1.2954597 -6.9064585e-06)
(-1.0367294e-05 1.2953433 -6.9528359e-06)
(8.1869491e-06 -1.5820845 -5.331467e-06)
(-3.0983532e-07 -1.5822611 -5.3677594e-06)
(1.5467836e-06 -1.5822525 -5.3676415e-06)
(6.9667558e-07 -1.5822575 -5.3692788e-06)
(-4.1538657e-07 -1.5822537 -5.3691668e-06)
(1.2207239e-06 -1.5822565 -5.3692666e-06)
(-1.1239723e-06 -1.5822544 -5.3692392e-06)
(1.4830271e-06 -1.5822561 -5.3692454e-06)
(-1.4350626e-06 -1.5822551 -5.3692408e-06)
(1.5430193e-06 -1.5822556 -5.3692404e-06)
(-1.5430164e-06 -1.5822556 -5.3692403e-06)
(1.4350679e-06 -1.5822551 -5.3692414e-06)
(-1.483021e-06 -1.5822561 -5.3692456e-06)
(1.1239804e-06 -1.5822544 -5.3692388e-06)
(-1.2207175e-06 -1.5822565 -5.3692683e-06)
(4.1539646e-07 -1.5822537 -5.3691671e-06)
(-6.9667186e-07 -1.5822575 -5.3692788e-06)
(-1.5467795e-06 -1.5822525 -5.3676415e-06)
(3.0983287e-07 -1.5822611 -5.367761e-06)
(-8.1869468e-06 -1.5820845 -5.3314665e-06)
(2.775878e-06 1.8116489 2.9261513e-06)
(-1.3037229e-06 1.8118348 2.9277232e-06)
(-2.4519143e-06 1.8118337 2.9275835e-06)
(-2.6516453e-07 1.8118364 2.9279681e-06)
(-2.1985362e-06 1.811834 2.9278932e-06)
(-1.8154366e-07 1.8118371 2.9279258e-06)
(-1.2736138e-06 1.8118349 2.927918e-06)
(-6.3016737e-08 1.8118371 2.9279109e-06)
(-6.0475014e-07 1.8118358 2.9279133e-06)
(1.8965109e-07 1.8118366 2.9279084e-06)
(-1.8965616e-07 1.8118366 2.9279081e-06)
(6.0474587e-07 1.8118358 2.9279128e-06)
(6.3013649e-08 1.8118371 2.9279106e-06)
(1.2736126e-06 1.8118349 2.9279177e-06)
(1.8154346e-07 1.8118371 2.9279219e-06)
(2.1985366e-06 1.811834 2.9278919e-06)
(2.6516566e-07 1.8118364 2.9279678e-06)
(2.451913e-06 1.8118337 2.927588e-06)
(1.3037229e-06 1.8118348 2.9277233e-06)
(-2.77588e-06 1.8116489 2.9261543e-06)
(8.276688e-06 -2.1923895 -4.5879623e-06)
(-1.0555936e-06 -2.1926282 -4.5910024e-06)
(3.9453992e-06 -2.1926212 -4.5910971e-06)
(1.1415012e-06 -2.1926277 -4.5912744e-06)
(6.2591436e-07 -2.1926222 -4.59127e-06)
(2.223106e-06 -2.1926267 -4.591273e-06)
(-1.163111e-06 -2.1926232 -4.5912742e-06)
(2.5718092e-06 -2.1926259 -4.5912672e-06)
(-2.060614e-06 -2.1926242 -4.5912693e-06)
(2.4856069e-06 -2.1926251 -4.5912673e-06)