# y+ ()       
# Time        	patch         	min           	max           	average       
3.200148131375335	cylinder	4.903581e+00	6.513168e+01	3.863979e+01
