# y+ ()       
# Time        	patch         	min           	max           	average       
3.3001891645635064	cylinder	7.649743e+00	7.036123e+01	4.169842e+01
