/*--------------------------------*- C++ -*----------------------------------*\
  =========                 |
  \\      /  F ield         | OpenFOAM: The Open Source CFD Toolbox
   \\    /   O peration     | Website:  https://openfoam.org
    \\  /    A nd           | Version:  8
     \\/     M anipulation  |
\*---------------------------------------------------------------------------*/
FoamFile
{
    version     2.0;
    format      ascii;
    class       volScalarField;
    location    "2.0000073";
    object      alphat;
}
// * * * * * * * * * * * * * * * * * * * * * * * * * * * * * * * * * * * * * //

dimensions      [1 -1 -1 0 0 0 0];

internalField   nonuniform List<scalar> 
6800
(
0.0057452
0.00926132
0.0217234
0.0245878
0.0286926
0.0313955
0.025925
0.0219734
0.0133022
0.0101382
0.0050483
0.0149172
0.0246397
0.0270134
0.0329488
0.0295907
0.0209432
0.0128322
0.00939592
0.00889196
0.00643071
0.0191332
0.0251728
0.0300746
0.0322531
0.0208636
0.012609
0.00965363
0.00856576
0.00745606
0.00713221
0.0215558
0.0269019
0.0316486
0.0250409
0.0157804
0.0121517
0.00948066
0.00735172
0.00618037
0.00779454
0.0234886
0.02756
0.0314511
0.0193781
0.0128272
0.0085328
0.00697838
0.0061159
0.00574035
0.00831703
0.0243465
0.0289338
0.0278814
0.0162538
0.0100749
0.0085212
0.0076427
0.00658927
0.00586769
0.00884263
0.0269646
0.0313281
0.0219775
0.0114191
0.00893626
0.00734369
0.00626285
0.00545173
0.0050926
0.00925434
0.0286568
0.0312188
0.0161342
0.0114588
0.00855881
0.00721245
0.00630769
0.00567769
0.00527696
0.00969063
0.0319458
0.027993
0.014529
0.00863825
0.007444
0.0066072
0.00562124
0.00507187
0.00480883
0.0100242
0.0346223
0.02554
0.0126271
0.0101339
0.00810057
0.00656065
0.00581147
0.00526132
0.00495912
0.0346867
0.148061
0.205185
0.221213
0.225101
0.225553
0.227505
0.230702
0.234265
0.235769
0.0333122
0.142847
0.198475
0.214633
0.217259
0.215725
0.215539
0.216703
0.218234
0.21939
0.0308179
0.131537
0.184593
0.2022
0.203145
0.200289
0.198333
0.19652
0.194191
0.194155
0.0278457
0.11853
0.168388
0.185052
0.184403
0.180981
0.175518
0.17124
0.164714
0.154405
0.0247241
0.105683
0.15131
0.161983
0.158365
0.151811
0.142654
0.131724
0.120107
0.0902714
0.0219756
0.0941051
0.12895
0.130254
0.121238
0.111726
0.0961871
0.070123
0.0544317
0.0380387
0.0196037
0.0801504
0.0995087
0.0881579
0.075911
0.0542528
0.0395764
0.032387
0.0298418
0.0245597
0.0184402
0.0623702
0.0536084
0.0426874
0.0321007
0.0298462
0.0284861
0.0255052
0.024579
0.0212597
0.0156115
0.0298734
0.0241142
0.0237442
0.0263393
0.0278878
0.0271568
0.0244966
0.0233886
0.0195322
0.011026
0.011363
0.0198634
0.0227516
0.0267833
0.0290594
0.0277595
0.0235141
0.0221
0.0147868
0.236807
0.237118
0.235486
0.233416
0.231434
0.229675
0.228133
0.226839
0.225809
0.225012
0.224415
0.223938
0.223569
0.223309
0.223091
0.222931
0.222776
0.222707
0.222722
0.22279
0.222878
0.222966
0.223034
0.223073
0.223076
0.223041
0.222964
0.222849
0.222698
0.222513
0.222301
0.222065
0.221812
0.221546
0.22127
0.220986
0.220699
0.22041
0.220125
0.219843
0.219574
0.219318
0.219084
0.218868
0.218675
0.218506
0.218358
0.218232
0.218126
0.218039
0.217967
0.21791
0.217863
0.217822
0.217784
0.217745
0.217702
0.217652
0.217593
0.217524
0.217444
0.217353
0.217249
0.217135
0.217011
0.216877
0.216735
0.216586
0.216431
0.216272
0.216108
0.215942
0.215773
0.215603
0.215432
0.215261
0.21509
0.214919
0.214748
0.214578
0.21441
0.214243
0.214078
0.213916
0.213756
0.213602
0.213447
0.213303
0.213155
0.213026
0.212882
0.212773
0.212629
0.212548
0.212394
0.212346
0.212195
0.212116
0.212222
0.211855
0.220493
0.220836
0.219764
0.21819
0.216641
0.21526
0.214105
0.213233
0.212585
0.21215
0.21189
0.211708
0.211635
0.211667
0.211705
0.211839
0.212036
0.212301
0.21263
0.213011
0.213402
0.213771
0.214096
0.214369
0.214585
0.214747
0.214854
0.214911
0.214925
0.214896
0.214837
0.214756
0.214656
0.214538
0.214406
0.214259
0.214103
0.213942
0.213778
0.213612
0.213461
0.213323
0.213202
0.213097
0.213011
0.212945
0.212897
0.21287
0.212862
0.212868
0.212888
0.21292
0.212958
0.213
0.213041
0.213077
0.213104
0.213121
0.213127
0.21312
0.2131
0.213065
0.213017
0.212957
0.212886
0.212806
0.212716
0.212619
0.212516
0.212408
0.212296
0.212181
0.212064
0.211944
0.211823
0.2117
0.211576
0.211451
0.211326
0.211201
0.211076
0.210952
0.210828
0.210708
0.210587
0.210472
0.210356
0.210251
0.21014
0.21005
0.209941
0.209871
0.20976
0.209718
0.209595
0.209586
0.209463
0.209424
0.20956
0.209238
0.197077
0.195996
0.194442
0.192763
0.191267
0.19006
0.189188
0.188715
0.188452
0.188438
0.188597
0.188968
0.189503
0.190155
0.190965
0.191891
0.192878
0.193926
0.195024
0.196125
0.197159
0.1981
0.198938
0.199678
0.200323
0.200884
0.201363
0.201773
0.202127
0.202424
0.202692
0.202936
0.203146
0.203323
0.203467
0.203582
0.203675
0.203751
0.203816
0.203874
0.203926
0.203977
0.204032
0.204096
0.204171
0.20426
0.204364
0.204481
0.204612
0.204754
0.204904
0.20506
0.205217
0.205373
0.205517
0.205647
0.205765
0.205869
0.205959
0.206032
0.206087
0.206128
0.206155
0.206171
0.206176
0.206173
0.206161
0.206143
0.20612
0.206092
0.206061
0.206026
0.205987
0.205946
0.205901
0.205853
0.205802
0.205749
0.205694
0.205638
0.20558
0.205522
0.205463
0.205406
0.205348
0.205296
0.205241
0.205199
0.205147
0.205118
0.205066
0.205056
0.204998
0.205015
0.204941
0.20499
0.204913
0.204932
0.205116
0.204841
0.155076
0.155736
0.156779
0.157365
0.15803
0.158646
0.159438
0.160518
0.161579
0.162813
0.163984
0.165332
0.166814
0.168251
0.169744
0.171332
0.172812
0.174354
0.175967
0.177674
0.17924
0.180625
0.181847
0.182927
0.183877
0.184725
0.185467
0.186134
0.186734
0.187292
0.187761
0.188147
0.188474
0.188758
0.189008
0.189231
0.189438
0.189632
0.189823
0.190011
0.190204
0.190402
0.190608
0.190827
0.19106
0.191309
0.191575
0.191856
0.192153
0.19246
0.192775
0.193093
0.19341
0.193719
0.194024
0.194321
0.194604
0.194875
0.195126
0.195369
0.195602
0.195822
0.196029
0.196222
0.196401
0.196569
0.196723
0.196872
0.197015
0.19715
0.197276
0.197393
0.197501
0.1976
0.197691
0.197774
0.197849
0.197918
0.19798
0.198038
0.19809
0.19814
0.198186
0.198231
0.198273
0.198318
0.198356
0.198404
0.198438
0.198495
0.198524
0.198598
0.198615
0.198713
0.198708
0.198835
0.198822
0.198918
0.199175
0.198968
0.0893802
0.091102
0.0932898
0.0960411
0.0989084
0.101466
0.10438
0.107608
0.11022
0.113459
0.115799
0.118715
0.122053
0.124485
0.127384
0.130723
0.133013
0.135809
0.138792
0.142203
0.144857
0.147114
0.149125
0.150946
0.152603
0.154139
0.155533
0.156861
0.158119
0.1593
0.160423
0.161482
0.16248
0.163423
0.16432
0.165172
0.165992
0.166779
0.167547
0.168291
0.169023
0.169742
0.170452
0.171157
0.171861
0.172569
0.173277
0.173986
0.174694
0.175396
0.17609
0.176768
0.177427
0.178063
0.178675
0.179261
0.179821
0.180356
0.180866
0.18135
0.181808
0.182243
0.182659
0.183057
0.183439
0.183803
0.184156
0.184485
0.184794
0.185086
0.185362
0.185625
0.185875
0.186114
0.186341
0.186559
0.186767
0.186967
0.18716
0.187347
0.187527
0.187705
0.187877
0.18805
0.188215
0.188386
0.188546
0.18872
0.188874
0.189054
0.189198
0.189393
0.189521
0.189738
0.189843
0.190087
0.190181
0.190395
0.190748
0.190683
0.0388262
0.0407688
0.0427517
0.0449779
0.0471239
0.0491808
0.0515485
0.0534704
0.0562847
0.0600937
0.0637632
0.067694
0.0715895
0.0759643
0.079782
0.083509
0.0877094
0.0909511
0.0947932
0.0973575
0.0999776
0.102602
0.105153
0.107577
0.109865
0.112082
0.11408
0.116128
0.118136
0.12006
0.121868
0.12359
0.125262
0.126882
0.128466
0.130008
0.13152
0.132988
0.134434
0.135833
0.137205
0.138539
0.139854
0.14115
0.142446
0.143742
0.145028
0.146289
0.147537
0.148766
0.149969
0.151142
0.152281
0.153382
0.154446
0.155473
0.156463
0.157421
0.158339
0.159229
0.160081
0.1609
0.161695
0.162465
0.163208
0.163923
0.164613
0.165281
0.165927
0.166552
0.167155
0.167737
0.168298
0.168841
0.169364
0.16987
0.17036
0.170835
0.171295
0.171745
0.172181
0.172611
0.173026
0.17344
0.173838
0.17424
0.174622
0.175016
0.175381
0.175773
0.176117
0.176514
0.17683
0.17724
0.177518
0.177947
0.1782
0.178599
0.179068
0.179252
0.0246515
0.0249749
0.0255502
0.0263416
0.0272373
0.0281856
0.0287821
0.0295749
0.0306464
0.0322658
0.0341028
0.0359964
0.0379629
0.0398469
0.0417951
0.0436662
0.0456126
0.0473616
0.0501899
0.0524822
0.0547507
0.0566975
0.0585373
0.0604567
0.0624439
0.0644556
0.0664481
0.0684985
0.0705533
0.0726648
0.0748215
0.0769797
0.079162
0.0813579
0.0835751
0.0857674
0.0879362
0.0900675
0.0921316
0.0940624
0.0959607
0.0977704
0.0996602
0.101537
0.103516
0.105434
0.107389
0.10916
0.110999
0.112819
0.11461
0.116363
0.118075
0.119743
0.121369
0.12295
0.124487
0.125986
0.127426
0.128837
0.13018
0.131488
0.132784
0.134038
0.13523
0.136378
0.1375
0.138587
0.139643
0.140667
0.141663
0.142633
0.143576
0.144495
0.145389
0.146262
0.14711
0.147942
0.14875
0.149544
0.150316
0.151078
0.151816
0.15255
0.153256
0.153967
0.154642
0.155333
0.155976
0.156653
0.157266
0.157938
0.158506
0.159178
0.159692
0.160371
0.160837
0.161502
0.162105
0.162698
0.0211275
0.0212249
0.0214836
0.0220526
0.0226172
0.0232894
0.0238978
0.0244178
0.024818
0.0251005
0.0253239
0.0254226
0.0254666
0.0253798
0.025283
0.0252188
0.0253146
0.0254213
0.0255051
0.0256124
0.0257163
0.0260518
0.026148
0.026497
0.0269083
0.0275311
0.0281279
0.0288783
0.0295756
0.0303721
0.0313577
0.0324285
0.0336436
0.0349297
0.0363698
0.0378398
0.0394559
0.0410427
0.0428212
0.0447187
0.0468009
0.0490007
0.0512821
0.0536311
0.0560599
0.058534
0.0610281
0.0635277
0.0660272
0.0685083
0.0709546
0.0733528
0.0757015
0.0779888
0.0802301
0.0824008
0.0845414
0.0865914
0.0885506
0.09042
0.0922316
0.0939759
0.0957135
0.0973876
0.0990699
0.100673
0.102298
0.103837
0.10536
0.106842
0.108319
0.109771
0.111189
0.112579
0.113935
0.115266
0.116561
0.117836
0.119072
0.120291
0.121468
0.122635
0.123757
0.124878
0.125948
0.127031
0.12805
0.129102
0.130078
0.131122
0.13207
0.133068
0.133925
0.134916
0.135703
0.136704
0.137411
0.138432
0.139105
0.140362
0.019189
0.0188984
0.0188482
0.0188265
0.0187608
0.0186413
0.0184696
0.0182521
0.0180043
0.0177103
0.0174108
0.017089
0.0167326
0.0164601
0.0160595
0.0156306
0.0150892
0.0145302
0.0140732
0.0136956
0.0133632
0.0131055
0.0128563
0.0126801
0.0124958
0.0124054
0.0122848
0.0122725
0.0122198
0.0122546
0.0124455
0.0126364
0.0126742
0.0128958
0.0130411
0.0133817
0.013749
0.0141561
0.0146239
0.0151775
0.0158068
0.0165436
0.0173693
0.0182842
0.019291
0.0204077
0.0216221
0.0229409
0.024348
0.0258503
0.0274249
0.0290817
0.0307925
0.0325763
0.0343959
0.0362857
0.0381886
0.0401681
0.0422317
0.0443555
0.0465395
0.0487216
0.0509209
0.0531057
0.0552929
0.0574585
0.0596076
0.0617334
0.0638227
0.0658817
0.0678956
0.0698797
0.071813
0.0737166
0.0755648
0.0773894
0.0791524
0.0808771
0.082522
0.0841424
0.085688
0.0872395
0.0887214
0.0902264
0.0916514
0.0931201
0.0944905
0.095931
0.0972448
0.0986637
0.0999171
0.101329
0.102507
0.103905
0.105008
0.106368
0.107364
0.108798
0.109581
0.111597
0.0141164
0.0134429
0.012619
0.0119001
0.011341
0.0108952
0.0105284
0.0102173
0.00994606
0.00970445
0.00948498
0.00928586
0.00910928
0.00895751
0.00881674
0.00868572
0.00855511
0.00842328
0.00829277
0.00816913
0.00804634
0.00793369
0.00781855
0.00771684
0.00760984
0.00751772
0.00742338
0.00734133
0.00726409
0.00718277
0.00713077
0.0071035
0.00707519
0.00705818
0.00706566
0.00703893
0.00707118
0.00705126
0.00708541
0.00714796
0.00723896
0.00728234
0.00742363
0.0074318
0.00738931
0.00759252
0.00781035
0.00806076
0.00830864
0.00860485
0.00891304
0.00927803
0.00965895
0.0101062
0.0105698
0.0111087
0.0116669
0.0123077
0.0129738
0.013735
0.014528
0.0154266
0.016357
0.0173996
0.0184703
0.019658
0.0208664
0.0221936
0.0235307
0.0249836
0.0264328
0.027993
0.0295354
0.0311831
0.0327993
0.0345153
0.0361876
0.0379848
0.0397403
0.041621
0.0434296
0.0453484
0.047156
0.0490827
0.0508686
0.0527881
0.0545323
0.0564339
0.0581169
0.0599939
0.0615971
0.0634449
0.0649532
0.0667879
0.0681842
0.0700217
0.0712564
0.0731908
0.0739079
0.0768889
0.0084964
0.00831516
0.00813533
0.00796588
0.00780146
0.00764321
0.00749113
0.00734537
0.00720636
0.00707397
0.00694922
0.0068319
0.00672275
0.00662191
0.00652977
0.00644614
0.00637026
0.00630179
0.00623871
0.00618162
0.00612731
0.00607797
0.0060292
0.0059855
0.00594099
0.00590232
0.00586268
0.00582978
0.00579618
0.00576799
0.00574046
0.00571922
0.00569736
0.00568194
0.00566531
0.00565285
0.00563949
0.00563025
0.00561618
0.00561261
0.00560184
0.00560163
0.0055924
0.00559334
0.00558093
0.0055894
0.00558116
0.0055999
0.00559219
0.00562023
0.00560826
0.00564147
0.00566052
0.0056956
0.00571458
0.00575794
0.00578444
0.00584693
0.00588553
0.0059721
0.00602824
0.0061443
0.00622665
0.00637952
0.00649578
0.00669863
0.00685218
0.00711152
0.00731453
0.00764216
0.00790339
0.00830854
0.00863501
0.00912745
0.00952701
0.010116
0.0105944
0.0112893
0.0118547
0.0126691
0.0133306
0.0142753
0.0150361
0.0161154
0.0169726
0.0181872
0.0191318
0.0204793
0.0214955
0.0229723
0.0240376
0.0256362
0.0267259
0.0284419
0.0295396
0.0313377
0.0323461
0.0342984
0.0351953
0.0382311
0.00687197
0.00678696
0.0066866
0.00657467
0.00646748
0.0063659
0.0062704
0.00618084
0.00609757
0.00602014
0.00594896
0.00588341
0.00582344
0.00576841
0.00571795
0.00567145
0.00562822
0.0055879
0.00554953
0.00551344
0.00547852
0.0054459
0.00541443
0.00538558
0.00535804
0.00533346
0.00530984
0.00528909
0.00526924
0.00525271
0.00523591
0.00522114
0.00520544
0.00519165
0.00517733
0.00516564
0.00515267
0.00514214
0.00513005
0.0051209
0.00510974
0.00510169
0.00509088
0.0050835
0.00507321
0.00506707
0.00505789
0.00505264
0.00504475
0.00504113
0.00503215
0.00502833
0.00502182
0.00501941
0.00501464
0.00501222
0.00500891
0.00500611
0.0050039
0.00500106
0.00499918
0.00499899
0.00499646
0.00499974
0.0050022
0.00500546
0.00500749
0.00502497
0.00504177
0.00507175
0.00508363
0.00511225
0.00512796
0.0051674
0.00518961
0.00524625
0.00527777
0.00535176
0.00539546
0.0054965
0.00555497
0.00569159
0.00576892
0.00594933
0.0060494
0.00628459
0.00641213
0.0067109
0.0068713
0.00724254
0.00744151
0.00789103
0.00813057
0.00867743
0.00896132
0.00954167
0.00991494
0.0107079
0.0107381
0.0124915
0.00593203
0.00589618
0.00585543
0.00581197
0.00576892
0.00572726
0.00568832
0.00565162
0.00561763
0.0055854
0.0055552
0.00552607
0.00549809
0.00547048
0.0054431
0.0054153
0.00538698
0.00535756
0.00532739
0.00529631
0.00526507
0.00523418
0.00520474
0.00517727
0.00515214
0.00512932
0.00510838
0.00508903
0.0050705
0.00505268
0.00503487
0.00501735
0.00499946
0.00498184
0.00496379
0.00494623
0.00492837
0.00491137
0.00489419
0.00487818
0.00486207
0.00484738
0.0048326
0.0048194
0.00480606
0.00479438
0.00478246
0.00477225
0.00476162
0.0047528
0.0047433
0.00473578
0.00472721
0.00472082
0.00471301
0.00470756
0.00470036
0.00469568
0.00468898
0.0046849
0.00467864
0.00467423
0.00466744
0.00466258
0.00465546
0.00465002
0.00464394
0.00463929
0.0046345
0.00463064
0.00462727
0.00462383
0.00462186
0.00461879
0.00461835
0.00461565
0.00461681
0.00461472
0.00461802
0.00461703
0.00462285
0.00462316
0.00463222
0.00463365
0.00464589
0.00465257
0.00466075
0.00467729
0.00468901
0.00470919
0.00472484
0.00475324
0.0047729
0.00481273
0.00484025
0.00489186
0.00492099
0.00501079
0.00496097
0.0052348
0.00536857
0.00535273
0.00533387
0.00531243
0.00529006
0.00526634
0.0052418
0.00521531
0.00518748
0.00515752
0.00512655
0.00509413
0.00506173
0.00502893
0.00499723
0.00496595
0.0049362
0.0049071
0.00487944
0.00485218
0.00482631
0.00480105
0.00477771
0.00475558
0.0047359
0.00471767
0.00470171
0.00468676
0.00467337
0.00466024
0.00464793
0.00463535
0.00462315
0.00461051
0.00459822
0.00458559
0.0045735
0.00456126
0.0045498
0.0045383
0.0045278
0.00451727
0.00450788
0.0044984
0.00449014
0.00448166
0.00447447
0.00446692
0.00446067
0.00445391
0.0044485
0.0044424
0.00443772
0.00443217
0.00442808
0.00442301
0.00441938
0.00441473
0.00441146
0.00440723
0.00440423
0.00440038
0.00439757
0.00439399
0.00439132
0.00438799
0.00438541
0.00438219
0.00437972
0.00437654
0.00437422
0.00437109
0.004369
0.00436591
0.00436411
0.00436102
0.00435952
0.00435629
0.00435478
0.00435172
0.0043499
0.0043474
0.00434596
0.0043441
0.00434201
0.00434138
0.00433936
0.00433928
0.00433787
0.00433784
0.00433722
0.00433736
0.00433662
0.00433743
0.00433929
0.00433667
0.00432666
0.00434225
0.00433503
0.00434404
0.00494974
0.00494095
0.00492892
0.0049136
0.00489666
0.00487801
0.00485884
0.00483862
0.00481844
0.0047977
0.00477752
0.00475709
0.00473749
0.00471773
0.00469885
0.00467975
0.0046616
0.00464324
0.00462598
0.00460861
0.00459244
0.0045761
0.00456089
0.00454526
0.00453062
0.00451544
0.00450125
0.00448657
0.00447309
0.00445924
0.00444678
0.00443401
0.00442276
0.00441114
0.00440106
0.00439047
0.0043814
0.00437167
0.00436345
0.00435441
0.00434691
0.00433845
0.00433157
0.00432361
0.0043173
0.00430979
0.00430401
0.00429691
0.00429163
0.00428493
0.00428012
0.00427379
0.00426943
0.00426345
0.00425952
0.00425386
0.00425032
0.00424497
0.00424179
0.00423673
0.00423386
0.00422906
0.00422649
0.00422191
0.00421961
0.0042152
0.00421315
0.00420885
0.00420705
0.00420282
0.00420125
0.00419706
0.00419572
0.00419156
0.00419042
0.00418629
0.00418533
0.00418126
0.00418042
0.00417643
0.0041757
0.00417177
0.00417116
0.00416728
0.00416678
0.00416292
0.00416257
0.00415869
0.00415851
0.00415457
0.00415461
0.00415053
0.00415071
0.00414691
0.00414691
0.00414291
0.00414335
0.00414046
0.00412859
0.00414467
0.00464192
0.00464005
0.00463474
0.00462619
0.00461593
0.00460374
0.0045907
0.00457627
0.00456146
0.00454567
0.00452995
0.00451361
0.0044977
0.00448144
0.00446588
0.00445018
0.00443544
0.00442075
0.00440724
0.00439388
0.0043818
0.0043698
0.00435898
0.00434798
0.00433792
0.00432739
0.00431766
0.00430728
0.00429772
0.0042875
0.00427828
0.00426846
0.00425985
0.0042507
0.00424291
0.00423456
0.00422766
0.0042201
0.00421401
0.00420713
0.00420172
0.00419536
0.00419046
0.00418447
0.00417994
0.00417418
0.00416992
0.00416432
0.00416027
0.0041548
0.00415093
0.00414557
0.00414187
0.00413663
0.00413311
0.004128
0.00412469
0.00411973
0.00411665
0.00411185
0.00410901
0.00410436
0.00410178
0.00409726
0.00409494
0.00409053
0.00408847
0.00408415
0.00408234
0.00407808
0.00407652
0.00407229
0.00407097
0.00406675
0.00406568
0.00406144
0.00406061
0.00405637
0.00405575
0.00405153
0.00405106
0.00404692
0.00404651
0.00404251
0.0040421
0.00403827
0.00403784
0.00403418
0.00403364
0.0040303
0.00402942
0.00402658
0.00402515
0.00402309
0.00402147
0.00401855
0.00401733
0.00401454
0.00401322
0.00401016
0.00442456
0.00442522
0.00442357
0.0044192
0.0044134
0.00440582
0.00439757
0.00438799
0.00437814
0.0043673
0.00435652
0.004345
0.0043338
0.00432202
0.00431073
0.00429897
0.00428781
0.00427623
0.00426534
0.00425406
0.00424356
0.0042327
0.00422273
0.00421244
0.00420316
0.00419357
0.00418508
0.00417623
0.00416854
0.0041604
0.00415339
0.00414582
0.00413939
0.00413226
0.00412631
0.00411953
0.00411398
0.0041075
0.00410231
0.00409611
0.00409127
0.00408534
0.00408084
0.00407519
0.004071
0.00406563
0.00406173
0.00405662
0.00405299
0.00404814
0.00404475
0.00404014
0.00403696
0.00403257
0.00402959
0.0040254
0.00402261
0.0040186
0.00401598
0.00401213
0.00400968
0.00400596
0.00400367
0.00400008
0.00399794
0.00399446
0.00399248
0.00398907
0.00398725
0.00398388
0.00398225
0.00397888
0.00397744
0.00397404
0.0039728
0.00396936
0.00396828
0.00396485
0.00396384
0.0039605
0.00395946
0.00395631
0.00395512
0.00395226
0.00395085
0.00394827
0.00394668
0.00394428
0.00394268
0.00394023
0.00393885
0.00393615
0.00393511
0.00393235
0.00393105
0.00392729
0.00392761
0.0039226
0.00393147
0.00390944
0.00426859
0.00427065
0.00427097
0.00426883
0.00426543
0.00426029
0.0042545
0.0042474
0.00424006
0.0042317
0.00422345
0.00421442
0.00420575
0.00419645
0.00418768
0.00417839
0.00416975
0.00416064
0.00415225
0.0041434
0.00413535
0.00412682
0.00411912
0.00411093
0.00410364
0.00409583
0.00408899
0.00408159
0.00407524
0.0040683
0.00406246
0.00405595
0.00405062
0.00404451
0.00403963
0.00403384
0.00402935
0.00402383
0.00401967
0.00401435
0.00401047
0.00400532
0.00400168
0.00399668
0.00399326
0.0039884
0.00398516
0.00398045
0.00397738
0.00397282
0.0039699
0.00396552
0.00396274
0.00395854
0.00395588
0.00395187
0.00394933
0.00394548
0.00394307
0.00393939
0.00393712
0.00393357
0.00393144
0.00392802
0.00392603
0.00392271
0.00392086
0.00391763
0.00391592
0.00391274
0.00391118
0.00390802
0.00390661
0.00390345
0.00390221
0.00389903
0.00389791
0.00389475
0.00389368
0.00389064
0.00388949
0.00388667
0.00388533
0.00388281
0.00388126
0.003879
0.00387726
0.00387524
0.00387332
0.00387153
0.00386942
0.00386787
0.00386559
0.00386434
0.00386158
0.00386105
0.00385642
0.00385523
0.00385347
0.00385195
0.00415511
0.00415749
0.00415875
0.00415791
0.00415605
0.0041526
0.00414865
0.00414344
0.00413804
0.00413163
0.00412531
0.00411815
0.00411129
0.00410373
0.00409663
0.00408892
0.00408181
0.00407414
0.00406719
0.0040597
0.00405301
0.0040458
0.00403945
0.00403256
0.0040266
0.00402003
0.00401444
0.00400821
0.00400298
0.00399705
0.00399216
0.00398649
0.00398194
0.00397652
0.00397227
0.00396707
0.00396311
0.00395813
0.00395444
0.00394964
0.00394621
0.00394158
0.00393838
0.00393391
0.00393093
0.00392661
0.00392383
0.00391963
0.00391703
0.00391296
0.00391051
0.00390656
0.00390425
0.00390043
0.00389824
0.00389455
0.00389247
0.00388889
0.00388692
0.00388344
0.00388159
0.00387819
0.00387646
0.00387313
0.00387152
0.00386823
0.00386676
0.00386349
0.00386215
0.00385889
0.0038577
0.0038544
0.00385338
0.00385002
0.00384917
0.00384574
0.00384506
0.00384157
0.00384099
0.00383753
0.00383693
0.00383362
0.00383289
0.00382981
0.00382891
0.00382605
0.00382499
0.00382235
0.00382108
0.00381879
0.0038171
0.0038154
0.00381307
0.00381207
0.00380927
0.00380899
0.00380465
0.00380322
0.00380159
0.00380004
0.00406992
0.00407265
0.00407445
0.00407434
0.00407337
0.00407093
0.00406807
0.00406401
0.00405983
0.00405466
0.00404961
0.00404374
0.00403819
0.00403192
0.00402613
0.00401969
0.00401384
0.00400739
0.00400163
0.00399529
0.00398972
0.00398355
0.00397824
0.00397231
0.00396729
0.00396161
0.00395688
0.00395145
0.00394703
0.00394184
0.0039377
0.00393272
0.00392885
0.00392407
0.00392044
0.00391584
0.00391243
0.00390798
0.00390478
0.00390047
0.00389746
0.00389328
0.00389044
0.00388639
0.00388372
0.00387978
0.00387726
0.00387343
0.00387106
0.00386733
0.00386509
0.00386145
0.00385935
0.00385579
0.00385382
0.00385033
0.00384849
0.00384507
0.00384335
0.00383999
0.00383838
0.00383509
0.00383358
0.00383035
0.00382895
0.00382575
0.00382446
0.00382127
0.00382012
0.00381691
0.00381591
0.00381265
0.0038118
0.00380849
0.00380777
0.00380444
0.0038038
0.00380048
0.00379988
0.0037966
0.00379601
0.0037928
0.00379219
0.00378906
0.00378842
0.00378536
0.00378472
0.00378163
0.0037812
0.00377779
0.00377786
0.00377392
0.00377449
0.00377039
0.00377063
0.00376632
0.00376844
0.00376348
0.00376194
0.00375901
0.00400507
0.00400795
0.00401001
0.00401035
0.00401
0.00400829
0.00400626
0.00400309
0.00399984
0.00399564
0.00399157
0.00398668
0.0039821
0.0039768
0.00397197
0.00396647
0.00396155
0.003956
0.00395114
0.00394565
0.00394092
0.00393556
0.00393102
0.00392583
0.00392151
0.00391651
0.00391243
0.00390761
0.00390378
0.00389915
0.00389554
0.0038911
0.00388771
0.00388343
0.00388025
0.00387611
0.00387312
0.0038691
0.00386629
0.00386238
0.00385974
0.00385591
0.00385342
0.00384968
0.00384734
0.00384367
0.00384146
0.00383787
0.00383577
0.00383224
0.00383027
0.0038268
0.00382493
0.00382152
0.00381976
0.0038164
0.00381475
0.00381144
0.00380989
0.00380663
0.00380517
0.00380196
0.00380059
0.00379742
0.00379614
0.00379301
0.00379182
0.00378871
0.00378761
0.00378452
0.0037835
0.00378042
0.00377948
0.00377642
0.00377555
0.0037725
0.00377169
0.00376865
0.0037679
0.00376486
0.00376415
0.00376115
0.00376046
0.0037575
0.00375679
0.0037539
0.00375317
0.00375034
0.0037496
0.00374683
0.00374607
0.00374335
0.00374246
0.00374005
0.0037391
0.00373641
0.0037347
0.0037345
0.00372358
0.00373883
0.00395656
0.0039594
0.00396155
0.00396212
0.00396213
0.00396087
0.00395936
0.00395677
0.00395415
0.00395059
0.00394721
0.00394301
0.00393916
0.00393456
0.00393044
0.00392564
0.00392142
0.00391655
0.00391235
0.0039075
0.00390339
0.00389862
0.00389466
0.00389002
0.00388623
0.00388173
0.00387813
0.00387378
0.00387038
0.00386618
0.00386296
0.0038589
0.00385586
0.00385193
0.00384907
0.00384525
0.00384255
0.00383882
0.00383627
0.00383263
0.00383022
0.00382665
0.00382438
0.00382086
0.00381872
0.00381526
0.00381323
0.00380982
0.00380791
0.00380454
0.00380273
0.00379941
0.0037977
0.00379443
0.00379281
0.00378958
0.00378805
0.00378486
0.00378343
0.00378027
0.00377892
0.0037758
0.00377453
0.00377145
0.00377026
0.00376721
0.00376609
0.00376307
0.00376203
0.00375903
0.00375805
0.00375507
0.00375416
0.00375119
0.00375035
0.00374739
0.0037466
0.00374365
0.00374291
0.00373997
0.00373926
0.00373635
0.00373566
0.00373279
0.00373208
0.00372928
0.00372854
0.00372581
0.00372503
0.0037224
0.00372156
0.00371901
0.00371801
0.00371575
0.00371478
0.00371221
0.00371046
0.00371035
0.00369973
0.00371445
0.0039196
0.00392228
0.0039244
0.00392507
0.00392531
0.00392434
0.00392321
0.00392103
0.00391888
0.0039158
0.00391293
0.00390923
0.00390589
0.0039018
0.00389819
0.00389388
0.00389015
0.00388574
0.003882
0.0038776
0.00387392
0.00386958
0.00386602
0.00386177
0.00385837
0.00385422
0.00385097
0.00384696
0.00384388
0.00383999
0.00383707
0.00383329
0.00383052
0.00382685
0.00382423
0.00382065
0.00381817
0.00381466
0.00381232
0.00380887
0.00380665
0.00380325
0.00380116
0.0037978
0.00379582
0.0037925
0.00379063
0.00378734
0.00378558
0.00378232
0.00378065
0.00377743
0.00377585
0.00377266
0.00377117
0.00376802
0.0037666
0.00376348
0.00376215
0.00375906
0.00375781
0.00375475
0.00375357
0.00375054
0.00374944
0.00374643
0.00374539
0.00374241
0.00374144
0.00373847
0.00373757
0.00373461
0.00373378
0.00373082
0.00373005
0.0037271
0.00372638
0.00372343
0.00372275
0.00371983
0.00371917
0.0037163
0.00371562
0.00371281
0.0037121
0.00370937
0.00370862
0.00370598
0.00370516
0.00370261
0.00370175
0.00369925
0.00369846
0.00369591
0.00369491
0.00369249
0.00369182
0.00368765
0.00369612
0.00367582
0.00389144
0.00389394
0.00389598
0.00389666
0.003897
0.00389618
0.00389525
0.0038933
0.00389142
0.00388863
0.00388607
0.00388269
0.00387968
0.00387592
0.00387265
0.00386867
0.00386528
0.00386119
0.00385779
0.00385369
0.00385033
0.00384627
0.00384302
0.00383904
0.00383592
0.00383202
0.00382904
0.00382526
0.00382243
0.00381874
0.00381605
0.00381246
0.00380992
0.00380642
0.00380401
0.00380058
0.00379831
0.00379494
0.00379278
0.00378946
0.00378742
0.00378413
0.0037822
0.00377895
0.00377713
0.00377389
0.00377218
0.00376896
0.00376734
0.00376414
0.00376261
0.00375943
0.003758
0.00375484
0.00375348
0.00375035
0.00374907
0.00374596
0.00374476
0.00374168
0.00374055
0.00373748
0.00373643
0.00373338
0.0037324
0.00372936
0.00372846
0.00372543
0.00372459
0.00372157
0.0037208
0.00371779
0.00371708
0.00371406
0.00371342
0.00371039
0.00370981
0.00370679
0.00370625
0.00370324
0.00370272
0.00369976
0.00369922
0.00369633
0.00369573
0.00369295
0.00369228
0.00368961
0.00368885
0.0036863
0.00368544
0.00368302
0.00368218
0.00367974
0.00367865
0.00367631
0.00367565
0.00367158
0.00367998
0.00365968
0.00386852
0.00387085
0.00387278
0.00387344
0.00387382
0.0038731
0.0038723
0.00387052
0.00386883
0.00386625
0.00386392
0.00386078
0.00385802
0.00385453
0.00385152
0.0038478
0.00384468
0.00384086
0.00383771
0.00383387
0.00383077
0.00382696
0.00382395
0.0038202
0.00381732
0.00381365
0.00381089
0.0038073
0.00380469
0.00380117
0.0037987
0.00379525
0.00379291
0.00378953
0.00378732
0.00378399
0.00378189
0.0037786
0.00377662
0.00377336
0.00377148
0.00376824
0.00376647
0.00376324
0.00376157
0.00375836
0.00375678
0.00375357
0.00375209
0.00374889
0.0037475
0.00374431
0.003743
0.00373982
0.0037386
0.00373544
0.00373429
0.00373114
0.00373007
0.00372693
0.00372594
0.0037228
0.0037219
0.00371875
0.00371795
0.00371477
0.00371407
0.00371087
0.00371026
0.00370704
0.00370652
0.00370328
0.00370284
0.00369957
0.00369923
0.00369591
0.00369567
0.00369229
0.00369216
0.00368873
0.00368868
0.00368524
0.00368522
0.00368181
0.00368178
0.00367842
0.00367837
0.00367511
0.00367492
0.00367193
0.00367138
0.00366888
0.00366787
0.00366576
0.00366451
0.00366245
0.00366181
0.00365771
0.00366629
0.00364589
0.00384975
0.00385193
0.00385376
0.00385441
0.00385482
0.00385419
0.00385351
0.00385189
0.00385036
0.00384799
0.00384585
0.00384295
0.00384041
0.00383716
0.00383437
0.00383092
0.003828
0.00382444
0.0038215
0.00381789
0.00381498
0.00381139
0.00380856
0.003805
0.00380227
0.00379877
0.00379615
0.0037927
0.0037902
0.0037868
0.00378443
0.00378107
0.00377882
0.0037755
0.00377338
0.00377008
0.00376807
0.00376479
0.00376289
0.00375962
0.00375783
0.00375457
0.00375288
0.00374963
0.00374803
0.00374479
0.00374327
0.00374004
0.00373861
0.0037354
0.00373404
0.00373084
0.00372957
0.00372638
0.00372518
0.00372201
0.00372089
0.00371773
0.00371669
0.00371354
0.00371258
0.00370943
0.00370855
0.0037054
0.00370461
0.00370145
0.00370075
0.00369756
0.00369697
0.00369375
0.00369326
0.00369002
0.0036896
0.00368635
0.003686
0.00368274
0.00368244
0.00367919
0.00367893
0.00367569
0.00367548
0.00367221
0.0036721
0.00366876
0.00366876
0.00366536
0.00366545
0.00366199
0.00366218
0.00365864
0.00365897
0.00365532
0.00365579
0.00365206
0.00365222
0.00364939
0.00365024
0.00364604
0.00364498
0.00364172
0.00383617
0.00383817
0.00383984
0.00384042
0.00384079
0.0038402
0.00383954
0.00383802
0.00383656
0.00383432
0.00383227
0.00382951
0.00382705
0.00382394
0.00382122
0.00381788
0.00381501
0.00381154
0.00380861
0.00380508
0.00380216
0.00379861
0.00379573
0.0037922
0.00378939
0.00378589
0.00378317
0.0037797
0.0037771
0.00377367
0.00377119
0.0037678
0.00376545
0.0037621
0.00375988
0.00375656
0.00375448
0.00375117
0.00374923
0.00374593
0.00374412
0.00374085
0.00373913
0.00373587
0.00373425
0.00373101
0.00372949
0.00372627
0.00372484
0.00372165
0.00372031
0.00371715
0.00371589
0.00371276
0.00371158
0.00370848
0.00370738
0.0037043
0.00370327
0.00370022
0.00369927
0.00369622
0.00369536
0.0036923