/*--------------------------------*- C++ -*----------------------------------*\
  =========                 |
  \\      /  F ield         | OpenFOAM: The Open Source CFD Toolbox
   \\    /   O peration     | Website:  https://openfoam.org
    \\  /    A nd           | Version:  8
     \\/     M anipulation  |
\*---------------------------------------------------------------------------*/
FoamFile
{
    version     2.0;
    format      ascii;
    class       volScalarField;
    location    "2.0000073";
    object      epsilon;
}
// * * * * * * * * * * * * * * * * * * * * * * * * * * * * * * * * * * * * * //

dimensions      [0 2 -3 0 0 0 0];

internalField   nonuniform List<scalar> 
6800
(
418.1
876.126
902.495
811.905
625.328
417.655
250.21
123.832
63.1098
34.6166
360.76
852.866
832.717
711.541
465.406
259.981
126.394
62.6026
31.5097
18.3341
463.649
827.262
771.248
573.82
322.745
158.274
76.4483
36.5386
18.5534
10.5848
520.086
738.026
659.29
446.149
218.249
96.9239
40.3022
19.0583
10.5216
6.93823
573.018
678.416
607.104
346.143
143.414
55.4076
24.5168
12.9565
7.84396
5.60331
615.963
649.337
537.793
234.326
85.9291
34.3984
15.9543
8.73086
5.80137
4.53811
658.563
644.1
463.391
166.545
60.0633
23.0166
11.1931
7.1126
5.1515
4.19928
694.432
643.15
376.092
117.897
36.7966
15.7402
9.17932
6.12686
4.46216
3.77128
730.369
650.561
312.634
84.7922
29.2939
13.6023
7.94495
5.38099
4.18909
3.63957
761.709
660.453
248.874
62.7179
20.1577
10.5915
6.73069
4.83695
3.84935
3.4024
2603.67
1273.09
992.231
911.547
905.135
956.457
1029.84
1103.34
1150.67
1172.26
2501.18
1221.88
977.893
926.048
965.7
1076.3
1223.73
1381.41
1520.91
1599.61
2314.6
1151.36
958.34
956.888
1083.07
1295.43
1548.89
1784.11
1973.62
2061.12
2092.06
1077.63
945.943
1038.61
1294.35
1636.6
1936.53
2097.9
2168.53
2140.77
1858.24
1034.44
1006.19
1265.42
1719.62
2092.82
2203.96
2176.95
2015.12
1726.73
1651.73
1073.42
1267.11
1814.68
2262.15
2276.45
2137.88
1770.1
1451.78
911.942
1474.04
1293.21
1918.81
2408.07
2300.2
1925.49
1385.15
888.593
676.145
435.574
1385.7
1815.98
2388.89
2073.09
1483.87
1011.36
724.511
505.061
405.254
264.24
1170.21
1888.3
1581.03
1188.99
906.503
678.232
500.664
361.374
288.657
167.756
825.604
1071.1
1014.1
906.221
724.432
546.396
387.814
266.529
156.393
73.4525
1170.27
1090.4
1010.78
940.629
880.931
830.683
786.637
748.266
715.274
686.443
660.977
638.324
617.88
599.143
581.841
565.692
550.596
536.32
522.695
509.571
496.834
484.378
472.149
460.116
448.275
436.633
425.203
414.005
403.055
392.372
381.969
371.856
362.039
352.529
343.326
334.435
325.854
317.586
309.624
301.967
294.609
287.547
280.774
274.281
268.059
262.099
256.385
250.907
245.648
240.594
235.73
231.04
226.509
222.121
217.865
213.729
209.704
205.779
201.95
198.209
194.554
190.979
187.483
184.064
180.72
177.451
174.255
171.133
168.083
165.104
162.197
159.36
156.591
153.891
151.256
148.687
146.18
143.736
141.352
139.027
136.76
134.548
132.392
130.289
128.239
126.239
124.292
122.39
120.543
118.733
116.985
115.256
113.612
111.943
110.421
108.772
107.418
105.709
104.591
102.505
1615.83
1496.35
1373.78
1266.8
1175.65
1099.2
1034.05
978.901
931.245
889.657
852.988
820.548
791.311
764.544
739.883
716.859
695.182
674.608
654.922
635.932
617.511
599.552
582.011
564.868
548.127
531.804
515.913
500.474
485.498
471.008
456.997
443.465
430.413
417.848
405.761
394.151
383.007
372.324
362.085
352.284
342.905
333.937
325.363
317.17
309.339
301.853
294.692
287.837
281.268
274.964
268.906
263.073
257.448
252.01
246.747
241.645
236.692
231.878
227.194
222.632
218.188
213.857
209.634
205.517
201.504
197.592
193.779
190.065
186.447
182.922
179.49
176.148
172.894
169.726
166.641
163.639
160.715
157.869
155.098
152.4
149.773
147.215
144.724
142.299
139.939
137.639
135.403
133.222
131.107
129.035
127.038
125.063
123.188
121.286
119.554
117.677
116.14
114.199
112.934
110.562
2069.81
1957.19
1803.49
1667.8
1551.33
1452.43
1367.93
1295.44
1232.46
1176.88
1127.54
1083.15
1042.79
1005.55
971.021
938.614
907.939
878.772
850.751
823.705
797.452
771.858
746.903
722.588
698.943
675.998
653.773
632.297
611.579
591.641
572.419
553.915
536.155
519.144
502.861
487.294
472.417
458.209
444.642
431.695
419.341
407.559
396.322
385.608
375.387
365.638
356.327
347.428
338.912
330.749
322.913
315.376
308.115
301.101
294.331
287.779
281.429
275.266
269.281
263.463
257.806
252.304
246.954
241.75
236.69
231.769
226.986
222.335
217.815
213.42
209.149
204.998
200.963
197.042
193.231
189.526
185.925
182.424
179.021
175.712
172.494
169.366
166.325
163.367
160.492
157.695
154.98
152.333
149.77
147.261
144.848
142.46
140.2
137.903
135.822
133.558
131.714
129.379
127.865
125.016
2145.39
2077.62
1937.65
1808.75
1696.74
1598.85
1513.65
1439.48
1374.61
1316.76
1264.97
1218.16
1175.39
1135.61
1098.17
1062.74
1029.12
997.281
966.586
936.71
907.517
878.937
851.004
823.75
797.22
771.459
746.496
722.368
699.107
676.666
655.201
634.665
614.988
596.136
578.069
560.766
544.193
528.336
513.162
498.653
484.781
471.53
458.869
446.774
435.213
424.157
413.572
403.426
393.688
384.325
375.309
366.61
358.201
350.064
342.166
334.494
327.039
319.791
312.741
305.883
299.211
292.721
286.409
280.269
274.3
268.495
262.856
257.367
252.029
246.839
241.794
236.893
232.129
227.501
223.003
218.631
214.382
210.251
206.236
202.333
198.539
194.85
191.265
187.778
184.391
181.094
177.895
174.776
171.758
168.8
165.959
163.141
160.483
157.77
155.325
152.649
150.486
147.728
145.938
142.578
1650.37
1560.84
1474.32
1403.42
1345.48
1294.86
1249.87
1209.89
1173.58
1138.97
1108.11
1080
1053.07
1027.55
1003.21
979.066
955.353
933.041
910.971
889.316
867.485
845.372
823.178
801.064
779.177
757.623
736.495
715.894
695.877
676.47
657.606
639.345
621.714
604.731
588.382
572.663
557.536
543.003
529.027
515.614
502.734
490.389
478.558
467.219
456.342
445.898
435.865
426.207
416.895
407.896
399.185
390.735
382.523
374.529
366.738
359.133
351.707
344.453
337.365
330.441
323.678
317.076
310.631
304.345
298.214
292.24
286.411
280.745
275.233
269.867
264.642
259.551
254.592
249.759
245.05
240.46
235.987
231.628
227.38
223.24
219.206
215.276
211.448
207.718
204.088
200.547
197.109
193.745
190.491
187.288
184.218
181.152
178.274
175.305
172.652
169.71
167.356
164.322
162.348
158.656
823.74
748.099
697.223
662.821
639.624
621.1
607.667
600.499
596.075
593.231
596.584
601.591
607.582
607.949
611.063
613.793
612.084
613.96
609.465
610.184
607.843
602.989
596.766
589.523
581.556
573.088
564.207
555.226
546.146
537.006
527.837
518.696
509.638
500.712
491.923
483.302
474.81
466.499
458.332
450.389
442.627
435.115
427.79
420.665
413.701
406.886
400.253
393.801
387.476
381.259
375.139
369.102
363.138
357.236
351.394
345.607
339.876
334.204
328.593
323.051
317.578
312.184
306.866
301.636
296.491
291.435
286.47
281.591
276.799
272.098
267.486
262.965
258.532
254.188
249.93
245.759
241.673
237.672
233.754
229.92
226.168
222.497
218.91
215.399
211.972
208.614
205.347
202.133
199.022
195.938
192.986
190.01
187.23
184.322
181.753
178.849
176.56
173.556
171.596
167.956
404.17
370.494
344.672
324.449
309.98
297.135
287.675
280.008
273.761
269.644
267.389
265.596
264.294
263.346
262.603
261.966
261.44
262.369
258.955
258.522
259.072
261.383
264.064
266.296
268.381
270.37
272.426
274.587
276.785
279.011
281.209
283.328
285.381
287.387
289.271
291.024
292.498
293.775
294.745
295.54
296.059
296.46
296.373
296.129
295.457
294.854
293.945
293.346
292.366
291.21
289.889
288.406
286.768
284.977
283.041
280.97
278.77
276.464
274.049
271.56
268.982
266.35
263.648
260.913
258.118
255.304
252.445
249.577
246.693
243.807
240.911
238.014
235.118
232.23
229.351
226.486
223.638
220.811
218.008
215.231
212.484
209.767
207.087
204.436
201.828
199.246
196.718
194.203
191.759
189.302
186.951
184.537
182.295
179.894
177.8
175.364
173.478
170.94
169.256
166.172
244.699
223.71
205.971
191.846
179.585
169.039
159.494
150.735
142.677
135.251
128.384
122.14
116.593
111.583
106.99
102.776
99.0464
95.7122
92.9638
90.7104
88.7521
87.2679
86.0274
85.1792
84.6691
84.3158
84.4659
84.9103
85.6928
86.7393
88.0077
89.5189
91.3431
93.4882
95.9006
98.5082
101.248
104.077
106.975
110.027
113.172
116.564
120.231
124.137
128.173
132.323
136.506
140.695
144.807
148.798
152.625
156.26
159.677
162.857
165.789
168.466
170.882
173.056
174.961
176.643
178.057
179.232
180.137
180.871
181.359
181.739
181.882
181.975
181.905
181.731
181.397
180.963
180.433
179.823
179.131
178.371
177.542
176.659
175.72
174.737
173.709
172.644
171.544
170.411
169.253
168.062
166.86
165.619
164.387
163.098
161.854
160.516
159.273
157.876
156.667
155.192
154.058
152.475
151.402
149.453
154.406
140.257
127.952
117.247
107.724
99.0055
90.9795
83.5242
76.6024
70.2006
64.2479
58.8144
53.856
49.2334
45.2776
41.9033
38.9876
36.4201
34.1581
32.1695
30.3961
28.8489
27.4588
26.2529
25.1799
24.2707
23.4605
22.8315
22.2667
21.881
21.5558
21.3843
21.487
21.5291
21.8194
22.0122
22.4071
22.9017
23.4875
24.1874
25.0192
26.0033
27.146
28.4681
29.9409
31.5751
33.35
35.2892
37.3589
39.5754
41.897
44.3418
46.8645
49.484
52.1538
54.8937
57.6589
60.4648
63.2768
66.1033
68.9228
71.7785
74.6261
77.4717
80.2706
83.0346
85.7205
88.3398
90.8576
93.2861
95.5921
97.791
99.854
101.804
103.611
105.306
106.858
108.305
109.61
110.82
111.891
112.863
113.699
114.452
115.085
115.649
116.109
116.507
116.818
117.064
117.25
117.356
117.428
117.417
117.375
117.289
117.168
116.959
116.746
116.393
65.4695
57.4425
50.49
44.687
39.8877
35.8894
32.5307
29.6687
27.1998
25.0295
23.1089
21.385
19.822
18.4042
17.1302
15.9906
14.9735
14.0623
13.2439
12.507
11.837
11.2281
10.6657
10.1508
9.66929
9.22568
8.81103
8.428
8.07146
7.73898
7.43891
7.15798
6.92224
6.71274
6.53333
6.39876
6.2776
6.19194
6.11191
6.04276
6.03675
6.0296
6.11249
6.13407
6.30922
6.33461
6.44204
6.62715
6.86618
7.17556
7.5218
7.93872
8.38326
8.90338
9.44547
10.0686
10.7109
11.4394
12.187
13.0288
13.8913
14.8556
15.8415
16.9369
18.0518
19.2815
20.5251
21.8848
23.2486
24.7265
26.1945
27.7722
29.3235
30.9794
32.5908
34.3022
35.9503
37.6951
39.3598
41.1185
42.7809
44.5531
46.2147
47.9831
49.6125
51.3489
52.9156
54.5948
56.0708
57.6737
59.0337
60.552
61.7707
63.195
64.2467
65.5806
66.4519
67.7009
68.4747
69.8456
19.8912
18.9845
18.0176
17.0318
16.0534
15.0978
14.1765
13.2948
12.4574
11.6668
10.9256
10.2353
9.59686
9.00944
8.47131
7.97942
7.53026
7.11987
6.74399
6.39914
6.08098
5.78724
5.51418
5.26076
5.02387
4.80333
4.59673
4.40431
4.22428
4.05712
3.90099
3.75682
3.62261
3.49932
3.38497
3.28069
3.18379
3.09558
3.01378
2.93873
2.87031
2.80858
2.75292
2.70295
2.65941
2.61921
2.58644
2.55701
2.53748
2.51956
2.51529
2.5054
2.50799
2.5198
2.53543
2.56842
2.59465
2.6471
2.68499
2.75999
2.8124
2.91239
2.98479
3.11415
3.21079
3.37565
3.50262
3.70822
3.86679
4.11872
4.31431
4.62021
4.85886
5.22565
5.51226
5.94696
6.28652
6.79571
7.19289
7.78329
8.24249
8.91993
9.44492
10.2139
10.8059
11.6679
12.3246
13.2777
13.9925
15.0322
15.7936
16.9132
17.7058
18.8974
19.702
20.9568
21.7673
23.0708
23.6836
25.7531
11.2116
10.5497
9.91404
9.3076
8.73751
8.20696
7.71696
7.26548
6.85028
6.46802
6.11601
5.79139
5.49242
5.21689
4.96345
4.73017
4.51576
4.31835
4.1365
3.96844
3.81259
3.66749
3.53168
3.40414
3.28371
3.16994
3.06194
2.95968
2.86242
2.77038
2.68287
2.60024
2.52178
2.44794
2.37794
2.31219
2.24983
2.19131
2.13555
2.08331
2.03337
1.98686
1.94218
1.90077
1.86053
1.82344
1.78707
1.75415
1.72141
1.69257
1.66399
1.63884
1.61281
1.59085
1.56782
1.54938
1.52956
1.51455
1.49807
1.48623
1.4734
1.46401
1.45549
1.44873
1.44386
1.44139
1.43958
1.43809
1.43934
1.44604
1.45434
1.47322
1.48684
1.51549
1.53434
1.57221
1.59681
1.64629
1.67745
1.74016
1.77982
1.85922
1.9097
2.01065
2.07457
2.202
2.28171
2.44091
2.53844
2.73381
2.85118
3.08526
3.22386
3.49917
3.66464
3.97084
4.15792
4.47918
4.7584
5.19935
6.92915
6.64279
6.3599
6.08267
5.81416
5.55548
5.30699
5.06836
4.83978
4.62112
4.41277
4.21463
4.02703
3.8496
3.68256
3.52539
3.37817
3.24039
3.11193
2.99224
2.88098
2.77735
2.68082
2.59062
2.50636
2.42751
2.35376
2.28471
2.22008
2.15949
2.10262
2.04913
1.99871
1.95108
1.90595
1.8631
1.8223
1.78339
1.74614
1.7105
1.67621
1.6433
1.61149
1.58093
1.55125
1.52275
1.49496
1.46832
1.44225
1.41732
1.39284
1.36951
1.34652
1.32471
1.30314
1.28276
1.26251
1.24348
1.22448
1.20673
1.18886
1.17255
1.15593
1.14098
1.12547
1.11187
1.09732
1.08499
1.07133
1.0603
1.04763
1.03796
1.02638
1.01801
1.00758
1.0005
0.991289
0.985475
0.977546
0.973051
0.966616
0.96362
0.959011
0.957925
0.955675
0.955928
0.956897
0.95954
0.962785
0.969685
0.975474
0.986902
0.995599
1.0123
1.02384
1.04523
1.06033
1.08395
1.11466
1.15584
4.71086
4.56661
4.41443
4.25629
4.09658
3.93862
3.78522
3.63777
3.49766
3.36519
3.24086
3.12428
3.01535
2.91324
2.81751
2.72718
2.64183
2.56053
2.4831
2.40884
2.33776
2.2693
2.20358
2.14022
2.07953
2.02125
1.96581
1.91296
1.86313
1.81596
1.77178
1.73007
1.69107
1.65417
1.61957
1.58661
1.55555
1.52569
1.49738
1.46992
1.44375
1.41818
1.39371
1.36967
1.34662
1.3239
1.3021
1.28056
1.25991
1.23949
1.21995
1.2006
1.18212
1.16382
1.14635
1.12906
1.11256
1.09623
1.08063
1.06517
1.05041
1.03577
1.02175
1.00788
0.994554
0.981374
0.968696
0.956171
0.944098
0.932188
0.920693
0.909362
0.898417
0.887618
0.877197
0.86687
0.856941
0.847034
0.837603
0.828013
0.819092
0.809744
0.801343
0.792407
0.784643
0.776035
0.768762
0.760646
0.753935
0.746516
0.740484
0.733831
0.728667
0.722948
0.71848
0.713336
0.710535
0.704272
0.701839
0.695409
3.53223
3.45142
3.36581
3.27614
3.1845
3.09231
3.00085
2.91058
2.82223
2.73591
2.65215
2.5709
2.49261
2.41715
2.34494
2.27577
2.21001
2.14734
2.08806
2.03172
1.97857
1.9281
1.88054
1.83531
1.79264
1.75188
1.71328
1.6762
1.64092
1.60681
1.57426
1.54263
1.5124
1.48293
1.45478
1.42728
1.40104
1.37537
1.3509
1.32691
1.30408
1.28164
1.26031
1.23927
1.21931
1.19953
1.18081
1.16218
1.14457
1.12698
1.11038
1.09372
1.07805
1.06223
1.0474
1.03235
1.0183
1.00396
0.990621
0.976938
0.964266
0.951187
0.939138
0.926617
0.915151
0.903148
0.892226
0.8807
0.870289
0.859202
0.849269
0.838582
0.829103
0.818777
0.809732
0.799728
0.791102
0.781382
0.773163
0.763695
0.75587
0.746631
0.739183
0.730162
0.723079
0.714265
0.707533
0.698915
0.692526
0.684104
0.678052
0.669819
0.664113
0.656028
0.650726
0.642722
0.637728
0.629918
0.626377
0.614838
2.8743
2.8213
2.76436
2.70371
2.64087
2.57685
2.51278
2.44907
2.38646
2.32507
2.26539
2.20737
2.15133
2.09707
2.04485
1.99437
1.94586
1.89897
1.85396
1.81046
1.76876
1.72852
1.69007
1.65302
1.61775
1.58381
1.55158
1.52054
1.49106
1.46258
1.43548
1.40914
1.38401
1.35945
1.33595
1.31287
1.29076
1.26896
1.2481
1.22745
1.20773
1.18816
1.16953
1.15099
1.13339
1.11584
1.09922
1.0826
1.06691
1.05115
1.03632
1.02136
1.00734
0.993106
0.979819
0.966247
0.953636
0.940666
0.928678
0.916257
0.904847
0.892929
0.882056
0.870603
0.860232
0.849206
0.839308
0.828673
0.819223
0.808946
0.799919
0.78997
0.781345
0.771697
0.763454
0.754082
0.746203
0.737085
0.729555
0.72067
0.713478
0.7048
0.697941
0.689448
0.682915
0.674589
0.668376
0.660194
0.654312
0.646231
0.640716
0.632687
0.627563
0.619558
0.614773
0.606943
0.602413
0.594856
0.589874
0.581447
2.49003
2.45069
2.40849
2.36349
2.31673
2.2688
2.22047
2.17195
2.12382
2.07614
2.02937
1.98346
1.93879
1.89522
1.85307
1.81214
1.77272
1.73454
1.69788
1.6624
1.62839
1.59545
1.56389
1.53328
1.50392
1.47537
1.44798
1.42128
1.39567
1.37066
1.34667
1.32319
1.3007
1.27864
1.25754
1.23677
1.21693
1.19735
1.17866
1.16016
1.14252
1.12498
1.10829
1.09164
1.07582
1.05997
1.04494
1.02983
1.01554
1.00111
0.987512
0.973706
0.960757
0.947537
0.935197
0.922524
0.910758
0.898595
0.887371
0.875683
0.864973
0.853726
0.843501
0.832664
0.822898
0.812442
0.803112
0.793006
0.78409
0.774309
0.765788
0.756305
0.748162
0.738956
0.731176
0.722222
0.714791
0.70607
0.698977
0.690468
0.683702
0.675387
0.668938
0.660799
0.65466
0.64668
0.640846
0.633004
0.627475
0.619751
0.614527
0.606907
0.601974
0.59443
0.589821
0.58243
0.578103
0.57093
0.566161
0.558093
2.2551
2.22244
2.18768
2.15071
2.11237
2.07302
2.0333
1.99333
1.95359
1.91409
1.87524
1.83693
1.79952
1.76284
1.72719
1.69236
1.65865
1.62577
1.59404
1.56314
1.53338
1.5044
1.47654
1.4494
1.42331
1.39786
1.37342
1.34952
1.32656
1.30406
1.28245
1.26122
1.24084
1.22075
1.2015
1.18247
1.16425
1.1462
1.12895
1.1118
1.09545
1.07914
1.06362
1.04809
1.03335
1.01854
1.00451
0.990363
0.977005
0.963469
0.950733
0.937765
0.925612
0.913171
0.901564
0.889613
0.87852
0.867026
0.856422
0.845354
0.835212
0.824541
0.814838
0.804536
0.795252
0.785294
0.776408
0.766771
0.758266
0.748926
0.740787
0.731722
0.723935
0.715125
0.707677
0.699102
0.691982
0.683623
0.67682
0.66866
0.662165
0.654186
0.647992
0.640177
0.634277
0.626608
0.621001
0.613459
0.608143
0.600709
0.595686
0.588348
0.583604
0.576333
0.571903
0.564779
0.56061
0.553679
0.549117
0.541305
2.10328
2.07423
2.04356
2.01119
1.97779
1.94358
1.90906
1.87427
1.83964
1.80511
1.77107
1.73739
1.70443
1.67199
1.6404
1.60942
1.57937
1.54996
1.52149
1.49367
1.46679
1.44051
1.41517
1.39037
1.36648
1.34308
1.32056
1.29846
1.27721
1.25633
1.23626
1.2165
1.19752
1.17878
1.16081
1.14302
1.12597
1.10905
1.09286
1.07674
1.06133
1.04595
1.03128
1.01658
1.00259
0.988525
0.975183
0.961705
0.948964
0.936039
0.923865
0.911457
0.899818
0.887896
0.876763
0.865294
0.85464
0.843597
0.833399
0.822755
0.812992
0.802722
0.79337
0.783451
0.774492
0.764901
0.756317
0.747032
0.738807
0.729807
0.721926
0.71319
0.70564
0.69715
0.689918
0.681657
0.67473
0.666683
0.66005
0.652202
0.645854
0.638188
0.63212
0.624618
0.618826
0.611472
0.605954
0.598725
0.593493
0.586349
0.581435
0.574328
0.569758
0.562655
0.558388
0.551432
0.547395
0.540679
0.53622
0.528671
2.00008
1.97304
1.94475
1.91511
1.88467
1.85356
1.82224
1.79067
1.75924
1.72787
1.69692
1.66624
1.63618
1.60652
1.57759
1.54914
1.5215
1.49437
1.46807
1.4423
1.41736
1.39292
1.36932
1.34617
1.32384
1.30192
1.2808
1.26002
1.24002
1.22033
1.20138
1.18268
1.16471
1.14693
1.12986
1.11294
1.09672
1.08059
1.06515
1.04975
1.03503
1.02032
1.00628
0.992193
0.978794
0.965293
0.952489
0.939535
0.927292
0.91485
0.903137
0.891174
0.879962
0.868451
0.857714
0.846625
0.83634
0.825648
0.815793
0.805475
0.796033
0.786066
0.777016
0.767378
0.758703
0.749375
0.741058
0.732021
0.724048
0.715282
0.707638
0.699123
0.691798
0.683515
0.6765
0.668429
0.661717
0.65384
0.647422
0.639728
0.633587
0.626071
0.620191
0.612847
0.607217
0.600033
0.594648
0.58761
0.582464
0.575565
0.570647
0.56388
0.559195
0.552509
0.548119
0.541459
0.537286
0.530747
0.527787
0.517932
1.92626
1.90044
1.87365
1.84575
1.81723
1.78817
1.75894
1.72951
1.70022
1.67098
1.64212
1.61349
1.58541
1.55767
1.5306
1.50394
1.478
1.4525
1.42777
1.40347
1.37995
1.35685
1.33452
1.31258
1.2914
1.27056
1.25047
1.23067
1.21161
1.19279
1.17469
1.15678
1.13957
1.12252
1.10614
1.08987
1.07428
1.05873
1.04386
1.029
1.01481
1.00057
0.987021
0.973377
0.960422
0.947329
0.934936
0.92236
0.910498
0.898405
0.887048
0.875409
0.86453
0.853319
0.842894
0.832084
0.822093
0.811661
0.802083
0.792005
0.782823
0.773079
0.764274
0.754844
0.746402
0.737266
0.729171
0.720309
0.712548
0.703944
0.696504
0.688139
0.681011
0.672868
0.66604
0.658102
0.651567
0.643818
0.637566
0.629994
0.624017
0.616608
0.610898
0.60364
0.59819
0.591071
0.585877
0.578883
0.57394
0.567059
0.562368
0.55558
0.551153
0.544434
0.540252
0.533602
0.529778
0.52305
0.520098
0.510422
1.87131
1.84629
1.82048
1.79376
1.76656
1.7389
1.71115
1.68322
1.65546
1.62773
1.60038
1.57322
1.54657
1.52024
1.49451
1.46914
1.44445
1.42015
1.39656
1.37336
1.35087
1.32877
1.30738
1.28635
1.26602
1.24601
1.22669
1.20764
1.18929
1.17115
1.15369
1.1364
1.11978
1.10328
1.08744
1.07168
1.05658
1.04151
1.02708
1.01265
0.998874
0.985037
0.971862
0.958584
0.945977
0.933222
0.921151
0.908886
0.897323
0.885518
0.874437
0.863066
0.852443
0.84148
0.831294
0.820716
0.810947
0.80073
0.79136
0.781485
0.772497
0.762942
0.75432
0.745068
0.736797
0.727828
0.719894
0.71119
0.703581
0.695125
0.68783
0.679605
0.672613
0.664603
0.657904
0.650093
0.643679
0.636052
0.629915
0.622458
0.616591
0.609291
0.603688
0.596531
0.591186
0.58416
0.579069
0.572163
0.567321
0.560521
0.555929
0.549216
0.544885
0.53824
0.534146
0.52757
0.523827
0.517169
0.514255
0.504751
1.82989
1.80535
1.78019
1.75426
1.72796
1.70129
1.67457
1.64771
1.62103
1.59439
1.56812
1.54204
1.51645
1.49114
1.46641
1.44202
1.41826
1.39487
1.37214
1.34977
1.32809
1.30675
1.28609
1.26575
1.24609
1.22671
1.208
1.18952
1.17171
1.1541
1.13714
1.12033
1.10416
1.0881
1.07267
1.05732
1.04259
1.02788
1.01381
0.999713
0.986253
0.972729
0.959846
0.946858
0.934521
0.922034
0.910213
0.898198
0.886866
0.875295
0.864428
0.853275
0.842851
0.832092
0.822091
0.811702
0.802105
0.792068
0.782857
0.773149
0.764309
0.754913
0.746427
0.737324
0.72918
0.720351
0.712536
0.703965
0.696466
0.688138
0.680944
0.672841
0.665942
0.658049
0.651437
0.64374
0.637406
0.629888
0.623827
0.616474
0.61068
0.603478
0.597944
0.590881
0.585604
0.578666
0.573642
0.566816
0.562044
0.555317
0.550795
0.544159
0.539876
0.533305
0.529295
0.522851
0.519084
0.512824
0.508667
0.501596
1.79775
1.77351
1.74877
1.72339
1.69774
1.67177
1.64581
1.61974
1.59387
1.56805
1.5426
1.51733
1.49254
1.46802
1.44406
1.42041
1.39738
1.37468
1.35262
1.33091
1.30984
1.2891
1.26902
1.24923
1.23009
1.21122
1.19299
1.17498
1.15761
1.14043
1.12387
1.10745
1.09165
1.07594
1.06086
1.04583
1.03141
1.017
1.00321
0.98939
0.976188
0.962919
0.950273
0.93752
0.9254
0.913132
0.901509
0.889697
0.878547
0.867165
0.856466
0.845489
0.835219
0.824625
0.814765
0.804532
0.795064
0.785172
0.776082
0.766512
0.757781
0.748515
0.74013
0.731152
0.7231
0.71439
0.706659
0.698203
0.690781
0.682562
0.675439
0.667442
0.660607
0.652817
0.646263
0.638666
0.632385
0.624965
0.61895
0.611693
0.60594
0.598832
0.593337
0.586364
0.581123
0.574271
0.569282
0.562538
0.557802
0.551149
0.546667
0.540096
0.535856
0.529343
0.525377
0.518996
0.515258
0.509056
0.504943
0.497939
1.77273
1.74865
1.72417
1.69916
1.67397
1.64852
1.62311
1.59763
1.57237
1.54719
1.52237
1.49773
1.47357
1.44967
1.42631
1.40326
1.38081
1.35867
1.33716
1.31597
1.2954
1.27515
1.25552
1.23618
1.21746
1.19899
1.18114
1.16351
1.14648
1.12963
1.11338
1.09727
1.08175
1.06632
1.05149
1.03671
1.02252
1.00834
0.994761
0.98115
0.968138
0.955059
0.942586
0.930008
0.918046
0.90594
0.894461
0.8828
0.871782
0.860542
0.849964
0.83912
0.828961
0.818493
0.808735
0.798622
0.789247
0.77947
0.770463
0.761002
0.752348
0.743188
0.734872
0.725995
0.718003
0.709395
0.701715
0.693359
0.685981
0.677862
0.670774
0.662877
0.65607
0.648381
0.641846
0.634352
0.628081
0.62077
0.614753
0.607613
0.601846
0.594861
0.589342
0.582497
0.577223
0.570505
0.565475
0.558866
0.554091
0.547554
0.543066
0.536558
0.532378
0.525873
0.521963
0.515593
0.511888
0.505745
0.501635
0.494717
1.75407
1.73002
1.70566
1.68086
1.65596
1.63086
1.60584
1.58078
1.55596
1.53124
1.50688
1.48271
1.45901
1.43556
1.41265
1.39004
1.368
1.34627
1.32514
1.30432
1.28411
1.26419
1.24489
1.22585
1.20742
1.18923
1.17164
1.15425
1.13746
1.12082
1.10478
1.08886
1.07353
1.05828
1.04362
1.029
1.01496
1.00093
0.987488
0.974015
0.961129
0.948179
0.935823
0.923366
0.911512
0.899518
0.888142
0.876586
0.865665
0.854524
0.844036
0.833287
0.823214
0.812836
0.803159
0.793132
0.783836
0.774141
0.765208
0.755827
0.747245
0.73816
0.729913
0.721109
0.713184
0.704646
0.697031
0.688743
0.681426
0.673373
0.666344
0.658511
0.651762
0.644133
0.637658
0.630217
0.62401
0.616742
0.610797
0.60369
0.597997
0.591046
0.58559
0.57879
0.573564
0.566904
0.561904
0.555372
0.550594
0.544182
0.53962
0.53332
0.528979
0.522746
0.518682
0.51247
0.508593
0.502513
0.499751
0.490596
1.74024
1.71612
1.69177
1.66708
1.64233
1.61744
1.59265
1.56786
1.54331
1.51887
1.4948
1.47092
1.4475
1.42433
1.40168
1.37932
1.35752
1.33601
1.31509
1.29447
1.27445
1.2547
1.23555
1.21666
1.19837
1.18031
1.16283
1.14556
1.12887
1.11234
1.0964
1.08058
1.06535
1.0502
1.03564
1.02112
1.00718
0.993256
0.979915
0.966547
0.953768
0.940922
0.928667
0.91631
0.904556
0.892663
0.881387
0.869933
0.859113
0.848076
0.83769
0.827046
0.817075
0.806803
0.797227
0.787305
0.778107
0.768516
0.75968
0.7504
0.741911
0.732925
0.724768
0.71606
0.708222
0.699776
0.692242
0.684043
0.676804
0.668837
0.661882
0.654131
0.647453
0.639904
0.633494
0.626134
0.619983
0.6128
0.6069
0.599883
0.594228
0.587365
0.581949
0.575227
0.570048
0.563453
0.558509
0.552024
0.547328
0.540916
0.536496
0.530117
0.525999
0.519617
0.515774
0.509514
0.505877
0.499839
0.495814
0.489013
1.72923
1.70504
1.68066
1.656
1.63133
1.60653
1.58184
1.55714
1.53268
1.50831
1.48427
1.46042
1.437
1.41382
1.39113
1.36874
1.3469
1.32537
1.30443
1.28381
1.26375
1.24396
1.22477
1.20585
1.18754
1.1695
1.15207
1.13486
1.11827
1.10187
1.08607
1.07043
1.05537
1.04042
1.02606
1.01177
0.99805
0.984357
0.971242
0.95811
0.945556
0.932949
0.920931
0.908819
0.897301
0.885648
0.874597
0.863373
0.852763
0.841941
0.83175
0.821305
0.811513
0.801423
0.79201
0.782256
0.773207
0.763769
0.755068
0.74593
0.737562
0.728707
0.720661
0.712071
0.704335
0.695997
0.688557
0.680458
0.673305
0.665429
0.658553
0.650887
0.644283
0.636809
0.630472
0.623174
0.6171
0.609965
0.604148
0.597166
0.591593
0.584763
0.579418
0.572737
0.56761
0.56107
0.556159
0.549746
0.545047
0.538758
0.534258
0.528088
0.523795
0.517696
0.513672
0.507582
0.503763
0.497778
0.495064
0.486016
1.72072
1.69614
1.67128
1.64629
1.62114
1.59573
1.57037
1.54492
1.51972
1.49462
1.46995
1.44553
1.42166
1.39814
1.37527
1.35277
1.33097
1.30957
1.28886
1.26853
1.24892
1.22971
1.21118
1.19296
1.17539
1.15808
1.14137
1.12487
1.10895
1.09319
1.07799
1.0629
1.04837
1.0339
1.01999
1.0061
0.99276
0.979411
0.966612
0.953769
0.941481
0.929114
0.917309
0.905391
0.894045
0.882553
0.871644
0.860554
0.850063
0.839355
0.829263
0.818917
0.809208
0.799204
0.789864
0.780184
0.771198
0.761826
0.753179
0.7441
0.73578
0.726978
0.718972
0.710433
0.70273
0.694439
0.687029
0.678972
0.671846
0.664009
0.657158
0.649527
0.642945
0.635506
0.629186
0.621925
0.615862
0.608766
0.602954
0.596013
0.590443
0.583651
0.578311
0.571663
0.566545
0.56003
0.555134
0.54874
0.54406
0.53778
0.533313
0.527135
0.522887
0.516772
0.512791
0.5067
0.502892
0.496928
0.494216
0.485225
1.6958
1.66991
1.64434
1.61867
1.59342
1.5684
1.54383
1.51952
1.49571
1.47218
1.44918
1.42649
1.40436
1.38254
1.36129
1.34035
1.31998
1.29991
1.28041
1.26119
1.24253
1.22413
1.20628
1.18865
1.17157
1.15468
1.13833
1.12213
1.10648
1.09094
1.07593
1.06101
1.04662
1.03228
1.01848
1.00469
0.991436
0.978165
0.965437
0.952658
0.940428
0.928114
0.916357
0.904484
0.893179
0.881725
0.870851
0.859795
0.849333
0.838654
0.828588
0.818268
0.808581
0.7986
0.78928
0.779621
0.770651
0.761298
0.752666
0.743604
0.735297
0.72651
0.718515
0.709991
0.702297
0.69402
0.686617
0.678573
0.671453
0.663628
0.656783
0.649163
0.642585
0.635158
0.628838
0.621594
0.615523
0.608452
0.602623
0.595713
0.590122
0.583359
0.578006
0.571374
0.566256
0.559744
0.554862
0.548449
0.543817
0.537466
0.533117
0.526784
0.522742
0.516406
0.51262
0.506421
0.502832
0.49685
0.492881
0.486141
2.93853
3.13903
3.23114
3.55634
3.74029
4.29229
4.89494
6.31569
8.99072
20.4953
2.63259
2.74159
2.82028
3.02724
3.17526
3.55452
3.84632
4.63218
5.5997
11.793
2.44563
2.51033
2.54471
2.67529
2.75652
3.02029
3.19258
3.69309
4.11632
7.16544
2.33363
2.36782
2.38554
2.45882
2.50355
2.65895
2.76278
3.08164
3.30661
4.82203
2.23761
2.25825
2.26759
2.31257
2.33786
2.42848
2.488
2.67829
2.8082
3.59007
2.16512
2.17484
2.17848
2.20529
2.21947
2.27407
2.30796
2.41917
2.49384
2.90609
2.10869
2.10976
2.10977
2.12307
2.13036
2.16262
2.18196
2.24731
2.2899
2.51257
2.06484
2.05971
2.05671
2.06037
2.06275
2.07953
2.0898
2.12734
2.15137
2.27495
2.03002
2.02112
2.01407
2.01117
2.00967
2.01649
2.02042
2.04026
2.05273
2.12333
2.00195
1.99091
1.98004
1.97394
1.96744
1.96699
1.96691
1.9748
1.98006
2.02063
1.9793
1.96707
1.95298
1.94452
1.93423
1.92957
1.92396
1.92423
1.92477
1.94627
1.96205
1.94718
1.93241
1.92035
1.90883
1.89962
1.89138
1.8858
1.88119
1.89092
1.9479
1.93174
1.91528
1.90202
1.88752
1.87732
1.86436
1.85775
1.84553
1.84933
1.93617
1.91999
1.90116
1.88782
1.87034
1.85968
1.8433
1.8352
1.81766
1.81716
1.92678
1.91107
1.88999
1.87682
1.85686
1.84582
1.82683
1.81754
1.79867
1.79222
1.91969
1.90423
1.88166
1.86824
1.84692
1.83491
1.81471
1.80357
1.7846
1.77375
1.91475
1.89825
1.8759
1.86089
1.84004
1.82585
1.80624
1.79238
1.77389
1.76014
1.91126
1.893
1.87155
1.85459
1.83458
1.81835
1.79933
1.78344
1.76511
1.74939
1.90938
1.89001
1.86876
1.85062
1.83066
1.81325
1.79411
1.77704
1.75836
1.74145
1.90023
1.87846
1.85638
1.83596
1.815
1.79553
1.77526
1.7564
1.73653
1.71803
3.01345
3.32296
3.85872
4.69932
6.18593
9.34597
19.3839
74.5454
493.022
833.249
3.02149
3.3205
3.8859
4.75867
6.39944
9.91883
20.3438
76.2751
525.426
831.781
3.02547
3.31473
3.90327
4.80903
6.45085
9.95695
21.6725
84.1562
559.899
840.688
3.03323
3.31921
3.91396
4.93623
6.79891
10.7729
22.5424
86.7627
588.781
851.035
3.0292
3.31117
3.9012
4.92155
6.81926
10.8333
25.0625
97.3726
620.061
868.226
3.07444
3.37838
4.00222
5.16378
7.33095
11.7775
25.8522
104.132
643.143
868.144
3.07549
3.38553
4.00893
5.18632
7.42831
12.0291
30.2281
116.199
668.407
858.505
3.16384
3.51004
4.21297
5.58328
8.25578
13.5985
31.9558
132.521
681.248
838.803
3.19211
3.54761
4.27683
5.7093
8.56123
14.0415
39.1872
160.909
679.384
817.806
3.33953
3.75425
4.63118
6.40483
9.97726
17.751
46.7691
201.556
671.512
790.869
3.20654
3.44613
4.14177
4.62432
8.11793
10.4607
10.6992
110.152
436.916
1036.45
3.11189
3.4771
4.03948
4.06386
5.26639
10.8051
16.1236
75.2802
391.377
980.297
3.11317
3.4764
4.04309
4.23766
5.34657
9.48298
16.6321
71.2528
397.678
936.717
3.10251
3.4413
3.98742
4.43222
5.69989
8.83146
16.8125
67.9642
404.086
916.711
3.09409
3.40861
3.94401
4.55577
5.77311
8.66369
16.8512
65.9134
389.589
878.52
3.0782
3.3852
3.91162
4.59471
5.91766
8.44076
17.1888
64.7963
381.812
847.917
3.06089
3.36291
3.88721
4.61001
5.9622
8.64927
17.2944
64.4043
386.709
842.46
3.03862
3.33992
3.86776
4.61054
5.99145
8.88415
17.5715
65.4053
404.967
838.097
3.01342
3.31255
3.84348
4.61134
6.04606
9.0783
17.9718
67.5796