/*--------------------------------*- C++ -*----------------------------------*\
  =========                 |
  \\      /  F ield         | OpenFOAM: The Open Source CFD Toolbox
   \\    /   O peration     | Website:  https://openfoam.org
    \\  /    A nd           | Version:  8
     \\/     M anipulation  |
\*---------------------------------------------------------------------------*/
FoamFile
{
    version     2.0;
    format      ascii;
    class       volScalarField;
    location    "2.0000073";
    object      k;
}
// * * * * * * * * * * * * * * * * * * * * * * * * * * * * * * * * * * * * * //

dimensions      [0 2 -2 0 0 0 0];

internalField   nonuniform List<scalar> 
6800
(
6.72501
12.3592
19.2103
19.3831
18.3732
15.7038
11.0438
7.15205
3.97232
2.56824
5.85624
15.4763
19.653
19.0185
16.9835
12.0278
7.05468
3.886
2.35893
1.75035
7.49577
17.2646
19.1177
18.0198
13.9929
7.88018
4.25709
2.57498
1.72829
1.21785
8.36461
17.311
18.2732
16.3006
10.1393
5.36318
3.0345
1.84302
1.20579
0.897718
9.18288
17.3279
17.7511
14.3144
7.23094
3.65623
1.9834
1.3038
0.949621
0.777523
9.8397
17.2631
17.1214
11.0905
5.12667
2.55334
1.59901
1.12013
0.847732
0.707474
10.4956
18.0979
16.5409
8.30231
3.59305
1.96726
1.24346
0.915256
0.726652
0.634028
11.0303
18.6475
14.8784
5.98588
2.81748
1.59224
1.11602
0.852541
0.690185
0.611641
11.5794
19.805
12.8473
4.81779
2.1829
1.3805
0.993801
0.754261
0.632061
0.5736
12.0297
20.7772
10.9501
3.86308
1.96139
1.2708
0.911501
0.727121
0.617101
0.563192
41.22
59.5552
61.8971
61.6011
61.9204
63.7139
66.3961
69.2024
71.2109
72.102
39.5933
57.3097
60.4363
61.1602
62.8362
66.101
70.4499
75.0493
79.0204
81.2479
36.6363
53.3861
57.7009
60.345
64.3503
69.8792
76.0333
81.2243
84.9157
86.7628
33.1107
49.0308
54.7546
60.1465
67.0265
74.6651
79.9809
82.2205
81.9781
78.8546
29.4067
45.3623
53.5328
62.1154
71.596
77.3301
76.9224
73.4578
67.4806
54.1497
26.1395
43.6059
55.4583
66.7018
71.8469
69.1859
62.2072
48.3277
38.5576
25.5443
23.3238
44.1718
59.9496
63.2099
57.3243
44.3376
32.1174
23.2694
19.4827
14.1846
21.9335
46.1743
49.0953
40.809
29.9394
23.8327
19.7059
15.5673
13.6877
10.2777
18.5465
32.5867
26.7866
23.0497
21.1968
18.8653
15.9934
12.9034
11.2669
7.84799
13.092
15.1366
19.4712
19.6983
19.1078
17.2834
14.2291
10.8551
8.06028
4.51802
72.1938
69.7269
66.8969
64.2452
61.9049
59.8813
58.0733
56.4756
55.0887
53.8694
52.7885
51.8191
50.9387
50.1297
49.375
48.6663
47.9947
47.3601
46.7553
46.1709
45.5985
45.0316
44.4659
43.8993
43.3308
42.7609
42.1903
41.6203
41.0524
40.4881
39.9289
39.3761
38.8311
38.2949
37.7684
37.2525
36.7477
36.255
35.7745
35.307
34.8529
34.4128
33.987
33.5753
33.1778
32.7942
32.424
32.0665
31.7212
31.387
31.0632
30.7486
30.4423
30.1431
29.8502
29.5627
29.2799
29.0011
28.726
28.454
28.1851
27.9189
27.6555
27.3948
27.1369
26.8819
26.6299
26.381
26.1354
25.8932
25.6545
25.4192
25.1876
24.9596
24.7352
24.5144
24.2972
24.0836
23.8736
23.6671
23.4641
23.2645
23.0685
22.8759
22.6867
22.501
22.3187
22.1399
21.9645
21.7924
21.6241
21.4582
21.2973
21.1363
20.9846
20.825
20.6876
20.5186
20.4149
20.1927
81.8583
78.8284
75.3422
72.0852
69.1923
66.6876
64.5042
62.6294
60.9903
59.5494
58.2712
57.1257
56.0872
55.1328
54.2396
53.4045
52.614
51.8607
51.137
50.4345
49.7435
49.0567
48.3701
47.6824
46.9941
46.3063
45.6206
44.9388
44.2629
43.5946
42.9357
42.2874
41.6511
41.0276
40.4175
39.8217
39.2407
38.675
38.125
37.5911
37.0743
36.5746
36.0919
35.626
35.1764
34.7429
34.3246
33.921
33.5312
33.1539
32.7883
32.4332
32.0874
31.7498
31.4194
31.0953
30.7768
30.4632
30.1542
29.8493
29.5483
29.251
28.9573
28.6674
28.3812
28.0989
27.8206
27.5463
27.2761
27.0101
26.7484
26.491
26.2378
25.9889
25.7443
25.5039
25.2676
25.0355
24.8075
24.5835
24.3634
24.1474
23.9353
23.7271
23.5228
23.3223
23.1258
22.9331
22.7443
22.559
22.378
22.1996
22.0268
21.8538
21.6909
21.5195
21.3722
21.1909
21.08
20.8414
87.5911
84.9343
81.2018
77.7449
74.6852
72.0331
69.7423
67.781
66.0639
64.5518
63.2083
62.0101
60.9278
59.9307
59.0162
58.1618
57.3489
56.5721
55.8191
55.0785
54.3356
53.5833
52.8209
52.0502
51.2738
50.4955
49.7177
48.9441
48.1778
47.4209
46.6752
45.9424
45.2235
44.5198
43.8317
43.1603
42.5063
41.8701
41.2522
40.6532
40.0726
39.5106
38.9675
38.4433
37.9376
37.45
36.9796
36.5255
36.0868
35.662
35.2501
34.8495
34.4591
34.0776
33.7039
33.3371
32.9764
32.6214
32.2717
31.9267
31.5861
31.2502
30.919
30.5925
30.2709
29.9542
29.6425
29.3359
29.0344
28.738
28.4468
28.1606
27.8794
27.6033
27.332
27.0656
26.8039
26.547
26.2946
26.0469
25.8037
25.565
25.3308
25.1011
24.8758
24.6549
24.4385
24.2264
24.0188
23.815
23.6161
23.42
23.2303
23.0401
22.8615
22.6729
22.5116
22.3122
22.1912
21.9279
79.1069
78.0071
75.5805
73.1552
70.9993
69.0517
67.3508
65.8987
64.6062
63.4704
62.4305
61.5133
60.6913
59.9101
59.1729
58.4806
57.7944
57.1453
56.5175
55.9055
55.2685
54.6004
53.9067
53.1931
52.465
51.7289
50.9871
50.2463
49.5102
48.7818
48.0619
47.3515
46.6524
45.9664
45.2946
44.638
43.9976
43.3742
42.7683
42.1805
41.6108
41.0597
40.5268
40.0122
39.5153
39.0357
38.5725
38.1245
37.6908
37.2698
36.8603
36.4606
36.0695
35.6858
35.3086
34.9371
34.5706
34.209
33.8514
33.4989
33.1512
32.808
32.4692
32.135
31.8053
31.4804
31.1601
30.8447
30.5341
30.2283
29.9273
29.6312
29.3397
29.053
28.7709
28.4935
28.2206
27.9523
27.6885
27.4292
27.1744
26.9241
26.6783
26.4371
26.2003
25.968
25.7401
25.5165
25.2975
25.0823
24.8722
24.6646
24.464
24.2622
24.0733
23.8726
23.7021
23.4895
23.3618
23.0794
52.6756
51.7146
50.8573
50.3423
50.0198
49.6977
49.5205
49.4671
49.3047
49.2784
49.1028
49.0804
49.1395
49.02
48.9948
49.0305
48.8542
48.7839
48.729
48.7334
48.5779
48.3263
48.012
47.6505
47.2519
46.8274
46.3778
45.9191
45.4536
44.9824
44.5068
44.029
43.5517
43.0773
42.6075
42.1435
41.6864
41.237
40.7965
40.3656
39.9449
39.5353
39.1371
38.7506
38.3757
38.0122
37.6592
37.3159
36.9811
36.6535
36.3317
36.0143
35.7001
35.3883
35.0782
34.7694
34.4617
34.155
33.8494
33.5448
33.2416
32.9401
32.6407
32.3438
32.0496
31.7583
31.4701
31.185
30.9031
30.6245
30.3491
30.0771
29.8084
29.543
29.281
29.0224
28.7673
28.5156
28.2674
28.0229
27.782
27.5448
27.3114
27.0818
26.856
26.6341
26.416
26.2017
25.9913
25.7842
25.5817
25.381
25.1871
24.9908
24.8078
24.6113
24.4461
24.2371
24.1135
23.8336
24.5278
23.9506
23.6756
23.6759
23.8049
23.9628
24.2648
24.5656
25.1095
25.8821
26.7347
27.6606
28.5855
29.4538
30.2611
31.028
31.7536
32.3839
32.9388
33.4005
33.7814
34.0846
34.3268
34.5085
34.6367
34.7285
34.7639
34.7941
34.8055
34.7928
34.7531
34.6936
34.6209
34.5377
34.4463
34.3475
34.2417
34.1298
34.0132
33.8922
33.7683
33.643
33.5167
33.3901
33.2643
33.139
33.0146
32.8896
32.7633
32.6346
32.5024
32.3657
32.2238
32.0762
31.923
31.7641
31.5996
31.4305
31.2562
31.0784
30.8963
30.711
30.5233
30.334
30.1428
29.95
29.7561
29.5613
29.366
29.1702
28.9743
28.7783
28.5824
28.3868
28.1917
27.9972
27.8034
27.6107
27.4191
27.229
27.0402
26.8533
26.668
26.4848
26.3035
26.1245
25.9474
25.7727
25.6002
25.4295
25.2619
25.0946
24.9326
24.7669
24.613
24.445
24.3054
24.1247
24.0196
23.7757
13.6895
13.1915
12.868
12.6756
12.5977
12.546
12.4739
12.4742
12.5551
12.7847
13.088
13.4007
13.7277
14.0385
14.3569
14.6566
14.9643
15.2752
15.6218
15.9609
16.3194
16.6807
17.0356
17.3856
17.7379
18.0879
18.4349
18.7912
19.1471
19.5095
19.8747
20.2351
20.5941
20.9511
21.3042
21.6472
21.9746
22.2879
22.5791
22.8453
23.095
23.3276
23.5486
23.7596
23.9628
24.1592
24.3447
24.5196
24.684
24.8365
24.976
25.1019
25.214
25.312
25.3967
25.4679
25.5261
25.5728
25.6059
25.6301
25.6407
25.6428
25.6378
25.6246
25.6
25.5679
25.5287
25.4834
25.4321
25.3753
25.3133
25.2466
25.1754
25.1003
25.0212
24.939
24.8535
24.7656
24.675
24.5828
24.4883
24.3929
24.2957
24.198
24.0988
23.9996
23.899
23.7988
23.6975
23.5962
23.495
23.3927
23.2919
23.1871
23.0889
22.9789
22.8882
22.7671
22.6969
22.5303
9.85976
9.4485
9.12033
8.91706
8.73652
8.60059
8.46216
8.31509
8.15538
7.98499
7.8139
7.63605
7.46687
7.292
7.12653
6.97573
6.86083
6.75843
6.67153
6.60393
6.5454
6.53257
6.49788
6.50871
6.53932
6.60072
6.67779
6.78404
6.897
7.03181
7.19705
7.38148
7.59473
7.8289
8.0911
8.36448
8.65922
8.95422
9.27269
9.61019
9.97092
10.3544
10.7581
11.1791
11.6138
12.0579
12.5053
12.9532
13.3972
13.8334
14.2582
14.6689
15.064
15.4414
15.8021
16.1433
16.4685
16.7727
17.0545
17.3162
17.5587
17.7823
17.9913
18.1849
18.366
18.5334
18.6898
18.8346
18.9686
19.0924
19.2063
19.3114
19.4073
19.4952
19.5745
19.6467
19.7109
19.769
19.8195
19.8649
19.9031
19.9371
19.9642
19.9881
20.0053
20.0203
20.0285
20.0357
20.0363
20.0376
20.0331
20.0253
20.0118
19.9974
19.9788
19.9577
19.936
19.9069
19.8849
19.8456
7.46291
7.05833
6.73206
6.44006
6.16178
5.88798
5.61792
5.35077
5.08913
4.8317
4.5829
4.34397
4.11313
3.90038
3.69451
3.50632
3.32297
3.15158
3.0037
2.87555
2.76099
2.66371
2.57388
2.4994
2.42992
2.37698
2.32558
2.29303
2.25961
2.24314
2.24368
2.25181
2.26058
2.28248
2.31074
2.35105
2.40438
2.46651
2.53879
2.62466
2.7242
2.84128
2.97461
3.1254
3.29231
3.47747
3.67869
3.89786
4.13173
4.38178
4.64379
4.91958
5.20426
5.50048
5.80252
6.11438
6.42874
6.7518
7.08227
7.41854
7.75937
8.10202
8.4456
8.78781
9.12753
9.46342
9.79346
10.1177
10.4331
10.7408
11.0377
11.3259
11.602
11.869
12.1231
12.3686
12.6005
12.823
13.0306
13.2304
13.4157
13.5953
13.761
13.9231
14.0715
14.2185
14.3512
14.485
14.6033
14.725
14.83
14.9412
15.0325
15.1339
15.2113
15.3039
15.3675
15.456
15.4975
15.6157
4.16763
3.80936
3.45997
3.16077
2.91504
2.71004
2.53618
2.38588
2.25383
2.13554
2.02855
1.93077
1.84106
1.7591
1.68369
1.61455
1.55054
1.49097
1.43566
1.38468
1.3369
1.2929
1.25091
1.21237
1.17502
1.14078
1.10782
1.07746
1.04886
1.02126
0.997631
0.976738
0.958601
0.942847
0.930655
0.919276
0.912615
0.905091
0.901398
0.900234
0.905497
0.90767
0.922714
0.924852
0.935281
0.949964
0.971634
1.00117
1.03462
1.07637
1.1216
1.17562
1.23264
1.29939
1.36872
1.44874
1.53132
1.62543
1.72251
1.83252
1.94606
2.0738
2.20516
2.35166
2.50143
2.66705
2.83505
3.01913
3.20416
3.40493
3.60478
3.81975
4.03169
4.25802
4.47912
4.71388
4.94133
5.18395
5.41823
5.6675
5.90522
6.15801
6.3956
6.64864
6.8825
7.13282
7.35949
7.60461
7.82082
8.05891
8.26163
8.49179
8.6782
8.90082
9.06793
9.28424
9.42778
9.64429
9.74667
10.0403
1.78204
1.7222
1.65943
1.59641
1.53371
1.47212
1.41217
1.35412
1.29826
1.24475
1.19386
1.14569
1.10046
1.05819
1.01892
0.982518
0.948811
0.917606
0.888561
0.861562
0.836162
0.812416
0.789822
0.768652
0.748342
0.729342
0.711079
0.694077
0.677778
0.662613
0.648183
0.634913
0.622274
0.610764
0.599822
0.58986
0.580397
0.571831
0.563521
0.556283
0.549242
0.543294
0.537442
0.532587
0.527695
0.524089
0.520418
0.518318
0.51598
0.515444
0.514459
0.514966
0.516103
0.518919
0.521394
0.526763
0.530665
0.538891
0.544523
0.556123
0.564012
0.579451
0.590528
0.61055
0.625576
0.651376
0.671076
0.703437
0.728501
0.768514
0.799883
0.848708
0.88729
0.94605
0.99269
1.06248
1.11793
1.19984
1.26494
1.36028
1.43592
1.54579
1.63247
1.75751
1.85519
1.99555
2.10354
2.25896
2.37581
2.54569
2.6692
2.85257
2.98004
3.176
3.3049
3.51075
3.63513
3.85368
3.95527
4.29869
1.20315
1.15979
1.11589
1.07208
1.03017
0.990483
0.953186
0.918217
0.885536
0.854964
0.826419
0.799722
0.774807
0.751529
0.729818
0.709544
0.690616
0.672917
0.656322
0.640748
0.626041
0.612174
0.598988
0.5865
0.574554
0.563213
0.552305
0.541939
0.531956
0.52251
0.513367
0.504684
0.496263
0.488295
0.480597
0.473371
0.466357
0.459782
0.453362
0.447383
0.441507
0.436084
0.430697
0.425772
0.420816
0.416348
0.411803
0.407781
0.403643
0.400104
0.396359
0.393204
0.389817
0.387063
0.384069
0.381712
0.379138
0.377169
0.375028
0.373438
0.371753
0.370561
0.369387
0.36865
0.368121
0.367926
0.367769
0.368221
0.368997
0.370952
0.372452
0.375915
0.37823
0.383323
0.386528
0.393398
0.397654
0.406589
0.412092
0.423637
0.43071
0.445594
0.454661
0.473762
0.485265
0.509572
0.523951
0.554404
0.57209
0.609526
0.630966
0.675892
0.701317
0.754822
0.785
0.843185
0.879535
0.948688
0.979193
1.10397
0.878751
0.857753
0.836339
0.814825
0.793643
0.772947
0.752859
0.733333
0.714422
0.696069
0.678335
0.661173
0.644636
0.628677
0.613332
0.598555
0.58438
0.570765
0.557753
0.545317
0.533495
0.522268
0.511663
0.501648
0.492221
0.483339
0.474965
0.467056
0.459562
0.452448
0.445662
0.439189
0.432977
0.427031
0.421297
0.415798
0.410476
0.405369
0.400412
0.395656
0.391023
0.386581
0.382237
0.378078
0.373994
0.370093
0.366245
0.36258
0.358947
0.355502
0.352066
0.34883
0.345577
0.342536
0.339454
0.336595
0.333674
0.330985
0.328212
0.325684
0.323048
0.320673
0.318162
0.315933
0.313539
0.311456
0.309211
0.307314
0.305216
0.303515
0.301586
0.30008
0.298338
0.297021
0.295481
0.294355
0.293034
0.292108
0.291035
0.290334
0.289555
0.289116
0.288706
0.288587
0.288629
0.288875
0.289276
0.290188
0.291043
0.292712
0.294072
0.296678
0.298598
0.302347
0.304933
0.309741
0.312898
0.319238
0.322115
0.336943
0.689263
0.677594
0.664998
0.651632
0.637914
0.624065
0.61034
0.5968
0.583611
0.57078
0.558437
0.54655
0.535215
0.524357
0.514032
0.504131
0.494683
0.485567
0.476813
0.46831
0.460112
0.452132
0.444449
0.436994
0.429859
0.422973
0.416423
0.410132
0.404175
0.398463
0.393065
0.387883
0.382981
0.37826
0.373784
0.369452
0.365335
0.361327
0.357509
0.353769
0.350199
0.346681
0.34332
0.339989
0.336807
0.333638
0.330615
0.327592
0.324715
0.321828
0.319088
0.316331
0.313722
0.31109
0.308605
0.306093
0.303725
0.301328
0.299067
0.296778
0.294614
0.292426
0.290348
0.288253
0.286255
0.284244
0.282319
0.280385
0.278531
0.276669
0.274885
0.273091
0.271377
0.269646
0.268004
0.266327
0.264753
0.26312
0.261606
0.260013
0.258555
0.257001
0.255623
0.254139
0.25283
0.251422
0.250183
0.248856
0.247716
0.246493
0.245478
0.244377
0.243495
0.24256
0.241862
0.240922
0.240171
0.23954
0.238928
0.238078
0.573064
0.565943
0.558172
0.549804
0.541103
0.532177
0.523197
0.514177
0.505241
0.496369
0.48767
0.479102
0.470768
0.46261
0.454727
0.447051
0.439683
0.432544
0.425732
0.419155
0.412907
0.406877
0.401156
0.395619
0.39036
0.385247
0.380379
0.375624
0.371091
0.366643
0.362402
0.358226
0.354248
0.350318
0.346579
0.342875
0.339357
0.33586
0.332546
0.329239
0.326113
0.32298
0.320028
0.317054
0.314261
0.311431
0.308784
0.306087
0.303573
0.300996
0.298604
0.296136
0.293857
0.29149
0.289315
0.287039
0.28496
0.282769
0.280779
0.278667
0.276761
0.274722
0.272894
0.270922
0.269167
0.267256
0.265571
0.263716
0.262096
0.260291
0.258734
0.256973
0.255476
0.253754
0.252315
0.250628
0.249244
0.247588
0.246258
0.244629
0.243351
0.241746
0.240519
0.238936
0.23776
0.236198
0.235072
0.233527
0.232453
0.230925
0.229903
0.228391
0.227421
0.225929
0.225014
0.223519
0.22266
0.221216
0.220277
0.218663
0.500592
0.495837
0.490504
0.484625
0.47841
0.471935
0.465355
0.458681
0.452033
0.445397
0.438872
0.432423
0.426137
0.41996
0.41397
0.408103
0.402435
0.396893
0.391556
0.386345
0.381342
0.376458
0.371783
0.367219
0.362857
0.358593
0.354525
0.350537
0.346736
0.342999
0.339439
0.335924
0.332579
0.329259
0.326102
0.322953
0.319962
0.316964
0.314121
0.311258
0.308549
0.305808
0.303223
0.300596
0.298127
0.295607
0.293248
0.290827
0.288572
0.286245
0.284087
0.281847
0.279781
0.277622
0.275642
0.273557
0.271658
0.269642
0.267819
0.265866
0.264115
0.262222
0.260538
0.258699
0.257081
0.255291
0.253735
0.251989
0.250493
0.248787
0.247348
0.245677
0.244293
0.242654
0.241323
0.239713
0.238433
0.236848
0.235617
0.234056
0.232872
0.231334
0.230194
0.228676
0.227579
0.22608
0.225025
0.223542
0.222529
0.221059
0.22009
0.21863
0.217704
0.216256
0.215376
0.213922
0.21309
0.211676
0.210753
0.209163
0.454871
0.451281
0.447277
0.442843
0.438138
0.433196
0.428142
0.422965
0.417771
0.412533
0.407347
0.402172
0.397097
0.392069
0.387172
0.382343
0.377666
0.373067
0.368629
0.364271
0.360077
0.355958
0.352002
0.348112
0.344381
0.340706
0.337185
0.333708
0.330382
0.327086
0.323938
0.320807
0.317823
0.314844
0.312009
0.309168
0.306471
0.303756
0.301186
0.298586
0.296133
0.293639
0.291292
0.288895
0.286647
0.28434
0.282183
0.279958
0.277886
0.275739
0.273746
0.271671
0.269753
0.267745
0.265898
0.263953
0.262174
0.260288
0.258573
0.256741
0.255089
0.253308
0.251715
0.249981
0.248444
0.246753
0.245272
0.24362
0.242192
0.240575
0.239198
0.237612
0.236287
0.234729
0.233453
0.231919
0.230692
0.229181
0.227998
0.226511
0.225369
0.223905
0.2228
0.221361
0.220291
0.218873
0.21784
0.216437
0.215446
0.214049
0.213108
0.21171
0.21082
0.209422
0.208574
0.207164
0.206402
0.204987
0.204359
0.202329
0.425165
0.422165
0.41885
0.415178
0.411283
0.407177
0.402972
0.398648
0.394304
0.389904
0.385542
0.381168
0.376871
0.372591
0.368414
0.364271
0.360247
0.356264
0.352412
0.348604
0.344931
0.341301
0.337808
0.334353
0.331035
0.327748
0.324597
0.321468
0.318473
0.315491
0.312641
0.309792
0.307076
0.304351
0.301758
0.299144
0.296665
0.294155
0.291782
0.289366
0.287091
0.284764
0.282581
0.280335
0.278237
0.276068
0.27405
0.271952
0.270008
0.267978
0.266103
0.264137
0.262328
0.260421
0.258674
0.256823
0.255136
0.253338
0.251707
0.249959
0.248384
0.246681
0.245159
0.243499
0.242029
0.240407
0.238987
0.237401
0.23603
0.234476
0.233152
0.231628
0.230351
0.228852
0.227621
0.226146
0.224959
0.223506
0.222361
0.22093
0.219822
0.218415
0.217341
0.215956
0.214916
0.21355
0.212545
0.211196
0.210227
0.20889
0.207958
0.206632
0.205737
0.204418
0.203558
0.202273
0.201404
0.200124
0.199253
0.197791
0.405093
0.40239
0.399452
0.396223
0.39282
0.389236
0.385571
0.381793
0.377994
0.374132
0.370297
0.366435
0.362634
0.35883
0.355112
0.351407
0.347804
0.344223
0.340753
0.337309
0.333982
0.33068
0.327498
0.324338
0.321299
0.318276
0.315375
0.312481
0.309711
0.30694
0.304291
0.301634
0.299101
0.29655
0.294122
0.291669
0.289341
0.286978
0.284742
0.282462
0.280313
0.278111
0.276042
0.273912
0.271919
0.269855
0.267933
0.265933
0.264078
0.262138
0.260346
0.258462
0.256731
0.2549
0.253226
0.251445
0.249826
0.248093
0.246526
0.244838
0.243323
0.241676
0.24021
0.238602
0.237184
0.235611
0.234241
0.232701
0.231376
0.229865
0.228586
0.227102
0.225867
0.224406
0.223214
0.221775
0.220626
0.219207
0.218097
0.216699
0.215626
0.21425
0.213208
0.211855
0.210845
0.20951
0.208534
0.207215
0.206274
0.204967
0.204061
0.202765
0.201895
0.200607
0.199771
0.198516
0.197675
0.196422
0.195568
0.194147
0.390943
0.388413
0.385693
0.382726
0.379618
0.376351
0.373017
0.369579
0.366126
0.362609
0.359117
0.355593
0.352122
0.348641
0.345235
0.34183
0.338517
0.335212
0.332008
0.328817
0.325733
0.32266
0.3197
0.316748
0.31391
0.311075
0.308356
0.305635
0.303029
0.300414
0.297915
0.2954
0.293002
0.29058
0.288277
0.285941
0.283726
0.281471
0.279338
0.277159
0.275104
0.272994
0.271012
0.268968
0.267054
0.265071
0.263222
0.261297
0.25951
0.257639
0.25591
0.25409
0.252419
0.250647
0.249029
0.247302
0.245737
0.244053
0.242538
0.240894
0.239428
0.237823
0.236403
0.234834
0.23346
0.231924
0.230595
0.229089
0.227804
0.226325
0.225083
0.22363
0.22243
0.220999
0.219841
0.21843
0.217313
0.215921
0.214842
0.213469
0.212426
0.211073
0.210063
0.208729
0.207751
0.206435
0.205489
0.204186
0.203279
0.20198
0.201117
0.199817
0.199
0.1977
0.196919
0.195607
0.194907
0.19359
0.19301
0.191125
0.380578
0.378147
0.375559
0.372759
0.369844
0.366788
0.36368
0.360474
0.357258
0.35398
0.350726
0.347437
0.344198
0.340943
0.337757
0.334567
0.331461
0.328357
0.325346
0.322339
0.319433
0.316531
0.313732
0.310935
0.308245
0.305552
0.302967
0.300375
0.297892
0.295394
0.293007
0.290599
0.288303
0.285979
0.28377
0.281524
0.279394
0.277222
0.275168
0.273063
0.271081
0.26904
0.267126
0.265145
0.263294
0.261369
0.259579
0.257707
0.255975
0.254152
0.252476
0.250701
0.249077
0.247347
0.245775
0.244087
0.242565
0.240916
0.239442
0.237832
0.236404
0.234829
0.233446
0.231905
0.230566
0.229056
0.227759
0.226278
0.225023
0.22357
0.222355
0.220926
0.219752
0.218346
0.21721
0.215825
0.214727
0.213361
0.212301
0.210952
0.209929
0.208596
0.207609
0.206291
0.205338
0.204034
0.203116
0.201824
0.200941
0.199659
0.198811
0.197536
0.196724
0.195458
0.194682
0.19341
0.192672
0.191439
0.190619
0.189224
0.372818
0.370443
0.367937
0.365245
0.362459
0.359547
0.356592
0.353548
0.350499
0.34739
0.344306
0.341186
0.338115
0.335024
0.332
0.328967
0.326012
0.323055
0.320186
0.317316
0.314541
0.311764
0.309087
0.306406
0.303826
0.301239
0.298756
0.29626
0.29387
0.291461
0.289159
0.286834
0.284616
0.282367
0.280228
0.278052
0.275989
0.27388
0.271887
0.269841
0.267915
0.265929
0.264066
0.262136
0.260334
0.258455
0.25671
0.254882
0.253192
0.25141
0.249773
0.248035
0.246449
0.244753
0.243216
0.241561
0.240071
0.238453
0.237009
0.235428
0.234028
0.232481
0.231125
0.229609
0.228295
0.22681
0.225537
0.224079
0.222847
0.221415
0.220222
0.218815
0.21766
0.216274
0.215158
0.213792
0.212713
0.211365
0.210323
0.208992
0.207985
0.20667
0.205698
0.204397
0.20346
0.202172
0.201268
0.199992
0.199123
0.197856
0.197022
0.195761
0.194962
0.193711
0.192947
0.19169
0.190963
0.189743
0.188937
0.187555
0.366929
0.36458
0.362121
0.359498
0.356799
0.353985
0.351139
0.348209
0.345279
0.342292
0.339332
0.336335
0.333386
0.330416
0.327511
0.324593
0.321752
0.318904
0.316141
0.313374
0.310697
0.308016
0.30543
0.302837
0.300342
0.297837
0.295431
0.29301
0.290691
0.288351
0.286115
0.283852
0.281694
0.279504
0.277421
0.275298
0.273285
0.271226
0.26928
0.26728
0.265398
0.263454
0.261632
0.259741
0.257976
0.256135
0.254425
0.25263
0.250974
0.249224
0.247617
0.24591
0.244352
0.242686
0.241175
0.239546
0.238082
0.236489
0.235069
0.233511
0.232134
0.230609
0.229273
0.227779
0.226484
0.225019
0.223764
0.222326
0.22111
0.219697
0.218519
0.217129
0.215989
0.21462
0.213517
0.212168
0.211102
0.20977
0.20874
0.207424
0.206429
0.205129
0.204168
0.202881
0.201954
0.200681
0.199787
0.198524
0.197665
0.196411
0.195587
0.19434
0.193553
0.192305
0.191555
0.190323
0.189619
0.188366
0.187816
0.185993
0.36237
0.360031
0.357599
0.35502
0.352378
0.349632
0.346861
0.344012
0.341167
0.338268
0.335397
0.332491
0.329633
0.326753
0.323936
0.321105
0.318349
0.315585
0.312903
0.310214
0.307614
0.305007
0.302492
0.299968
0.297539
0.295097
0.292753
0.290391
0.28813
0.285844
0.283661
0.281449
0.27934
0.277196
0.275159
0.273079
0.271109
0.269089
0.267182
0.265219
0.263373
0.261464
0.259675
0.257815
0.256082
0.25427
0.252589
0.250822
0.249192
0.247468
0.245887
0.244203
0.242669
0.241024
0.239535
0.237927
0.236483
0.23491
0.233508
0.231969
0.230609
0.229101
0.227782
0.226304
0.225025
0.223575
0.222335
0.220911
0.219709
0.21831
0.217145
0.215769
0.214641
0.213285
0.212193
0.210857
0.209801
0.208481
0.207461
0.206157
0.205171
0.203883
0.20293
0.201655
0.200736
0.199474
0.198588
0.197337
0.196484
0.195241
0.194423
0.193187
0.192406
0.19117
0.190424
0.189204
0.188505
0.187263
0.186718
0.184907
0.358766
0.356426
0.354006
0.351454
0.348852
0.346154
0.343438
0.34065
0.337869
0.335037
0.332236
0.3294
0.326613
0.323805
0.321058
0.318298
0.315611
0.312914
0.310298
0.307674
0.305136
0.302589
0.300132
0.297664
0.29529
0.292899
0.290606
0.288292
0.286076
0.283834
0.281694
0.27952
0.277451
0.275342
0.273341
0.271293
0.269355
0.267365
0.265488
0.263552
0.261733
0.259848
0.258085
0.256247
0.254537
0.252745
0.251087
0.249338
0.247728
0.246021
0.244459
0.242792
0.241276
0.239646
0.238174
0.23658
0.235151
0.233592
0.232205
0.230678
0.229332
0.227836
0.22653
0.225063
0.223796
0.222356
0.221128
0.219713
0.218523
0.217132
0.215979
0.21461
0.213492
0.212144
0.211063
0.209733
0.208687
0.207374
0.206363
0.205066
0.204089
0.202806
0.201863
0.200594
0.199683
0.198428
0.197549
0.196305
0.195459
0.194224
0.193412
0.192184
0.191407
0.19018
0.189439
0.188227
0.187533
0.1863
0.185759
0.18396
0.355995
0.353644
0.351224
0.348688
0.346111
0.343447
0.340769
0.338026
0.335293
0.332513
0.329763
0.326983
0.324249
0.321496
0.318803
0.316096
0.31346
0.310814
0.308246
0.305669
0.303176
0.300672
0.298256
0.295828
0.29349
0.291135
0.288874
0.286592
0.284405
0.282191
0.280077
0.277928
0.275882
0.273795
0.271815
0.269786
0.267868
0.265894
0.264036
0.262114
0.260313
0.258441
0.256694
0.254869
0.253174
0.251394
0.249749
0.248012
0.246415
0.244719
0.243168
0.241512
0.240006
0.238387
0.236926
0.235342
0.233923
0.232374
0.230997
0.229479
0.228143
0.226656
0.22536
0.223902
0.222644
0.221213
0.219994
0.218588
0.217406
0.216024
0.214879
0.213519
0.21241
0.21107
0.209997
0.208675
0.207637
0.206333
0.205329
0.204041
0.203071
0.201797
0.200861
0.1996
0.198697
0.197449
0.196578
0.19534
0.194503
0.193274
0.192471
0.191248
0.190481
0.189259
0.188526
0.187321
0.186633
0.185407
0.18487
0.183087
0.35395
0.35158
0.34915
0.346616
0.344048
0.341401
0.338745
0.336028
0.333322
0.330574
0.327855
0.325107
0.322403
0.319682
0.317015
0.314338
0.311725
0.309105
0.306556
0.304001
0.301524
0.299039
0.296635
0.294221
0.291892
0.289549
0.287295
0.285022
0.28284
0.280635
0.278524
0.276384
0.274343
0.272264
0.270289
0.268269
0.266358
0.264394
0.262544
0.260633
0.258841
0.25698
0.255242
0.253428
0.251743
0.249974
0.248339
0.246614
0.245028
0.243345
0.241807
0.240164
0.238671
0.237067
0.235618
0.23405
0.232644
0.23111
0.229745
0.228244
0.22692
0.225449
0.224165
0.222722
0.221477
0.22006
0.218853
0.217461
0.216291
0.214923
0.213789
0.212442
0.211344
0.210017
0.208955
0.207646
0.206618
0.205326
0.204333
0.203056
0.202096
0.200834
0.199907
0.198659
0.197764
0.196527
0.195666
0.194439
0.19361
0.192393
0.191596
0.190387
0.189625
0.188416
0.187688
0.186495
0.185814
0.1846
0.184067
0.182297
0.352337
0.349946
0.347504
0.344966
0.342398
0.339756
0.337102
0.33439
0.331684
0.328934
0.326208
0.323452
0.320733
0.317997
0.315311
0.312615
0.309981
0.307343
0.304775
0.302206
0.299707
0.2972
0.294773
0.29234
0.289993
0.28764
0.285375
0.283103
0.280921
0.278727
0.276626
0.274505
0.27248
0.270428
0.268474
0.266488
0.264601
0.262673
0.26085
0.258977
0.257213
0.255392
0.253685
0.251914
0.250261
0.248535
0.246932
0.245248
0.243693
0.24205
0.240539
0.238934
0.237467
0.235898
0.234472
0.232937
0.231552
0.230049
0.228703
0.227231
0.225924
0.224481
0.22321
0.221794
0.220561
0.21917
0.217973
0.216606
0.215445
0.214099
0.212974
0.211647
0.210558
0.20925
0.208195
0.206903
0.205883
0.204608
0.203621
0.20236
0.201406
0.20016
0.199236
0.198005
0.197112
0.195892
0.195032
0.193822
0.192994
0.191791
0.190997
0.189801
0.189042
0.187845
0.187121
0.18594
0.185259
0.184057
0.18353
0.181783
0.351094
0.348641
0.34612
0.343524
0.340877
0.338133
0.335364
0.332525
0.329692
0.326815
0.323972
0.321109
0.318303
0.315492
0.312755
0.310023
0.307374
0.304735
0.302186
0.299646
0.297203
0.294775
0.292441
0.290112
0.287874
0.285633
0.283481
0.281318
0.279243
0.277151
0.275145
0.273117
0.271176
0.269205
0.267324
0.265407
0.263582
0.261715
0.259943
0.258123
0.256401
0.254625
0.252951
0.251217
0.24959
0.247896
0.246314
0.244657
0.243119
0.241499
0.240002
0.238418
0.236962
0.235411
0.233995
0.232477
0.231099
0.229611
0.228271
0.226813
0.22551
0.22408
0.222813
0.22141
0.220179
0.2188
0.217605
0.216248
0.215088
0.213752
0.212629
0.211311
0.210223
0.208923
0.20787
0.206586
0.205568
0.204298
0.203313
0.20206
0.201104
0.199869
0.198941
0.197723
0.196821
0.195619
0.194746
0.193556
0.192714
0.191532
0.190723
0.189549
0.18877
0.187602
0.186853
0.185716
0.18496
0.183828
0.183055
0.181768
0.347468
0.344806
0.34216
0.33944
0.33675
0.334036
0.33136
0.328665
0.326015
0.323353
0.320744
0.318127
0.31557
0.313009
0.310513
0.308013
0.305583
0.303149
0.300786
0.298419
0.296126
0.293825
0.2916
0.289365
0.287206
0.285033
0.282939
0.280826
0.278793
0.276738
0.274764
0.272764
0.270847
0.268898
0.267035
0.265135
0.263324
0.261471
0.25971
0.257902
0.256188
0.254423
0.252756
0.251031
0.24941
0.247724
0.246146
0.244497
0.242962
0.241349
0.239856
0.238277
0.236824
0.235279
0.233864
0.232351
0.230975
0.229492
0.228153
0.226699
0.225398
0.223971
0.222706
0.221305
0.220075
0.218699
0.217505
0.216151
0.214992
0.213658
0.212536
0.21122
0.210134
0.208834
0.207784
0.206498
0.205483
0.204213
0.203231
0.201976
0.201024
0.199787
0.198862
0.197643
0.196744
0.195542
0.19467
0.193479
0.192641
0.191454
0.190656
0.189466
0.18871
0.187518
0.186797
0.185593
0.184946
0.18374
0.183208
0.181467
0.508277
0.516887
0.549143
0.56565
0.604043
0.665022
0.716288
0.866168
1.07092
1.80641
0.466631
0.476845
0.489913
0.515839
0.532237
0.582006
0.612727
0.700149
0.786604
1.23608
0.440417
0.449842
0.455232
0.473731
0.48426
0.518194
0.538927
0.598757
0.64269
0.894233
0.424937
0.430993
0.433995
0.445296
0.451812
0.473294
0.486754
0.527208
0.553676
0.695183
0.413294
0.417275
0.419212
0.426422
0.430437
0.443662
0.451956
0.477445
0.494066
0.575986
0.403585
0.406199
0.407407
0.412344
0.414922
0.423516
0.428622
0.444369
0.454572
0.502541
0.396099
0.397469
0.398155
0.40131
0.402962
0.408643
0.411878
0.421842
0.428072
0.456344
0.390296
0.390769
0.391057
0.392855
0.393831
0.397421
0.399446
0.40578
0.409608
0.426404
0.38538
0.385315
0.385287
0.386156
0.386633
0.388764
0.389961
0.393905
0.396232
0.406368
0.381571
0.381019
0.380647
0.380781
0.380877
0.381922
0.382529
0.384818
0.386165
0.392393
0.378541
0.37765
0.376943
0.376525
0.376323
0.376526
0.376687
0.377757
0.378415
0.382207
0.376059
0.374989
0.373968
0.373259
0.37262
0.372278
0.372102
0.372268
0.372425
0.374563
0.37411
0.372739
0.371634
0.37055
0.369744
0.368944
0.368407
0.367965
0.367727
0.368682
0.372478
0.371
0.369652
0.368474
0.367295
0.366414
0.365346
0.364784
0.363755
0.364141
0.371155
0.369691
0.368056
0.366872
0.365348
0.364407
0.362957
0.362226
0.360617
0.360563
0.370106
0.368706
0.366811
0.365652
0.363851
0.362867
0.361128
0.360261
0.358503
0.357826
0.369286
0.367896
0.365858
0.364649
0.362729
0.361617
0.359779
0.358697
0.356928
0.355821
0.368713
0.367164
0.365166
0.363751
0.361886
0.360527
0.358743
0.357381
0.355641
0.354246
0.368389
0.366703
0.36472
0.363149
0.361288
0.359763
0.357963
0.356433
0.354647
0.353086
0.36702
0.365006
0.362904
0.361011
0.359008
0.357186
0.355228
0.353435
0.351478
0.349683
0.499091
0.535579
0.594454
0.685426
0.836232
1.10951
1.79971
4.37361
19.8684
13.1979
0.49939
0.537272
0.597754
0.689164
0.835755
1.12612
1.80039
4.38213
20.4889
13.0752
0.501436
0.537015
0.604377
0.696406
0.871645
1.18581
1.95357
4.73419
21.0567
13.0096
0.500657
0.535587
0.600324
0.711141
0.87062