/*--------------------------------*- C++ -*----------------------------------*\
  =========                 |
  \\      /  F ield         | OpenFOAM: The Open Source CFD Toolbox
   \\    /   O peration     | Website:  https://openfoam.org
    \\  /    A nd           | Version:  8
     \\/     M anipulation  |
\*---------------------------------------------------------------------------*/
FoamFile
{
    version     2.0;
    format      ascii;
    class       volScalarField;
    location    "2.0000073";
    object      nut;
}
// * * * * * * * * * * * * * * * * * * * * * * * * * * * * * * * * * * * * * //

dimensions      [0 2 -1 0 0 0 0];

internalField   nonuniform List<scalar> 
6800
(
0.00973526
0.0156912
0.0368014
0.0416471
0.0485851
0.0531418
0.0438707
0.0371766
0.0225027
0.0171487
0.00855584
0.0252754
0.0417448
0.0457503
0.0557784
0.0500807
0.0354382
0.0217098
0.0158938
0.0150394
0.0109065
0.0324274
0.0426501
0.0509295
0.054601
0.0353105
0.0213354
0.0163319
0.0144895
0.0126109
0.0121076
0.0365438
0.0455824
0.0536008
0.0423939
0.026709
0.0205631
0.0160406
0.0124367
0.0104538
0.0132444
0.0398328
0.0467124
0.0532761
0.0328125
0.021714
0.0144411
0.011808
0.0103468
0.00971012
0.0141466
0.0413059
0.0490573
0.0472412
0.0275279
0.0170577
0.0144234
0.0129337
0.0111488
0.00992632
0.0150544
0.0457661
0.0531389
0.0372486
0.0193447
0.015133
0.0124323
0.0105998
0.00922492
0.00861557
0.0157684
0.0486599
0.0529734
0.0273524
0.0194159
0.0144961
0.0122116
0.0106767
0.0096079
0.00892787
0.0165223
0.0542633
0.0475153
0.0246367
0.0146397
0.0126097
0.0111879
0.00951533
0.00858304
0.00813599
0.0170987
0.0588267
0.0433608
0.021415
0.0171763
0.0137228
0.0111096
0.0098375
0.00890364
0.00839014
0.0587317
0.25074
0.347512
0.374662
0.381238
0.381985
0.385262
0.390639
0.396629
0.399128
0.0564079
0.24192
0.33616
0.363535
0.367977
0.365363
0.365021
0.366955
0.369502
0.37141
0.0521903
0.222786
0.312671
0.342503
0.344103
0.339255
0.335916
0.332808
0.328818
0.328705
0.0471635
0.200776
0.285246
0.313481
0.312381
0.306575
0.297298
0.290012
0.278916
0.261413
0.0418826
0.179031
0.256331
0.274413
0.26828
0.257162
0.241626
0.223085
0.203376
0.15283
0.0372306
0.159427
0.218454
0.220657
0.20537
0.189243
0.162907
0.11875
0.0921638
0.0643968
0.0332149
0.135789
0.168571
0.149329
0.128574
0.0918852
0.0670234
0.0548417
0.0505245
0.0415736
0.0312457
0.105665
0.0908085
0.0722998
0.0543668
0.0505458
0.0482382
0.0431842
0.0416082
0.035978
0.0264546
0.0506119
0.0408449
0.0402154
0.0446083
0.047227
0.0459811
0.041466
0.0395791
0.0330431
0.0186844
0.0192517
0.0336468
0.0385359
0.0453594
0.049203
0.0469866
0.0397892
0.0373876
0.0250111
0.400827
0.401288
0.39847
0.394917
0.391517
0.388499
0.385852
0.383626
0.381852
0.380472
0.379433
0.3786
0.37795
0.377488
0.377097
0.376808
0.376527
0.376395
0.376405
0.376508
0.376645
0.376784
0.376893
0.376955
0.376957
0.376894
0.376765
0.376571
0.376319
0.37601
0.375655
0.375262
0.37484
0.374395
0.373934
0.373458
0.372976
0.372491
0.372012
0.371539
0.371086
0.370658
0.370263
0.369902
0.369579
0.369294
0.369047
0.368837
0.368661
0.368517
0.3684
0.368304
0.368224
0.368154
0.368086
0.368017
0.367939
0.367851
0.367747
0.367626
0.367486
0.367327
0.367149
0.366952
0.366738
0.366509
0.366265
0.36601
0.365746
0.365473
0.365195
0.364912
0.364626
0.364338
0.364048
0.363758
0.363468
0.363179
0.362891
0.362604
0.362319
0.362038
0.361759
0.361486
0.361216
0.360955
0.360694
0.360451
0.3602
0.359982
0.359739
0.359556
0.359311
0.359176
0.358914
0.358834
0.35858
0.358447
0.358625
0.358005
0.373226
0.373745
0.371879
0.369169
0.366504
0.364129
0.362139
0.360628
0.359501
0.358735
0.358267
0.357934
0.357785
0.357817
0.35786
0.358067
0.358382
0.358813
0.359355
0.359987
0.360638
0.361253
0.361796
0.362253
0.362616
0.362887
0.363068
0.363165
0.36319
0.363145
0.363049
0.362916
0.362752
0.362557
0.362337
0.362093
0.361833
0.361561
0.361287
0.361011
0.360757
0.360527
0.360324
0.36015
0.360007
0.359897
0.359821
0.359778
0.359765
0.359779
0.359816
0.35987
0.359933
0.360003
0.360069
0.360126
0.360168
0.360193
0.360199
0.360183
0.360144
0.360081
0.359996
0.359891
0.359768
0.359628
0.359474
0.359307
0.359131
0.358946
0.358755
0.358559
0.358359
0.358156
0.35795
0.357742
0.357532
0.357321
0.35711
0.356899
0.356687
0.356478
0.356269
0.356066
0.355862
0.355668
0.355473
0.355295
0.355108
0.354955
0.354772
0.354653
0.354466
0.354394
0.354187
0.354173
0.353965
0.353899
0.354128
0.353584
0.333605
0.331723
0.329049
0.326168
0.323599
0.321523
0.320016
0.319184
0.318712
0.31866
0.318904
0.319505
0.320387
0.321468
0.322817
0.324363
0.326014
0.327771
0.329614
0.331463
0.333202
0.334784
0.336195
0.33744
0.338526
0.339472
0.34028
0.340975
0.341573
0.342076
0.342532
0.342946
0.343306
0.343606
0.343852
0.34405
0.34421
0.34434
0.344451
0.344552
0.344643
0.344731
0.344827
0.344937
0.345067
0.345219
0.345397
0.345598
0.345821
0.346064
0.346319
0.346583
0.346847
0.347109
0.347349
0.347567
0.347761
0.347933
0.348083
0.348202
0.348291
0.348356
0.348398
0.348422
0.348428
0.348419
0.348397
0.348363
0.348322
0.348273
0.348219
0.348158
0.348092
0.348021
0.347944
0.347863
0.347777
0.347688
0.347595
0.347499
0.347401
0.347303
0.347204
0.347108
0.34701
0.346922
0.346831
0.346759
0.346672
0.346623
0.346535
0.346518
0.34642
0.346449
0.346324
0.346407
0.346277
0.346309
0.346619
0.346155
0.262522
0.263599
0.26533
0.26629
0.267385
0.2684
0.269714
0.271514
0.273283
0.275345
0.277303
0.27956
0.282043
0.284454
0.286959
0.289627
0.292112
0.294705
0.297419
0.300294
0.302931
0.305265
0.307324
0.309142
0.310744
0.312173
0.313426
0.314552
0.315564
0.316507
0.3173
0.317955
0.318511
0.318991
0.319415
0.319794
0.320146
0.320476
0.320799
0.32112
0.321447
0.321784
0.322135
0.322507
0.322903
0.323325
0.323777
0.324256
0.324759
0.325281
0.325815
0.326352
0.326886
0.327406
0.32792
0.328419
0.328895
0.329349
0.329771
0.330178
0.330569
0.330938
0.331284
0.331607
0.331908
0.332189
0.332447
0.332697
0.332937
0.333163
0.333374
0.333571
0.333753
0.33392
0.334073
0.334212
0.334339
0.334455
0.334561
0.334658
0.334746
0.334831
0.334908
0.334985
0.335056
0.335133
0.335196
0.335278
0.335335
0.335433
0.335481
0.335606
0.335636
0.3358
0.335792
0.336007
0.335985
0.336146
0.33658
0.336231
0.151315
0.154209
0.15789
0.162526
0.167359
0.171669
0.176582
0.182025
0.186426
0.191887
0.195826
0.200741
0.206369
0.210467
0.215353
0.220985
0.224844
0.229559
0.234592
0.240348
0.244826
0.248635
0.252028
0.2551
0.257896
0.260489
0.262841
0.265083
0.267206
0.269202
0.2711
0.272888
0.274576
0.276171
0.277687
0.27913
0.280516
0.281848
0.283146
0.284407
0.285645
0.286861
0.288062
0.289254
0.290446
0.291643
0.292843
0.294043
0.295241
0.296431
0.297604
0.298751
0.299864
0.300938
0.301969
0.302958
0.303902
0.304804
0.305664
0.306479
0.307251
0.307984
0.308685
0.309355
0.309999
0.310612
0.311206
0.311761
0.312282
0.312774
0.31324
0.313683
0.314105
0.314507
0.314891
0.315259
0.31561
0.315949
0.316274
0.316591
0.316896
0.317196
0.317487
0.317778
0.318058
0.318348
0.318618
0.318912
0.319172
0.319477
0.31972
0.320049
0.320266
0.320632
0.320809
0.321223
0.321381
0.321743
0.32234
0.322229
0.0657309
0.0690108
0.0723558
0.0761128
0.079735
0.0832059
0.0872029
0.0904449
0.0951961
0.101629
0.107825
0.114463
0.12104
0.128428
0.134873
0.141165
0.148258
0.15373
0.160218
0.164546
0.168969
0.1734
0.177707
0.1818
0.185663
0.189406
0.19278
0.196238
0.199632
0.202882
0.205935
0.208846
0.211669
0.214408
0.217085
0.219692
0.222246
0.224728
0.227174
0.229538
0.231859
0.234115
0.236338
0.238529
0.240719
0.242912
0.245087
0.247219
0.24933
0.251408
0.253444
0.255427
0.25735
0.259211
0.261009
0.262743
0.264415
0.266032
0.267582
0.269085
0.270523
0.271906
0.273248
0.274548
0.275802
0.277009
0.278173
0.279301
0.280393
0.281448
0.282466
0.283449
0.284397
0.285313
0.286197
0.287053
0.287879
0.288683
0.289461
0.290221
0.290958
0.291684
0.292386
0.293085
0.293758
0.294438
0.295083
0.29575
0.296366
0.29703
0.29761
0.298282
0.298816
0.299508
0.299979
0.300702
0.30113
0.301805
0.302598
0.302909
0.0417302
0.0422718
0.0432371
0.0445688
0.0460781
0.0476763
0.0486794
0.0500149
0.0518216
0.0545548
0.0576558
0.0608527
0.0641726
0.0673531
0.0706422
0.073801
0.0770871
0.0800397
0.0848164
0.0886875
0.0925183
0.0958058
0.0989126
0.102154
0.10551
0.108908
0.112273
0.115737
0.119208
0.122776
0.126419
0.130066
0.133753
0.137464
0.141211
0.144916
0.148581
0.152183
0.155672
0.158935
0.162143
0.165202
0.168397
0.171569
0.174914
0.178156
0.181461
0.184455
0.187563
0.190641
0.193668
0.19663
0.199524
0.202343
0.205091
0.207763
0.21036
0.212893
0.215326
0.21771
0.219978
0.222188
0.224377
0.226496
0.22851
0.230449
0.232345
0.234181
0.235966
0.237695
0.239378
0.241016
0.24261
0.244163
0.245674
0.247149
0.248583
0.249987
0.251354
0.252696
0.254
0.255289
0.256536
0.257777
0.25897
0.260171
0.261312
0.26248
0.263567
0.264711
0.265746
0.266883
0.267842
0.268978
0.269846
0.270994
0.271782
0.272907
0.273925
0.274927
0.0357555
0.0359156
0.036346
0.037302
0.0382515
0.0393833
0.0404073
0.0412821
0.0419543
0.0424279
0.0428022
0.0429658
0.0430375
0.0428883
0.0427224
0.0426118
0.0427718
0.0429504
0.0430903
0.0432704
0.0434447
0.0440105
0.0441722
0.0447609
0.0454551
0.0465067
0.0475146
0.048782
0.0499596
0.0513051
0.0529701
0.0547791
0.0568318
0.0590047
0.0614379
0.0639217
0.0666523
0.0693336
0.0723387
0.075545
0.0790633
0.0827803
0.0866356
0.0906049
0.0947092
0.09889
0.103105
0.107329
0.111553
0.115746
0.11988
0.123933
0.127902
0.131768
0.135555
0.139224
0.142841
0.146305
0.149616
0.152775
0.155836
0.158784
0.161719
0.164548
0.167391
0.1701
0.172846
0.175446
0.17802
0.180524
0.18302
0.185473
0.187869
0.190219
0.192509
0.194758
0.196948
0.199101
0.201191
0.20325
0.205241
0.207212
0.209109
0.211003
0.212812
0.214642
0.216365
0.218143
0.219791
0.221557
0.223159
0.224845
0.226294
0.227968
0.229299
0.23099
0.232185
0.233912
0.235049
0.237173
0.0324635
0.0319685
0.031878
0.0318362
0.0317208
0.0315149
0.0312212
0.0308506
0.030429
0.0299297
0.0294214
0.0288756
0.0282717
0.0278098
0.0271315
0.0264057
0.02549
0.0245448
0.0237718
0.0231334
0.0225713
0.0221354
0.021714
0.021416
0.0211043
0.0209513
0.0207476
0.0207265
0.0206373
0.0206961
0.0210184
0.0213407
0.0214045
0.0217788
0.0220242
0.0225996
0.02322
0.0239078
0.0246979
0.0256331
0.0266961
0.0279409
0.0293357
0.0308812
0.032582
0.0344687
0.0365202
0.0387482
0.0411255
0.0436635
0.0463238
0.049123
0.0520136
0.0550274
0.0581019
0.0612949
0.06451
0.0678547
0.0713417
0.0749301
0.0786199
0.0823067
0.0860226
0.0897141
0.0934098
0.0970688
0.1007
0.104292
0.107823
0.111302
0.114704
0.118056
0.121323
0.12454
0.127663
0.130745
0.133724
0.136639
0.139418
0.142157
0.144769
0.14739
0.149895
0.152438
0.154846
0.157328
0.159644
0.162079
0.164299
0.166697
0.168815
0.171201
0.173193
0.175555
0.177419
0.179718
0.181402
0.183825
0.185149
0.188555
0.0238772
0.022736
0.0213394
0.0201209
0.0191731
0.0184174
0.0177954
0.017268
0.0168081
0.0163985
0.0160265
0.015689
0.0153897
0.0151324
0.0148939
0.0146718
0.0144506
0.0142274
0.0140064
0.0137972
0.0135894
0.0133988
0.0132041
0.013032
0.0128511
0.0126953
0.0125359
0.0123972
0.0122666
0.0121292
0.0120413
0.0119952
0.0119473
0.0119186
0.0119312
0.0118861
0.0119405
0.0119069
0.0119646
0.0120703
0.012224
0.0122973
0.012536
0.0125499
0.0124782
0.0128214
0.0131894
0.0136124
0.0140311
0.0145314
0.015052
0.0156685
0.0163119
0.0170675
0.0178504
0.0187608
0.0197038
0.0207861
0.0219113
0.0231972
0.0245367
0.0260547
0.0276264
0.0293873
0.0311959
0.0332022
0.0352434
0.0374855
0.0397442
0.0421986
0.0446468
0.0472827
0.0498885
0.0526725
0.0554029
0.0583013
0.0611262
0.0641622
0.067128
0.0703054
0.073361
0.0766029
0.0796571
0.0829123
0.0859298
0.0891731
0.0921202
0.0953333
0.0981771
0.101349
0.104058
0.10718
0.109728
0.112829
0.115188
0.118293
0.12038
0.123648
0.124861
0.129897
0.0143687
0.0140607
0.013755
0.0134669
0.0131874
0.0129186
0.0126603
0.0124129
0.012177
0.0119525
0.0117409
0.011542
0.0113569
0.011186
0.0110298
0.0108881
0.0107595
0.0106435
0.0105366
0.0104399
0.0103478
0.0102643
0.0101817
0.0101077
0.0100324
0.00996695
0.00989987
0.0098442
0.00978735
0.00973965
0.00969311
0.00965717
0.00962021
0.00959414
0.00956605
0.009545
0.00952244
0.00950684
0.00948309
0.00947708
0.00945893
0.00945859
0.00944304
0.00944466
0.00942374
0.00943807
0.0094242
0.00945589
0.00944292
0.00949031
0.00947014
0.00952627
0.0095585
0.00961779
0.00964989
0.00972317
0.00976797
0.00987354
0.00993878
0.010085
0.0101799
0.0103759
0.010515
0.0107732
0.0109696
0.0113122
0.0115716
0.0120096
0.0123524
0.0129058
0.013347
0.0140313
0.0145827
0.0154145
0.0160894
0.0170841
0.0178921
0.0190658
0.0200207
0.0213962
0.0225136
0.0241093
0.0253943
0.0272175
0.0286654
0.030717
0.0323126
0.0345888
0.0363053
0.0388
0.0405996
0.0433002
0.045141
0.0480398
0.0498943
0.052932
0.0546357
0.0579339
0.0594493
0.0645779
0.0116202
0.0114751
0.0113041
0.0111137
0.0109313
0.0107586
0.0105962
0.0104441
0.0103026
0.0101711
0.0100502
0.00993889
0.00983708
0.00974366
0.009658
0.00957909
0.00950573
0.00943731
0.00937223
0.00931102
0.00925181
0.00919652
0.00914319
0.00909434
0.00904771
0.00900608
0.00896609
0.00893098
0.00889736
0.00886937
0.00884094
0.00881595
0.00878939
0.00876609
0.00874188
0.00872215
0.00870023
0.00868246
0.00866206
0.00864662
0.0086278
0.00861425
0.00859603
0.00858358
0.00856624
0.0085559
0.00854043
0.00853159
0.0085183
0.00851222
0.0084971
0.00849068
0.00847973
0.0084757
0.00846767
0.00846363
0.00845806
0.00845336
0.00844966
0.00844489
0.00844174
0.00844144
0.00843718
0.00844274
0.00844691
0.00845243
0.00845587
0.00848541
0.00851381
0.00856446
0.00858454
0.00863288
0.00865943
0.00872608
0.0087636
0.00885927
0.00891252
0.00903749
0.00911131
0.00928196
0.00938073
0.00961147
0.00974208
0.0100468
0.0102158
0.010613
0.0108284
0.011333
0.0116039
0.0122309
0.012567
0.0133262
0.0137308
0.0146544
0.0151339
0.0161141
0.0167445
0.0180839
0.018135
0.0210963
0.0100298
0.00996821
0.00989822
0.00982374
0.00975003
0.00967876
0.00961217
0.00954942
0.00949132
0.00943627
0.0093847
0.00933497
0.00928725
0.0092402
0.00919357
0.00914628
0.00909813
0.00904816
0.00899696
0.00894424
0.00889126
0.00883893
0.00878907
0.00874253
0.00869999
0.00866134
0.00862588
0.00859309
0.00856173
0.00853157
0.00850143
0.00847179
0.00844154
0.00841175
0.00838125
0.0083516
0.00832144
0.00829273
0.00826373
0.00823672
0.00820952
0.00818474
0.0081598
0.00813754
0.00811504
0.00809535
0.00807524
0.00805802
0.00804011
0.00802525
0.00800925
0.00799657
0.00798213
0.00797136
0.00795819
0.00794902
0.00793689
0.00792903
0.00791774
0.00791088
0.00790033
0.0078929
0.00788144
0.00787325
0.00786124
0.00785207
0.00784182
0.00783399
0.0078259
0.00781939
0.00781372
0.00780793
0.00780462
0.00779944
0.00779871
0.00779417
0.00779614
0.00779264
0.00779822
0.00779657
0.00780641
0.00780694
0.00782225
0.00782467
0.00784537
0.00785665
0.00787047
0.00789841
0.00791823
0.00795231
0.00797876
0.00802673
0.00805995
0.00812722
0.00817372
0.00826089
0.00831011
0.00846177
0.00837766
0.00884011
0.00907637
0.00904874
0.0090159
0.00897877
0.00894017
0.00889934
0.00885719
0.00881179
0.00876419
0.00871305
0.00866024
0.00860505
0.00854992
0.00849416
0.00844028
0.00838715
0.00833665
0.00828726
0.00824032
0.00819409
0.00815022
0.00810739
0.00806783
0.00803035
0.00799701
0.00796612
0.0079391
0.00791378
0.0078911
0.00786888
0.00784803
0.00782673
0.00780609
0.00778473
0.00776396
0.00774263
0.00772222
0.00770155
0.0076822
0.0076628
0.00764508
0.00762731
0.00761148
0.00759549
0.00758156
0.00756728
0.00755515
0.00754243
0.00753191
0.00752052
0.00751142
0.00750115
0.00749326
0.00748392
0.00747703
0.00746849
0.00746239
0.00745456
0.00744906
0.00744194
0.00743689
0.0074304
0.00742566
0.00741964
0.00741515
0.00740953
0.00740519
0.00739975
0.0073956
0.00739025
0.00738634
0.00738107
0.00737755
0.00737234
0.00736932
0.00736412
0.00736159
0.00735616
0.00735361
0.00734846
0.0073454
0.00734118
0.00733877
0.00733563
0.0073321
0.00733105
0.00732765
0.00732753
0.00732515
0.0073251
0.00732408
0.00732431
0.00732307
0.00732446
0.0073276
0.00732319
0.0073063
0.00733263
0.00732044
0.00733568
0.00836758
0.008352
0.00833084
0.00830418
0.00827487
0.00824273
0.00820975
0.00817503
0.00814044
0.00810494
0.00807041
0.00803553
0.00800206
0.00796836
0.00793618
0.00790366
0.00787276
0.00784154
0.00781221
0.00778268
0.00775523
0.00772749
0.00770166
0.00767517
0.00765035
0.00762462
0.00760059
0.00757574
0.00755291
0.00752947
0.00750839
0.00748679
0.00746776
0.00744811
0.00743106
0.00741317
0.00739785
0.00738142
0.00736755
0.0073523
0.00733964
0.00732537
0.00731377
0.00730034
0.0072897
0.00727704
0.0072673
0.00725534
0.00724645
0.00723515
0.00722706
0.00721638
0.00720905
0.00719897
0.00719235
0.00718282
0.00717686
0.00716785
0.00716249
0.00715397
0.00714915
0.00714107
0.00713674
0.00712902
0.00712514
0.00711771
0.00711426
0.00710701
0.00710398
0.00709685
0.00709421
0.00708715
0.0070849
0.00707788
0.00707598
0.00706901
0.0070674
0.00706053
0.00705913
0.0070524
0.00705118
0.00704456
0.00704353
0.00703699
0.00703616
0.00702966
0.00702906
0.00702253
0.00702223
0.00701558
0.00701566
0.00700878
0.0070091
0.00700268
0.00700269
0.00699595
0.00699669
0.00699183
0.0069718
0.00699896
0.00784654
0.00784278
0.00783309
0.00781798
0.00780004
0.00777889
0.00775635
0.00773148
0.00770602
0.00767893
0.007652
0.00762405
0.00759686
0.00756911
0.00754258
0.00751582
0.00749072
0.00746571
0.00744272
0.00742
0.00739947
0.00737908
0.00736069
0.007342
0.00732494
0.00730707
0.00729057
0.00727297
0.00725679
0.00723948
0.00722387
0.00720726
0.00719269
0.00717721
0.00716404
0.00714993
0.00713827
0.0071255
0.00711524
0.00710363
0.0070945
0.00708377
0.00707551
0.0070654
0.00705777
0.00704806
0.00704088
0.00703146
0.00702464
0.00701542
0.0070089
0.00699987
0.00699365
0.00698481
0.0069789
0.00697029
0.00696472
0.00695636
0.00695118
0.00694308
0.00693831
0.00693046
0.00692612
0.0069185
0.0069146
0.00690717
0.0069037
0.00689641
0.00689336
0.00688618
0.00688355
0.00687642
0.0068742
0.00686708
0.00686528
0.00685814
0.00685675
0.00684959
0.00684856
0.00684144
0.00684065
0.00683367
0.00683299
0.00682626
0.00682557
0.00681912
0.00681839
0.00681222
0.00681131
0.00680569
0.0068042
0.00679942
0.00679702
0.00679354
0.00679081
0.0067859
0.00678383
0.00677913
0.00677692
0.00677175
0.00747848
0.0074791
0.0074757
0.00746772
0.00745741
0.00744413
0.00742973
0.00741312
0.00739609
0.00737741
0.00735887
0.00733911
0.0073199
0.00729975
0.00728045
0.00726036
0.00724133
0.00722159
0.00720305
0.00718386
0.00716599
0.00714754
0.0071306
0.00711313
0.00709737
0.0070811
0.0070667
0.00705171
0.00703866
0.00702487
0.00701301
0.00700018
0.00698931
0.00697725
0.00696718
0.00695572
0.00694634
0.00693539
0.00692664
0.00691617
0.00690801
0.00689801
0.00689041
0.00688089
0.00687383
0.00686476
0.0068582
0.00684959
0.00684347
0.0068353
0.00682959
0.00682182
0.00681648
0.00680907
0.00680407
0.00679701
0.00679232
0.00678555
0.00678116
0.00677466
0.00677054
0.00676428
0.00676043
0.00675438
0.00675079
0.00674491
0.00674158
0.00673584
0.00673278
0.0067271
0.00672435
0.00671867
0.00671625
0.00671052
0.00670843
0.00670264
0.00670081
0.00669503
0.00669334
0.00668771
0.00668596
0.00668065
0.00667865
0.00667381
0.00667144
0.0066671
0.00666442
0.00666037
0.00665769
0.00665356
0.00665123
0.00664668
0.00664493
0.00664028
0.00663809
0.00663175
0.0066323
0.00662385
0.00663882
0.00660164
0.00721426
0.00721731
0.00721732
0.0072132
0.007207
0.00719789
0.00718772
0.00717534
0.00716259
0.00714816
0.00713391
0.00711839
0.00710348
0.00708755
0.00707253
0.00705664
0.00704187
0.00702632
0.00701202
0.00699695
0.00698323
0.00696871
0.00695563
0.00694171
0.00692932
0.00691606
0.00690444
0.00689191
0.00688114
0.00686937
0.00685949
0.00684847
0.00683944
0.0068291
0.00682084
0.00681106
0.00680347
0.00679414
0.00678712
0.00677814
0.0067716
0.00676291
0.00675678
0.00674834
0.00674257
0.00673438
0.00672893
0.00672099
0.00671582
0.00670815
0.00670323
0.00669585
0.00669116
0.00668409
0.00667961
0.00667284
0.00666857
0.0066621
0.00665805
0.00665184
0.00664802
0.00664205
0.00663846
0.0066327
0.00662935
0.00662376
0.00662064
0.00661519
0.00661231
0.00660696
0.00660432
0.006599
0.00659663
0.0065913
0.00658921
0.00658384
0.00658197
0.00657664
0.00657484
0.00656971
0.00656777
0.00656303
0.00656077
0.00655651
0.0065539
0.00655009
0.00654717
0.00654376
0.00654053
0.00653752
0.00653395
0.00653134
0.0065275
0.0065254
0.00652075
0.00651986
0.00651204
0.00651004
0.00650707
0.00650451
0.0070219
0.00702556
0.00702723
0.00702537
0.00702183
0.00701563
0.0070086
0.00699947
0.00699005
0.00697893
0.00696798
0.00695564
0.00694384
0.00693085
0.00691868
0.00690547
0.00689332
0.00688021
0.00686834
0.00685557
0.00684418
0.00683189
0.00682109
0.00680937
0.00679922
0.00678809
0.00677859
0.00676801
0.00675914
0.00674908
0.0067408
0.00673121
0.00672349
0.00671433
0.00670713
0.00669835
0.00669165
0.00668323
0.006677
0.0066689
0.00666311
0.0066553
0.00664991
0.00664237
0.00663735
0.00663005
0.00662537
0.0066183
0.00661391
0.00660705
0.00660293
0.00659629
0.0065924
0.00658597
0.00658228
0.00657606
0.00657256
0.00656653
0.00656321
0.00655735
0.00655424
0.00654851
0.0065456
0.00653999
0.00653729
0.00653174
0.00652927
0.00652376
0.00652152
0.00651601
0.00651401
0.00650846
0.00650673
0.00650108
0.00649965
0.00649386
0.00649271
0.00648683
0.00648585
0.00648002
0.00647901
0.00647343
0.0064722
0.00646701
0.00646548
0.00646067
0.00645888
0.00645442
0.0064523
0.00644843
0.00644558
0.00644272
0.00643878
0.00643711
0.00643239
0.00643192
0.00642459
0.00642218
0.00641943
0.00641682
0.00687738
0.0068817
0.00688433
0.00688376
0.00688178
0.00687734
0.00687219
0.00686504
0.0068577
0.00684872
0.00683996
0.00682982
0.00682024
0.00680947
0.00679952
0.00678848
0.00677847
0.00676744
0.0067576
0.00674677
0.00673727
0.00672677
0.00671772
0.00670763
0.00669908
0.00668943
0.0066814
0.0066722
0.00666469
0.00665589
0.00664887
0.00664045
0.00663388
0.0066258
0.00661965
0.00661187
0.0066061
0.00659858
0.00659318
0.0065859
0.00658082
0.00657377
0.006569
0.00656216
0.00655766
0.00655102
0.00654677
0.00654032
0.00653632
0.00653003
0.00652627
0.00652013
0.0065166
0.0065106
0.00650729
0.00650141
0.00649831
0.00649255
0.00648965
0.006484
0.00648129
0.00647575
0.00647321
0.00646776
0.0064654
0.00646001
0.00645786
0.00645248
0.00645055
0.00644513
0.00644345
0.00643795
0.00643652
0.00643094
0.00642972
0.0064241
0.00642303
0.00641743
0.00641642
0.0064109
0.0064099
0.00640448
0.00640346
0.00639818
0.0063971
0.00639195
0.00639088
0.00638565
0.00638494
0.00637918
0.0063793
0.00637266
0.00637362
0.0063667
0.00636712
0.00635984
0.00636343
0.00635507
0.00635246
0.00634753
0.00676727
0.00677189
0.00677502
0.00677527
0.00677437
0.00677121
0.0067675
0.0067619
0.00675617
0.00674884
0.00674177
0.00673331
0.00672541
0.00671629
0.00670797
0.00669854
0.00669011
0.00668062
0.00667229
0.00666293
0.00665485
0.00664572
0.00663798
0.00662915
0.0066218
0.0066133
0.00660636
0.0065982
0.00659168
0.00658384
0.00657772
0.00657019
0.00656445
0.0065572
0.00655182
0.00654481
0.00653976
0.00653296
0.00652823
0.00652161
0.00651716
0.00651071
0.00650651
0.0065002
0.00649625
0.00649007
0.00648634
0.00648028
0.00647675
0.0064708
0.00646748
0.00646163
0.00645849
0.00645274
0.00644978
0.00644412
0.00644134
0.00643577
0.00643316
0.00642767
0.00642521
0.0064198
0.0064175
0.00641216
0.00641001
0.00640473
0.00640273
0.00639749
0.00639563
0.00639043
0.00638871
0.00638353
0.00638195
0.00637678
0.00637533
0.00637017
0.00636882
0.00636368
0.00636242
0.0063573
0.00635611
0.00635104
0.00634987
0.00634488
0.0063437
0.00633882
0.00633759
0.00633281
0.00633157
0.0063269
0.00632562
0.00632102
0.00631953
0.00631546
0.00631387
0.00630933
0.00630644
0.00630611
0.00628767
0.00631342
0.0066848
0.00668938
0.00669272
0.0066934
0.00669317
0.00669079
0.00668802
0.00668341
0.00667878
0.00667258
0.00666668
0.00665942
0.00665275
0.00664484
0.00663775
0.00662952
0.00662228
0.00661395
0.00660675
0.00659848
0.00659145
0.00658334
0.00657658
0.00656868
0.00656223
0.00655459
0.00654847
0.00654109
0.00653531
0.00652819
0.00652273
0.00651586
0.00651071
0.00650406
0.00649921
0.00649275
0.00648818
0.00648188
0.00647758
0.00647142
0.00646737
0.00646133
0.0064575
0.00645157
0.00644796
0.00644212
0.00643871
0.00643296
0.00642974
0.00642406
0.00642102
0.00641542
0.00641254
0.00640702
0.00640431
0.00639886
0.00639629
0.00639091
0.00638849
0.00638318
0.0063809
0.00637565
0.00637351
0.00636832
0.00636632
0.00636117
0.0063593
0.0063542
0.00635245
0.00634739
0.00634575
0.00634072
0.0063392
0.00633419
0.00633277
0.00632777
0.00632645
0.00632147
0.00632022
0.00631526
0.00631408
0.00630916
0.00630799
0.00630316
0.00630196
0.00629724
0.00629599
0.00629139
0.00629007
0.00628564
0.00628422
0.00627991
0.00627823
0.00627442
0.00627279
0.00626845
0.0062655
0.00626531
0.0062474
0.00627225
0.00662188
0.00662622
0.00662956
0.00663045
0.00663064
0.0066288
0.00662669
0.00662281
0.006619
0.00661363
0.00660862
0.00660223
0.00659646
0.00658942
0.00658321
0.00657582
0.00656942
0.00656188
0.00655549
0.00654796
0.0065417
0.00653429
0.00652823
0.00652099
0.00651519
0.00650816
0.00650264
0.00649583
0.00649059
0.006484
0.00647904
0.00647264
0.00646796
0.00646174
0.00645731
0.00645124
0.00644706
0.00644112
0.00643717
0.00643134
0.0064276
0.00642186
0.00641833
0.00641266
0.00640933
0.00640372
0.00640058
0.00639502
0.00639205
0.00638656
0.00638375
0.00637832
0.00637566
0.00637029
0.00636777
0.00636246
0.00636008
0.00635482
0.00635258
0.00634737
0.00634527
0.00634011
0.00633813
0.00633302
0.00633116
0.00632609
0.00632435
0.00631931
0.00631769
0.00631268
0.00631117
0.00630617
0.00630477
0.00629978
0.00629849
0.00629351
0.0062923
0.00628734
0.0062862
0.00628127
0.00628015
0.0062753
0.00627416
0.00626942
0.00626823
0.00626362
0.00626235
0.00625789
0.00625652
0.00625221
0.00625076
0.00624655
0.00624522
0.00624092
0.00623923
0.00623515
0.00623402
0.00622698
0.00624128
0.00620701
0.00657384
0.00657792
0.00658116
0.0065821
0.00658249
0.00658093
0.0065792
0.00657575
0.00657242
0.00656756
0.0065631
0.00655726
0.00655207
0.0065456
0.00653998
0.00653316
0.00652736
0.00652038
0.00651455
0.00650756
0.00650184
0.00649493
0.00648938
0.00648261
0.00647729
0.00647069
0.00646563
0.0064592
0.0064544
0.00644815
0.0064436
0.00643752
0.00643322
0.00642729
0.00642322
0.00641741
0.00641356
0.00640787
0.00640422
0.00639861
0.00639517
0.00638962
0.00638637
0.00638087
0.0063778
0.00637235
0.00636945
0.00636402
0.0063613
0.0063559
0.00635334
0.00634798
0.00634556
0.00634023
0.00633795
0.00633267
0.00633051
0.00632527
0.00632324
0.00631805
0.00631614
0.00631098
0.0063092
0.00630406
0.00630241
0.00629729
0.00629576
0.00629066
0.00628925
0.00628416
0.00628286
0.00627777
0.00627659
0.0062715
0.00627042
0.00626532
0.00626435
0.00625924
0.00625834
0.00625326
0.00625238
0.00624738
0.00624646
0.00624159
0.00624059
0.00623588
0.00623477
0.00623025
0.00622898
0.00622468
0.00622323
0.00621913
0.00621772
0.0062136
0.00621177
0.00620781
0.00620671
0.00619983
0.00621402
0.00617975
0.00653466
0.0065385
0.0065416
0.00654254
0.00654303
0.00654167
0.00654019
0.00653705
0.00653407
0.0065296
0.00652554
0.00652014
0.00651538
0.00650938
0.00650422
0.00649787
0.00649251
0.006486
0.00648062
0.00647408
0.00646879
0.00646231
0.00645719
0.00645082
0.0064459
0.00643967
0.00643499
0.00642891
0.00642447
0.00641852
0.00641433
0.0064085
0.00640453
0.00639881
0.00639507
0.00638943
0.00638589
0.00638033
0.00637698
0.00637147
0.0063683
0.00636283
0.00635983
0.00635439
0.00635157
0.00634615
0.00634349
0.00633808
0.00633558
0.00633018
0.00632784
0.00632246
0.00632026
0.0063149
0.00631284
0.0063075
0.00630557
0.00630025
0.00629846
0.00629315
0.0062915
0.00628619
0.00628468
0.00627936
0.00627801
0.00627266
0.00627147
0.00626608
0.00626506
0.00625963
0.00625875
0.00625328
0.00625255
0.00624703
0.00624646
0.00624086
0.00624046
0.00623476
0.00623454
0.00622876
0.00622867
0.00622287
0.00622283
0.00621707
0.00621703
0.00621136
0.00621126
0.00620577
0.00620545
0.0062004
0.00619948
0.00619526
0.00619355
0.00618999
0.00618788
0.00618441
0.00618334
0.00617641
0.0061909
0.00615646
0.00650253
0.00650613
0.00650909
0.00651005
0.00651062
0.00650946
0.00650818
0.00650535
0.00650266
0.00649856
0.00649486
0.00648988
0.0064855
0.00647995
0.00647517
0.00646927
0.00646429
0.00645822
0.0064532
0.00644707
0.00644211
0.00643601
0.00643118
0.00642515
0.0064205
0.00641457
0.00641012
0.00640428
0.00640004
0.00639429
0.00639027
0.00638459
0.00638078
0.00637516
0.00637157
0.00636599
0.0063626
0.00635705
0.00635384
0.00634832
0.00634529
0.00633979
0.00633693
0.00633144
0.00632874
0.00632328
0.00632072
0.00631527
0.00631286
0.00630743
0.00630515
0.00629975
0.0062976
0.00629223
0.00629021
0.00628486
0.00628297
0.00627764
0.00627589
0.00627057
0.00626895
0.00626364
0.00626216
0.00625685
0.00625552
0.00625018
0.00624902
0.00624363
0.00624264
0.00623721
0.00623638
0.0062309
0.00623021
0.00622471
0.00622413
0.00621864
0.00621813
0.00621265
0.00621221
0.00620674
0.00620639
0.00620087
0.00620068
0.00619504
0.00619504
0.0061893
0.00618945
0.00618362
0.00618394
0.00617796
0.00617852
0.00617235
0.00617315
0.00616686
0.00616713
0.00616235
0.00616379
0.0061567
0.00615491
0.00614941
0.00647917
0.00648248
0.00648521
0.00648609
0.00648662
0.00648554
0.00648435
0.00648169
0.00647915
0.0064753
0.00647177
0.00646705
0.00646283
0.00645752
0.00645288
0.00644719
0.0064423
0.00643639
0.00643141
0.00642541
0.00642045
0.00641442
0.00640953
0.00640354
0.00639877
0.00639283
0.00638823
0.00638236
0.00637794
0.00637215
0.00636794
0.00636222
0.00635824
0.00635257
0.00634882
0.0063432
0.00633968
0.00633409
0.0063308
0.00632524
0.00632217
0.00631665
0.00631375
0.00630824
0.00630552
0.00630004
0.00629748
0.00629204
0.00628963
0.00628425
0.00628199
0.00627666
0.00627453
0.00626926
0.00626726
0.00626204
0.00626017
0.00625498
0.00625325
0.00624809
0.00624649
0.00624134
0.0062399
0.00623473
0.00623345
0.00622825
0.00622715
0.0062219
0.00622096
0.00621566
0.00621489
0.00620954
0.00620892
0.00620352
0.00620304
0.00619759
0.00619726
0.00619175
0.00619157
0.00618599
0.00618595
0.00618031
0.00618038
0.00617473
0.00617487
0.00616924