/*--------------------------------*- C++ -*----------------------------------*\
  =========                 |
  \\      /  F ield         | OpenFOAM: The Open Source CFD Toolbox
   \\    /   O peration     | Website:  https://openfoam.org
    \\  /    A nd           | Version:  8
     \\/     M anipulation  |
\*---------------------------------------------------------------------------*/
FoamFile
{
    version     2.0;
    format      ascii;
    class       surfaceScalarField;
    location    "2.0000073";
    object      phi;
}
// * * * * * * * * * * * * * * * * * * * * * * * * * * * * * * * * * * * * * //

dimensions      [1 0 -1 0 0 0 0];

internalField   nonuniform List<scalar> 
13330
(
0.185569
-0.074363
-0.111219
0.41641
-0.636428
0.405571
0.622012
-0.874149
0.668544
0.804355
-1.01161
0.829262
0.967128
-1.09687
0.934089
1.11327
-1.14936
1.00321
1.2459
-1.18147
1.04882
1.36815
-1.20085
1.07858
1.48341
-1.21241
1.09715
-1.21993
1.1072
1.59613
0.244537
-0.318897
0.457565
-0.849442
0.644492
-1.06107
0.809672
-1.1768
0.954591
-1.2418
1.08285
-1.27763
1.19807
-1.29669
1.30317
-1.30595
1.40045
-1.30969
-1.31068
1.49119
0.246896
-0.565781
0.459337
-1.06187
0.633088
-1.23482
0.781884
-1.3256
0.909694
-1.36961
1.02129
-1.38924
1.12056
-1.39596
1.21059
-1.39599
1.29367
-1.39278
-1.3882
1.37119
0.238404
-0.804177
0.439961
-1.26342
0.598387
-1.39324
0.730666
-1.45788
0.84204
-1.48099
0.938069
-1.48527
1.02311
-1.48101
1.10046
-1.47334
1.17235
-1.46468
-1.45595
1.24009
0.223904
-1.02807
0.407375
-1.44688
0.548188
-1.53405
0.663731
-1.57342
0.759108
-1.57637
0.840885
-1.56706
0.913515
-1.55365
0.980035
-1.53986
1.04235
-1.527
-1.51506
1.10146
0.205012
-1.23308
0.366458
-1.60832
0.488394
-1.65599
0.587021
-1.67205
0.667104
-1.65646
0.735879
-1.63584
0.797322
-1.61509
0.853988
-1.59654
0.907372
-1.58039
-1.56581
0.958115
0.1831
-1.41618
0.320536
-1.74575
0.423244
-1.75869
0.50495
-1.75376
0.570548
-1.72206
0.627205
-1.6925
0.678116
-1.66601
0.725288
-1.64371
0.769813
-1.62492
-1.60799
0.811988
0.15929
-1.57548
0.272222
-1.85868
0.355919
-1.84239
0.420729
-1.81857
0.472536
-1.77387
0.517553
-1.73752
0.558104
-1.70656
0.595656
-1.68127
0.631004
-1.66026
-1.6412
0.664219
0.134498
-1.70998
0.22302
-1.94721
0.288167
-1.90754
0.336421
-1.86683
0.375024
-1.81248
0.408505
-1.771
0.438481
-1.73654
0.466036
-1.70882
0.491771
-1.686
-1.66502
0.515593
0.10952
-1.81951
0.174203
-2.0119
0.221155
-1.9545
0.253301
-1.89898
0.279057
-1.83823
0.300829
-1.79278
0.319911
-1.75562
0.33703
-1.72594
0.352703
-1.70166
0.366739
-1.67905
-0.0958295
0.0958174
-0.173228
0.0773926
-0.23855
0.0653187
-0.294176
0.0556212
-0.339405
0.0452245
-0.372533
0.0331223
-0.391661
0.0191182
-0.395617
0.00394971
-0.384984
-0.0106377
-0.0217936
-0.363191
-0.0818871
0.177678
-0.150344
0.145836
-0.20642
0.121384
-0.251536
0.100727
-0.285132
0.078806
-0.305105
0.0530749
-0.30837
0.0223599
-0.293319
-0.0111183
-0.261996
-0.0419688
-0.0650967
-0.218689
-0.0627686
0.240423
-0.11353
0.196586
-0.151718
0.159563
-0.176431
0.125428
-0.185956
0.0883175
-0.177208
0.0443019
-0.145025
-0.00984858
-0.0928757
-0.0632859
-0.0260792
-0.108768
-0.141984
0.0508105
-0.0404302
0.28083
-0.0694097
0.225548
-0.0831992
0.173343
-0.0774738
0.11969
-0.046547
0.0573739
0.0148251
-0.0170985
0.0986207
-0.0936703
0.192881
-0.157561
0.294145
-0.210041
-0.24813
0.400298
-0.0190417
0.299849
-0.0237237
0.230222
-0.00507876
0.154686
0.0474631
0.0671344
0.139452
-0.034633
0.256757
-0.134427
0.38258
-0.219516
0.513739
-0.288738
0.647824
-0.344123
-0.384764
0.784456
-0.00129665
0.30115
0.02143
0.207485
0.0857641
0.0903457
0.201523
-0.0486368
0.348801
-0.181925
0.506067
-0.291714
0.666736
-0.380204
0.828245
-0.450254
0.987953
-0.503842
-0.542436
1.14563
0.0105499
0.290578
0.0679989
0.150032
0.198828
-0.0404899
0.371966
-0.221782
0.554788
-0.364759
0.738299
-0.475243
0.917351
-0.559271
1.08939
-0.622306
1.25434
-0.668787
-0.70193
1.41383
0.0154518
0.275114
0.139926
0.0255409
0.334558
-0.235134
0.538019
-0.425252
0.735887
-0.562638
0.923155
-0.662527
1.09902
-0.73515
1.26449
-0.787783
1.42132
-0.825624
-0.851912
1.5713
0.0503065
0.224794
0.248158
-0.17233
0.465046
-0.452033
0.67222
-0.632437
0.86456
-0.754988
1.04207
-0.840049
1.20632
-0.899415
1.35923
-0.940704
1.50272
-0.969112
-0.988037
1.63884
0.11357
0.346805
0.563311
0.760131
0.939227
1.10238
1.25178
1.38966
1.5177
1.63687
-0.291807
-0.0713812
-0.22385
-0.0679565
-0.161441
-0.062409
-0.103918
-0.0575223
-0.0500976
-0.0538193
0.00121312
-0.0513079
0.0499083
-0.0486914
0.0958718
-0.0459586
0.139754
-0.0438767
0.181938
-0.0421768
0.222658
-0.0407127
0.262076
-0.0394086
0.300293
-0.0382079
0.337374
-0.0370718
0.373363
-0.0359791
0.40829
-0.0349167
0.442181
-0.0338798
0.475053
-0.0328622
0.506919
-0.0318563
0.537785
-0.0308557
0.567651
-0.0298576
0.596523
-0.0288631
0.624406
-0.027876
0.651314
-0.0269012
0.677261
-0.0259416
0.702266
-0.0250005
0.726351
-0.0240807
0.749538
-0.0231846
0.771856
-0.0223154
0.793331
-0.0214748
0.813995
-0.0206632
0.833875
-0.0198807
0.853002
-0.0191275
0.871404
-0.0184039
0.889112
-0.0177093
0.906152
-0.0170424
0.922552
-0.0164032
0.938342
-0.0157926
0.953545
-0.0152058
0.968186
-0.0146444
0.982289
-0.0141064
0.995877
-0.0135915
1.00897
-0.0130998
1.0216
-0.0126264
1.03377
-0.0121766
1.04551
-0.0117457
1.05684
-0.0113304
1.06777
-0.0109337
1.07832
-0.0105542
1.08851
-0.0101898
1.09835
-0.00984249
1.10786
-0.00951292
1.11705
-0.00919695
1.12595
-0.00889332
1.13455
-0.00860129
1.14286
-0.00832024
1.15091
-0.00804963
1.1587
-0.00778897
1.16624
-0.00753785
1.17353
-0.00729584
1.18059
-0.00706258
1.18743
-0.00683773
1.19405
-0.00662099
1.20046
-0.00641212
1.20667
-0.00621083
1.21269
-0.0060169
1.21852
-0.00583006
1.22417
-0.00565007
1.22964
-0.00547674
1.23495
-0.00530979
1.2401
-0.00514897
1.24509
-0.00499409
1.24994
-0.00484491
1.25464
-0.00470119
1.2592
-0.00456275
1.26363
-0.00442937
1.26793
-0.0043009
1.27211
-0.00417712
1.27616
-0.00405783
1.28011
-0.00394293
1.28394
-0.00383218
1.28766
-0.0037255
1.29129
-0.0036227
1.29481
-0.00352357
1.29824
-0.00342819
1.30157
-0.00333613
1.30482
-0.00324728
1.30798
-0.00316162
1.31106
-0.00307882
1.31406
-0.00299853
1.31698
-0.00292031
1.31982
-0.00284432
1.32259
-0.00276784
1.32528
-0.00269164
1.3279
-0.00261428
1.33043
-0.00253362
1.33288
-0.00244872
1.33523
-0.00235672
1.33749
-0.00225426
-0.00203943
-0.151856
-0.138207
-0.0922873
-0.127526
-0.0375049
-0.117193
0.0139234
-0.10895
0.0622076
-0.1021
0.107522
-0.0966158
0.150821
-0.0919809
0.192653
-0.0877785
0.233017
-0.0842253
0.272048
-0.0811914
0.309857
-0.0785016
0.346549
-0.0760796
0.382203
-0.0738396
0.416858
-0.0717021
0.450548
-0.0696445
0.483285
-0.0676289
0.515063
-0.0656333
0.54589
-0.0636649
0.575781
-0.0617237
0.604743
-0.0597951
0.632775
-0.0578686
0.659878
-0.0559466
0.686055
-0.0540364
0.711317
-0.0521485
0.735678
-0.0502901
0.759156
-0.0484675
0.781768
-0.0466855
0.803538
-0.0449484
0.82449
-0.0432635
0.844651
-0.041634
0.864049
-0.0400609
0.882711
-0.0385439
0.900662
-0.0370819
0.917932
-0.0356772
0.934547
-0.0343288
0.950532
-0.0330338
0.965916
-0.0317926
0.98072
-0.0306037
0.994971
-0.0294639
1.00869
-0.0283738
1.02191
-0.0273291
1.03464
-0.0263283
1.0469
-0.0253707
1.05872
-0.0244532
1.07011
-0.0235759
1.08109
-0.0227355
1.09169
-0.0219322
1.10191
-0.0211628
1.11178
-0.0204257
1.1213
-0.01972
1.1305
-0.0190454
1.13938
-0.0184018
1.14797
-0.0177858
1.15627
-0.0171949
1.16429
-0.0166273
1.17205
-0.0160817
1.17955
-0.0155569
1.18681
-0.0150518
1.19384
-0.0145655
1.20064
-0.0140971
1.20722
-0.0136459
1.21359
-0.0132112
1.21976
-0.0127925
1.22573
-0.012389
1.23152
-0.0120004
1.23713
-0.0116261
1.24256
-0.0112655
1.24783
-0.0109182
1.25293
-0.0105837
1.25788
-0.0102616
1.26269
-0.00995135
1.26734
-0.00965256
1.27186
-0.00936475
1.27625
-0.00908753
1.2805
-0.0088205
1.28464
-0.00856332
1.28865
-0.00831565
1.29255
-0.00807712
1.29634
-0.00784739
1.30002
-0.00762613
1.3036
-0.007413
1.30708
-0.00720772
1.31047
-0.00700997
1.31376
-0.00681947
1.31697
-0.006636
1.32009
-0.00645913
1.32313
-0.00628855
1.32609
-0.00612402
1.32898
-0.0059649
1.33179
-0.00581075
1.33453
-0.00566063
1.3372
-0.005514
1.3398
-0.00536847
1.34233
-0.00522327
1.34479
-0.00507566
1.34718
-0.00492258
1.34949
-0.00475901
1.35171
-0.00457819
1.35382
-0.00435863
-0.00408692
0.0982593
-0.185649
0.13966
-0.168928
0.180033
-0.15757
0.219646
-0.148564
0.258241
-0.140694
0.295664
-0.134035
0.33209
-0.1284
0.367758
-0.123436
0.402615
-0.11907
0.436624
-0.115186
0.469765
-0.111627
0.502064
-0.10836
0.533536
-0.105292
0.564165
-0.102311
0.593959
-0.099417
0.622914
-0.0965623
0.651014
-0.0937121
0.67826
-0.0908906
0.704656
-0.0880993
0.730195
-0.0853147
0.754872
-0.0825276
0.778692
-0.0797506
0.801668
-0.076998
0.823817
-0.0742839
0.845156
-0.0716179
0.865706
-0.0690094
0.88549
-0.0664617
0.904528
-0.0639817
0.922847
-0.0615787
0.94047
-0.0592553
0.957422
-0.0570123
0.973727
-0.0548492
0.989409
-0.052766
1.00449
-0.0507636
1.019
-0.0488414
1.03296
-0.0469979
1.04639
-0.0452322
1.05932
-0.0435391
1.07177
-0.0419163
1.08375
-0.0403636
1.09529
-0.0388765
1.10641
-0.0374513
1.11712
-0.0360864
1.12744
-0.0347794
1.13738
-0.0335287
1.14697
-0.0323326
1.15622
-0.0311873
1.16515
-0.0300915
1.17376
-0.0290426
1.18207
-0.0280384
1.1901
-0.027078
1.19785
-0.0261597
1.20534
-0.0252804
1.21258
-0.0244373
1.21958
-0.0236278
1.22635
-0.0228499
1.23289
-0.022102
1.23922
-0.0213826
1.24534
-0.0206903
1.25126
-0.0200241
1.257
-0.0193827
1.26255
-0.018765
1.26793
-0.0181702
1.27313
-0.0175974
1.27818
-0.0170458
1.28306
-0.0165147
1.2878
-0.0160033
1.29239
-0.015511
1.29684
-0.0150369
1.30116
-0.0145803
1.30535
-0.0141407
1.30941
-0.0137173
1.31336
-0.0133096
1.31718
-0.012917
1.3209
-0.012539
1.32451
-0.0121751
1.32802
-0.0118249
1.33143
-0.0114879
1.33474
-0.0111635
1.33797
-0.0108513
1.34111
-0.0105508
1.34416
-0.0102616
1.34713
-0.00998318
1.35003
-0.00971521
1.35285
-0.00945724
1.3556
-0.00920881
1.35828
-0.00896936
1.36089
-0.00873852
1.36344
-0.0085154
1.36593
-0.00829942
1.36836
-0.00808926
1.37073
-0.00788408
1.37304
-0.00768126
1.37529
-0.00747911
1.37749
-0.00727351
1.37963
-0.0070603
1.3817
-0.00683152
1.3837
-0.00657827
1.38561
-0.00627192
-0.0059193
0.419373
-0.204723
0.439699
-0.189258
0.463473
-0.181351
0.489584
-0.174678
0.516796
-0.167906
0.544442
-0.161677
0.572252
-0.156204
0.600077
-0.151252
0.627707
-0.146689
0.65501
-0.142474
0.68188
-0.138482
0.708243
-0.134705
0.734047
-0.131077
0.759228
-0.127473
0.783749
-0.123919
0.807598
-0.120391
0.83076
-0.116854
0.853217
-0.113328
0.874936
-0.1098
0.895896
-0.106257
0.916101
-0.102716
0.935573
-0.0992074
0.954334
-0.0957463
0.972406
-0.0923439
0.989808
-0.0890096
1.00656
-0.0857542
1.02269
-0.0825797
1.0382
-0.0794958
1.05314
-0.0765087
1.0675
-0.0736184
1.08132
-0.0708291
1.09461
-0.0681405
1.1074
-0.065555
1.1197
-0.0630701
1.13154
-0.0606834
1.14293
-0.058394
1.15389
-0.0562
1.16444
-0.0540987
1.17461
-0.0520858
1.18439
-0.0501563
1.19382
-0.0483067
1.20289
-0.0465341
1.21163
-0.044836
1.22006
-0.0432096
1.22818
-0.0416526
1.236
-0.0401636
1.24355
-0.0387385
1.25082
-0.0373757
1.25785
-0.0360715
1.26463
-0.034822
1.27117
-0.0336269
1.27749
-0.0324831
1.28359
-0.0313874
1.28949
-0.0303367
1.29519
-0.0293279
1.30069
-0.0283588
1.30602
-0.0274271
1.31116
-0.0265316
1.31614
-0.0256703
1.32095
-0.0248419
1.32561
-0.0240449
1.33013
-0.0232776
1.33449
-0.0225392
1.33872
-0.0218286
1.34282
-0.0211449
1.34679
-0.0204868
1.35064
-0.0198533
1.35437
-0.0192437
1.35799
-0.0186568
1.3615
-0.0180919
1.3649
-0.0175482
1.36821
-0.0170251
1.37142
-0.0165217
1.37454
-0.0160372
1.37757
-0.0155712
1.38052
-0.0151231
1.38338
-0.0146922
1.38617
-0.014278
1.38889
-0.0138799
1.39153
-0.0134971
1.39411
-0.013129
1.39662
-0.0127751
1.39907
-0.0124349
1.40147
-0.0121077
1.4038
-0.0117931
1.40608
-0.0114906
1.40831
-0.0111992
1.41049
-0.0109186
1.41262
-0.0106477
1.41471
-0.0103858
1.41675
-0.0101313
1.41875
-0.00988319
1.4207
-0.00963859
1.42262
-0.00939523
1.42449
-0.00914784
1.42633
-0.0088913
1.42811
-0.00861552
1.42984
-0.00831064
1.43151
-0.00794177
-0.00752401
0.782329
-0.202591
0.785744
-0.192676
0.794134
-0.189745
0.806038
-0.186584
0.820405
-0.182272
0.836491
-0.177759
0.853762
-0.173468
0.87184
-0.16932
0.89043
-0.165268
0.909323
-0.161355
0.928318
-0.157462
0.947218
-0.15359
0.965912
-0.149755
0.984301
-0.145846
1.0023
-0.141903
1.01988
-0.137952
1.03697
-0.133933
1.05352
-0.129856
1.06949
-0.125755
1.08491
-0.121659
1.0998
-0.117597
1.11419
-0.113589
1.1281
-0.109639
1.14152
-0.105755
1.15446
-0.101947
1.16695
-0.0982331
1.17899
-0.0946137
1.1906
-0.0910973
1.20178
-0.0876911
1.21255
-0.0843917
1.22293
-0.0812075
1.23293
-0.078138
1.24256
-0.0751847
1.25183
-0.0723459
1.26076
-0.0696181
1.26936
-0.0670003
1.27765
-0.0644911
1.28563
-0.0620864
1.29332
-0.0597792
1.30072
-0.0575654
1.30785
-0.0554435
1.31472
-0.0534086
1.32134
-0.0514572
1.32771
-0.0495881
1.33385
-0.0477989
1.33977
-0.0460885
1.34548
-0.0444531
1.35099
-0.0428859
1.3563
-0.0413854
1.36142
-0.0399506
1.36637
-0.0385777
1.37114
-0.0372625
1.37575
-0.0360019
1.38021
-0.0347926
1.38451
-0.0336316
1.38866
-0.0325162
1.39268
-0.0314444
1.39656
-0.0304146
1.40031
-0.0294247
1.40394
-0.0284731
1.40745
-0.027558
1.41085
-0.0266776
1.41414
-0.0258309
1.41732
-0.025017
1.42041
-0.0242344
1.42341
-0.0234815
1.42631
-0.0227574
1.42912
-0.0220611
1.43186
-0.0213913
1.43451
-0.0207473
1.43709
-0.020128
1.4396
-0.0195329
1.44203
-0.0189608
1.44441
-0.0184109
1.44672
-0.0178825
1.44897
-0.0173751
1.45116
-0.016888
1.4533
-0.0164205
1.45539
-0.0159717
1.45744
-0.0155408
1.45943
-0.0151271
1.46139
-0.0147299
1.4633
-0.0143485
1.46518
-0.0139824
1.46701
-0.0136308
1.46881
-0.0132932
1.47058
-0.0129685
1.47232
-0.0126565
1.47403
-0.0123557
1.47571
-0.0120653
1.47736
-0.0117838
1.47899
-0.01151
1.48059
-0.0112409
1.48217
-0.0109739
1.48372
-0.0107029
1.48525
-0.0104222
1.48676
-0.0101203
1.48823
-0.00978678
1.48967
-0.00938219
-0.00892392
1.13535
-0.192313
1.1313
-0.188631
1.13098
-0.18943
1.13314
-0.188748
1.1375
-0.186627
1.14369
-0.183943
1.15129
-0.18106
1.15999
-0.178013
1.1695
-0.174772
1.17957
-0.17141
1.19
-0.167885
1.20063
-0.164205
1.21132
-0.160426
1.22199
-0.156508
1.23257
-0.152469
1.24297
-0.148335
1.25315
-0.144096
1.26311
-0.1398
1.27286
-0.135496
1.28241
-0.131197
1.29175
-0.126917
1.30085
-0.122678
1.3097
-0.118483
1.31831
-0.114347
1.32666
-0.110291
1.33476
-0.106329
1.34262
-0.102468
1.35024
-0.098708
1.35761
-0.0950594
1.36474
-0.0915242
1.37165
-0.088109
1.37832
-0.0848157
1.38478
-0.0816414
1.39101
-0.0785842
1.39703
-0.0756428
1.40285
-0.0728175
1.40846
-0.0701052
1.41386
-0.0674986
1.41907
-0.0649933
1.42409
-0.0625869
1.42892
-0.0602809
1.43358
-0.0580729
1.43807
-0.0559569
1.44241
-0.0539326
1.4466
-0.0519919
1.45064
-0.0501346
1.45454
-0.0483574
1.4583
-0.046653
1.46193
-0.0450224
1.46544
-0.0434614
1.46882
-0.0419683
1.47209
-0.0405376
1.47525
-0.0391657
1.47831
-0.0378494
1.48126
-0.0365854
1.48411
-0.0353709
1.48687
-0.034204
1.48953
-0.0330835
1.49211
-0.0320065
1.49461
-0.0309712
1.49702
-0.0299767
1.49937
-0.0290206
1.50163
-0.028102
1.50383
-0.0272194
1.50597
-0.0263714
1.50804
-0.0255566
1.51006
-0.024774
1.51202
-0.0240227
1.51393
-0.023301
1.51579
-0.0226078
1.5176
-0.0219423
1.51937
-0.0213039
1.5211
-0.0206911
1.52279
-0.0201028
1.52444
-0.0195381
1.52606
-0.0189968
1.52765
-0.0184783
1.52921
-0.0179816
1.53074
-0.0175055
1.53225
-0.0170491
1.53374
-0.0166116
1.5352
-0.0161921
1.53664
-0.01579
1.53806
-0.0154048
1.53946
-0.0150356
1.54085
-0.0146818
1.54222
-0.0143423
1.54358
-0.0140169
1.54493
-0.013704
1.54627
-0.0134028
1.5476
-0.0131117
1.54892
-0.0128295
1.55023
-0.0125531
1.55153
-0.0122802
1.55283
-0.0120043
1.55413
-0.0117196
1.55542
-0.0114135
1.55671
-0.0110759
1.558
-0.0106648
-0.0101958
1.39936
-0.177842
1.39138
-0.180662
1.3869
-0.184951
1.38463
-0.186477
1.3843
-0.186301
1.38571
-0.185344
1.38849
-0.183839
1.39231
-0.181828
1.39689
-0.179343
1.40198
-0.176487
1.40741
-0.173316
1.4131
-0.16988
1.41892
-0.166239
1.42483
-0.162401
1.43076
-0.158389
1.43668
-0.154244
1.44259
-0.149996
1.44848
-0.145676
1.45431
-0.141314
1.46005
-0.136926
1.46567
-0.13253
1.47116
-0.128161
1.47653
-0.123835
1.48176
-0.119568
1.48685
-0.115375
1.4918
-0.111272
1.4966
-0.10726
1.50124
-0.103348
1.50573
-0.0995463
1.51007
-0.0958603
1.51426
-0.0922981
1.5183
-0.0888585
1.5222
-0.0855406
1.52596
-0.0823423
1.52958
-0.0792634
1.53306
-0.0763023
1.5364
-0.0734554
1.53962
-0.0707201
1.54272
-0.0680969
1.54571
-0.0655842
1.54861
-0.0631775
1.5514
-0.0608738
1.55411
-0.0586673
1.55672
-0.056554
1.55925
-0.0545255
1.56169
-0.0525821
1.56405
-0.0507216
1.56633
-0.0489372
1.56853
-0.0472272
1.57066
-0.0455891
1.57271
-0.0440214
1.57469
-0.0425194
1.5766
-0.0410792
1.57844
-0.0396972
1.58022
-0.0383709
1.58195
-0.0370972
1.58361
-0.0358739
1.58523
-0.0346999
1.58679
-0.0335714
1.5883
-0.0324869
1.58977
-0.0314474
1.5912
-0.0304505
1.59259
-0.0294941
1.59395
-0.0285771
1.59527
-0.027698
1.59657
-0.026855
1.59784
-0.0260466
1.59909
-0.0252716
1.60031
-0.0245281
1.60152
-0.0238154
1.60271
-0.0231329
1.60388
-0.0224793
1.60504
-0.0218529
1.60619
-0.0212519
1.60733
-0.0206757
1.60845
-0.0201246
1.60957
-0.0195981
1.61069
-0.0190948
1.61179
-0.0186132
1.61289
-0.0181522
1.61399
-0.0177109
1.61509
-0.0172886
1.61618
-0.0168848
1.61728
-0.0164991
1.61837
-0.0161305
1.61947
-0.0157786
1.62057
-0.0154418
1.62167
-0.0151204
1.62278
-0.0148129
1.62389
-0.0145182
1.62502
-0.0142345
1.62615
-0.0139612
1.62729
-0.0136939
1.62844
-0.0134312
1.6296
-0.0131679
1.63078
-0.0128993
1.63198
-0.0126128
1.6332
-0.0122974
1.63445
-0.0119124
-0.0114674
1.55254
-0.159083
1.53975
-0.167879
1.53081
-0.176021
1.52457
-0.180236
1.52058
-0.182311
1.51853
-0.183303
1.51812
-0.183421
1.51902
-0.182732
1.52101
-0.18133
1.52387
-0.17934
1.52743
-0.176865
1.53154
-0.173985
1.53608
-0.17077
1.54096
-0.167269
1.5461
-0.163519
1.55142
-0.159561
1.55687
-0.155434
1.56239
-0.15118
1.56793
-0.146839
1.57345
-0.142437
1.57893
-0.137999
1.58435
-0.133563
1.58968
-0.129152
1.5949
-0.124776
1.59999
-0.120454
1.60493
-0.116202
1.6097
-0.112026
1.6143
-0.10794
1.61871
-0.103954
1.62293
-0.100075
1.62695
-0.0963129
1.63076
-0.0926686
1.63436
-0.0891436
1.63776
-0.0857388
1.64095
-0.0824569
1.64394
-0.079299
1.64675
-0.0762648
1.64938
-0.0733535
1.65184
-0.0705636
1.65414
-0.067893
1.6563
-0.0653357
1.65831
-0.0628887
1.66018
-0.0605476
1.66193
-0.0583075
1.66356
-0.0561626
1.66509
-0.0541137
1.66652
-0.052158
1.66786
-0.0502877
1.66913
-0.0484997
1.67033
-0.0467917
1.67146
-0.045161
1.67254
-0.0436029
1.67357
-0.0421126
1.67456
-0.0406869
1.67551
-0.039323
1.67642
-0.0380173
1.67731
-0.0367673
1.67818
-0.0355719
1.67903
-0.0344264
1.67987
-0.0333279
1.6807
-0.0322784
1.68152
-0.0312736
1.68234
-0.0303104
1.68315
-0.0293886
1.68395
-0.0285067
1.68476
-0.027663
1.68556
-0.0268549
1.68637
-0.0260812
1.68718
-0.0253401
1.688
-0.0246305
1.68881
-0.0239523
1.68964
-0.0233044
1.69047
-0.0226841
1.6913
-0.022089
1.69215
-0.0215187
1.693
-0.0209754
1.69385
-0.0204586
1.69472
-0.0199658
1.69561
-0.0194951
1.6965
-0.0190457
1.6974
-0.0186168
1.69832
-0.0182083
1.69926
-0.0178193
1.70021
-0.0174493
1.70117
-0.0170973
1.70216
-0.0167632
1.70316
-0.0164457
1.70418
-0.0161444
1.70523
-0.0158573
1.70629
-0.0155842
1.70738
-0.015323
1.70849
-0.0150734
1.70963
-0.0148314
1.71079
-0.0145963
1.71199
-0.014363
1.71322
-0.0141292
1.71449
-0.0138839
1.71581
-0.0136162
1.71719
-0.0132914
-0.0129123
1.61773
-0.137971
1.60173
-0.151884
1.58947
-0.163765
1.58035
-0.171114
1.57381
-0.175771
1.56936
-0.178855
1.56664
-0.180708
1.5654
-0.181484
1.5654
-0.181334
1.56647
-0.180407
1.56844
-0.178835
1.57118
-0.176721
1.57456
-0.17415
1.57849
-0.171192
1.58288
-0.167902
1.58766
-0.164336
1.59277
-0.160541
1.59816
-0.156562
1.60377
-0.152444
1.60956
-0.148218
1.61549
-0.143917
1.62151
-0.139578
1.6276
-0.135226
1.63371
-0.13088
1.63982
-0.126558
1.64591
-0.12228
1.65195
-0.118058
1.65792
-0.113906
1.66381
-0.109837
1.66959
-0.105855
1.67525
-0.101971
1.68078
-0.0981902
1.68615
-0.0945173
1.69137
-0.0909566
1.69642
-0.087509
1.7013
-0.0841767
1.70599
-0.0809605
1.7105
-0.0778598
1.7148
-0.0748727
1.71891
-0.0719981
1.7228
-0.069232
1.72648
-0.0665732
1.72995
-0.0640197
1.7332
-0.0615681
1.73625
-0.0592169
1.7391
-0.0569661
1.74175
-0.0548128
1.74421
-0.0527524
1.74649
-0.0507827
1.7486
-0.048902
1.75054
-0.0471076
1.75233
-0.0453968
1.75398
-0.0437655
1.7555
-0.0422096
1.7569
-0.0407272
1.7582
-0.0393162
1.7594
-0.0379726
1.76052
-0.0366924
1.76157
-0.0354757
1.76256
-0.03432
1.7635
-0.0332202
1.76439
-0.0321711
1.76525
-0.0311701
1.76608
-0.0302189
1.76689
-0.0293167
1.76768
-0.0284591
1.76847
-0.0276424
1.76925
-0.0268661
1.77004
-0.0261276
1.77083
-0.0254253
1.77163
-0.0247576
1.77245
-0.0241207
1.77328
-0.0235134
1.77412
-0.0229334
1.77498
-0.0223784
1.77586
-0.0218538
1.77676
-0.021359
1.77768
-0.0208901
1.77863
-0.0204443
1.7796
-0.0200208
1.7806
-0.0196188
1.78163
-0.0192377
1.78269
-0.0188767
1.78377
-0.0185352
1.78489
-0.0182123
1.78603
-0.0179076
1.78721
-0.0176199
1.78841
-0.0173488
1.78965
-0.0170923
1.79091
-0.0168507
1.79221
-0.0166219
1.79354
-0.016406
1.79491
-0.0161999
1.79632
-0.0160034
1.79777
-0.0158129
1.79927
-0.0156277
1.80082
-0.015441
1.80245
-0.0152445
1.80417
-0.0150146
-0.0147528
1.6145
-0.115609
1.59626
-0.13365
1.58094
-0.148457
1.56907
-0.159253
1.56022
-0.166929
1.5538
-0.172433
1.54936
-0.176279
1.54662
-0.17874
1.5453
-0.180022
1.54521
-0.180317
1.54616
-0.179787
1.54801
-0.178569
1.55063
-0.176769
1.55392
-0.174478
1.55779
-0.171771
1.56218
-0.168714
1.56701
-0.165365
1.57223
-0.161776
1.57779
-0.157991
1.58363
-0.154053
1.58973
-0.15
1.59603
-0.145865
1.60249
-0.141679
1.60909
-0.137467
1.61579
-0.13325
1.62257
-0.129049
1.62941
-0.124882
1.63627
-0.120763
1.64315
-0.116707
1.65002
-0.112722
1.65687
-0.108818
1.66369
-0.105004
1.67046
-0.101285
1.67717
-0.0976662
1.68381
-0.0941507
1.69038
-0.0907411
1.69685
-0.0874391
1.70324
-0.0842454
1.70952
-0.0811582
1.71569
-0.078177
1.72176
-0.0752991
1.7277
-0.0725233
1.73353
-0.0698496
1.73923
-0.0672744
1.7448
-0.0647958
1.75024
-0.0624126
1.75555
-0.0601229
1.76072
-0.0579238
1.76574
-0.0558124
1.77062
-0.0537875
1.77536
-0.0518471
1.77994
-0.0499881
1.78438
-0.0482073
1.78867
-0.046502
1.79281
-0.04487
1.7968
-0.0433093
1.80064
-0.0418173
1.80433
-0.0403894
1.80788
-0.0390244
1.81128
-0.0377223
1.81453
-0.0364774
1.81765
-0.0352891
1.82063
-0.034158
1.82349
-0.0330792
1.82622
-0.0320503
1.82883
-0.0310702
1.83133
-0.0301378
1.83371
-0.029253
1.836
-0.0284147
1.83819
-0.0276214
1.8403
-0.0268671
1.84233
-0.0261524
1.84429
-0.0254776
1.8462
-0.0248412
1.84806
-0.0242415
1.84988
-0.0236748
1.85166
-0.0231399
1.85341
-0.0226374
1.85513
-0.0221663
1.85683
-0.0217254
1.85852
-0.0213124
1.86021
-0.0209265
1.8619
-0.020566
1.8636
-0.0202302
1.8653
-0.0199175
1.86702
-0.0196272
1.86876
-0.0193572
1.87051
-0.0191074
1.8723
-0.0188755
1.87411
-0.0186613
1.87595
-0.0184627
1.87782
-0.0182801
1.87973
-0.0181105
1.88168
-0.0179547
1.88368
-0.0178105
1.88573
-0.0176791
1.88785
-0.017559
1.89006
-0.0174501
1.89239
-0.0173516
-0.0172744
1.99605
-0.0979598
-2.0137
1.97684
-0.114449
1.95829
-0.129904
1.94099
-0.141954
1.92517
-0.151114
1.91085
-0.158108
1.89794
-0.163372
1.88636
-0.167163
1.87602
-0.169683
1.86682
-0.171116
1.85865
-0.171627
1.85144
-0.171355
1.84508
-0.170414
1.83951
-0.168904
1.83464
-0.166906
1.83043
-0.164493
1.82679
-0.161731
1.82369
-0.158675
1.82108
-0.155375
1.81891
-0.151878
1.81714
-0.148225
1.81573
-0.144451
1.81465
-0.140591
1.81386
-0.136672
1.81334
-0.13272
1.81305
-0.128755
1.81297
-0.124798
1.81308
-0.120866
1.81335
-0.116973
1.81376
-0.113131
1.8143
-0.109353
1.81495
-0.105646
1.81568
-0.102018
1.81649
-0.0984769
1.81737
-0.0950256
1.81829
-0.0916681
1.81926
-0.088407
1.82026
-0.0852433
1.82128
-0.0821775
1.82231
-0.0792096
1.82334
-0.0763391
1.82438
-0.0735647
1.82542
-0.0708859
1.82644
-0.0683017
1.82745
-0.065809
1.82844
-0.0634064
1.82941
-0.0610935
1.83035
-0.0588682
1.83126
-0.056729
1.83215
-0.0546733
1.83299
-0.0526976
1.8338
-0.0508001
1.83457
-0.0489793
1.8353
-0.0472328
1.83599
-0.0455582
1.83663
-0.0439525
1.83722
-0.0424132
1.83777
-0.0409372
1.83826
-0.039522
1.8387
-0.0381665
1.83909
-0.0368674
1.83942
-0.0356237
1.8397
-0.034434
1.83991
-0.0332952
1.84007
-0.0322048
1.84016
-0.0311618
1.84018
-0.0301658
1.84015
-0.0292153
1.84004
-0.0283078
1.83986
-0.0274416
1.8396
-0.026615
1.83928
-0.0258274
1.83888
-0.0250777
1.8384
-0.0243675
1.83786
-0.0236959
1.83724
-0.0230571
1.83654
-0.0224476
1.83577
-0.021869
1.83493
-0.0213225
1.83401
-0.0208082
1.83302
-0.0203235
1.83196
-0.0198677
1.83084
-0.0194402
1.82965
-0.019041
1.8284
-0.0186684
1.82709
-0.018322
1.82574
-0.0180003
1.82433
-0.0177036
1.82289
-0.0174298
1.8214
-0.0171796
1.81989
-0.0169506
1.81835
-0.016744
1.8168
-0.0165572
1.81524
-0.016392
1.81367
-0.0162469
1.81212
-0.0161255
1.81059
-0.0160307
1.80911
-0.0159709
1.80773
-0.015973
-0.016138
2.01484
-0.0803111
-2.03249
1.99762
-0.0972321
1.98073
-0.113016
1.96491
-0.126143
1.95035
-0.13656
1.93702
-0.144779
1.92485
-0.151206
1.91378
-0.156097
1.90375
-0.159653
1.89469
-0.162056
1.88653
-0.163469
1.87921
-0.164033
1.87266
-0.163866
1.86682
-0.163069
1.86165
-0.16173
1.85708
-0.159926
1.85308
-0.157724
1.84959
-0.155184
1.84658
-0.152359
1.84401
-0.149297
1.84183
-0.146042
1.84002
-0.142633
1.83854
-0.139103
1.83736
-0.135485
1.83646
-0.131806
1.83579
-0.128087
1.83535
-0.124351
1.83511
-0.120618
1.83505
-0.116903
1.83514
-0.113219
1.83537
-0.109578
1.83572
-0.105992
1.83617
-0.10247
1.83672
-0.0990191
1.83734
-0.0956458
1.83802
-0.0923541
1.83876
-0.0891474
1.83954
-0.0860285
1.84036
-0.0829985
1.84121
-0.0800578
1.84207
-0.0772076
1.84295
-0.074448
1.84384
-0.0717789
1.84474
-0.0691991
1.84563
-0.0667073
1.84652
-0.0643018
1.84741
-0.0619823
1.84828
-0.0597473
1.84915
-0.0575951
1.84999
-0.0555235
1.85082
-0.0535305
1.85163
-0.0516152
1.85242
-0.0497748
1.8532
-0.0480078
1.85394
-0.0463107
1.85467
-0.0446818
1.85537
-0.0431188
1.85605
-0.0416188
1.85671
-0.04018
1.85734
-0.0388
1.85795
-0.0374767
1.85853
-0.0362083
1.85909
-0.0349933
1.85962
-0.0338291
1.86013
-0.0327139
1.86061
-0.0316464
1.86107
-0.0306253
1.8615
-0.0296487
1.8619
-0.0287149
1.86228
-0.0278223
1.86264
-0.0269697
1.86296
-0.0261559
1.86327
-0.0253798
1.86354
-0.0246418
1.86378
-0.0239403
1.864
-0.0232715
1.86418
-0.0226333
1.86434
-0.0220262
1.86446
-0.0214496
1.86456
-0.0209026
1.86462
-0.020385
1.86465
-0.0198965
1.86464
-0.0194347
1.8646
-0.0189992
1.86452
-0.0185888
1.8644
-0.0182037
1.86424
-0.0178427
1.86404
-0.0175057
1.8638
-0.0171914
1.86352
-0.0168999
1.8632
-0.0166301
1.86284
-0.0163827
1.86244
-0.0161566
1.862
-0.0159536
1.86153
-0.0157741
1.86102
-0.0156221
1.8605
-0.0155025
1.85995
-0.0154267
1.85941
-0.0154275
-0.0156034
2.02593
-0.0631836
-2.04306
2.00982
-0.0811211
1.99418
-0.0973761
1.97934
-0.111304
1.96551
-0.122727
1.95271
-0.131977
1.94092
-0.139413
1.9301
-0.145284
1.92023
-0.149785
1.91126
-0.153088
1.90314
-0.155349
1.89581
-0.156708
1.88923
-0.157282
1.88333
-0.157175
1.87807
-0.156475
1.87341
-0.155263
1.86929
-0.153607
1.86568
-0.151571
1.86253
-0.14921
1.85981
-0.146576
1.85748
-0.143711
1.85551
-0.140659
1.85387
-0.137458
1.85253
-0.134137
1.85145
-0.130727
1.85062
-0.127255
1.85002
-0.123741
1.84961
-0.120206
1.84938
-0.116668
1.8493
-0.113142
1.84937
-0.109642
1.84956
-0.10618
1.84986
-0.102766
1.85025
-0.0994097
1.85072
-0.0961174
1.85126
-0.0928951
1.85186
-0.0897474
1.85251
-0.0866776
1.8532
-0.0836881
1.85392
-0.0807804
1.85467
-0.0779562
1.85543
-0.0752165
1.85621
-0.0725616
1.857
-0.069991
1.8578
-0.0675041
1.85859
-0.0651003
1.85939
-0.0627789
1.86018
-0.0605391
1.86096
-0.0583787
1.86173
-0.0562967
1.86249
-0.0542929
1.86324
-0.0523645
1.86397
-0.0505102
1.86469
-0.048727
1.86539
-0.0470128
1.86607
-0.0453663
1.86673
-0.0437843
1.86738
-0.0422655
1.868
-0.0408084
1.86861
-0.0394103
1.8692
-0.0380688
1.86978
-0.0367822
1.87033
-0.0355488
1.87087
-0.0343665
1.87139
-0.0332336
1.87189
-0.0321486
1.87237
-0.0311102
1.87284
-0.0301166
1.87329
-0.0291662
1.87372
-0.0282576
1.87414
-0.0273894
1.87455
-0.0265604
1.87494
-0.0257697
1.87531
-0.0250167
1.87567
-0.0242997
1.87601
-0.0236164
1.87634
-0.0229651
1.87666
-0.0223453
1.87697
-0.0217564
1.87726
-0.0211975
1.87755
-0.0206681
1.87782
-0.0201675
1.87808
-0.0196942
1.87832
-0.0192476
1.87856
-0.0188267
1.87879
-0.0184311
1.879
-0.0180601
1.87921
-0.017713
1.87941
-0.0173894
1.8796
-0.0170889
1.87978
-0.0168111
1.87995
-0.0165561
1.88012
-0.0163238
1.88028
-0.0161154
1.88044
-0.0159325
1.8806
-0.0157784
1.88075
-0.0156581
1.88091
-0.0155812
1.88104
-0.0155669
-0.0156427
2.03089
-0.0469266
-2.04714
2.01569
-0.0659202
2.0011
-0.0827853
1.9872
-0.0974046
1.97416
-0.10969
1.96204
-0.119859
1.95084
-0.128207
1.94052
-0.134969
1.93106
-0.140331
1.92243
-0.144458
1.91458
-0.147502
1.90747
-0.149596
1.90104
-0.15086
1.89526
-0.151397
1.89008
-0.151297
1.88546
-0.150642
1.88136
-0.149504
1.87774
-0.147947
1.87456
-0.14603
1.87179
-0.143804
1.8694
-0.141316
1.86736
-0.13861
1.86563
-0.135724
1.86419
-0.132693
1.86301
-0.129547
1.86208
-0.126313
1.86136
-0.123015
1.86083
-0.119675
1.86048
-0.116312
1.86028
-0.112944
1.86023
-0.109585
1.8603
-0.106247
1.86048
-0.102942
1.86075
-0.0996805
1.8611
-0.0964712
1.86153
-0.0933206
1.86201
-0.0902342
1.86255
-0.0872161
1.86313
-0.0842698
1.86375
-0.0813984
1.86439
-0.0786032
1.86506
-0.0758859
1.86574
-0.0732481
1.86644
-0.0706897
1.86714
-0.0682103
1.86785
-0.0658112
1.86856
-0.0634915
1.86927
-0.0612493
1.86997
-0.0590847
1.87067
-0.0569967
1.87135
-0.0549843
1.87203
-0.0530459
1.8727
-0.0511792
1.87335
-0.0493825
1.87399
-0.0476542
1.87461
-0.0459923
1.87522
-0.0443955
1.87582
-0.0428617
1.87639
-0.0413888
1.87696
-0.0399744
1.8775
-0.0386167
1.87803
-0.0373141
1.87855
-0.0360647
1.87904
-0.0348666
1.87953
-0.0337183
1.88
-0.0326182
1.88045
-0.0315649
1.88089
-0.0305567
1.88131
-0.0295922
1.88173
-0.02867
1.88212
-0.0277886
1.88251
-0.026947
1.88288
-0.026144