/*--------------------------------*- C++ -*----------------------------------*\
  =========                 |
  \\      /  F ield         | OpenFOAM: The Open Source CFD Toolbox
   \\    /   O peration     | Website:  https://openfoam.org
    \\  /    A nd           | Version:  8
     \\/     M anipulation  |
\*---------------------------------------------------------------------------*/
FoamFile
{
    version     2.0;
    format      ascii;
    class       volScalarField;
    location    "2.0000073";
    object      rho;
}
// * * * * * * * * * * * * * * * * * * * * * * * * * * * * * * * * * * * * * //

dimensions      [1 -3 0 0 0 0 0];

internalField   nonuniform List<scalar> 
6800
(
0.590143
0.590224
0.590286
0.590385
0.590564
0.590788
0.590941
0.591054
0.591137
0.591192
0.590041
0.590188
0.590246
0.590454
0.59071
0.59086
0.590978
0.591081
0.591168
0.591243
0.589622
0.590031
0.590216
0.590514
0.590706
0.59086
0.590987
0.591089
0.591171
0.591237
0.589069
0.589862
0.590181
0.59045
0.590674
0.590828
0.590945
0.59104
0.59113
0.591209
0.588517
0.589681
0.589992
0.590342
0.590571
0.590735
0.590869
0.590986
0.591089
0.591173
0.587918
0.58942
0.589796
0.590192
0.590449
0.590637
0.59079
0.590914
0.591028
0.591124
0.587379
0.589183
0.589551
0.590021
0.5903
0.590516
0.590692
0.590843
0.590978
0.591093
0.586891
0.58892
0.58933
0.589863
0.590174
0.590421
0.590621
0.590792
0.59094
0.591066
0.58652
0.588718
0.589136
0.589732
0.590057
0.590339
0.590564
0.590756
0.590917
0.591056
0.586258
0.588547
0.589012
0.589637
0.589992
0.590299
0.59054
0.590747
0.590917
0.591065
0.590595
0.590496
0.590439
0.590432
0.590447
0.590476
0.59052
0.590576
0.59064
0.590711
0.590558
0.590471
0.590417
0.590405
0.590415
0.59044
0.590483
0.590542
0.590615
0.590695
0.590491
0.590419
0.590374
0.590359
0.590362
0.590381
0.590425
0.59049
0.590574
0.590666
0.590406
0.590356
0.590326
0.590313
0.590315
0.590332
0.590379
0.590457
0.590552
0.590656
0.590317
0.590304
0.590291
0.590287
0.590298
0.590331
0.590389
0.590467
0.590565
0.590664
0.590258
0.59027
0.590283
0.590301
0.590338
0.590384
0.590441
0.590508
0.590598
0.590692
0.590207
0.590256
0.590307
0.590362
0.590405
0.590441
0.590487
0.590553
0.59064
0.590753
0.590169
0.590263
0.590346
0.590422
0.590447
0.590478
0.59053
0.590615
0.590726
0.590909
0.590124
0.590246
0.590385
0.590427
0.590458
0.590506
0.590608
0.590763
0.590934
0.591113
0.590115
0.590233
0.590349
0.590401
0.590468
0.590601
0.590797
0.590966
0.591106
0.59121
0.590797
0.590892
0.590976
0.591052
0.591121
0.591185
0.591245
0.591301
0.591353
0.591402
0.591447
0.59149
0.59153
0.591567
0.591601
0.591632
0.59166
0.591685
0.591708
0.591728
0.591745
0.591759
0.591769
0.591777
0.591783
0.591785
0.591786
0.591784
0.59178
0.591775
0.591768
0.59176
0.591751
0.591744
0.591737
0.59173
0.591723
0.591717
0.591716
0.591709
0.591707
0.5917
0.591697
0.591693
0.591686
0.591685
0.59168
0.591675
0.591671
0.591666
0.59166
0.591658
0.591659
0.591662
0.591666
0.591672
0.591678
0.591685
0.591692
0.591699
0.591706
0.591713
0.59172
0.591727
0.591733
0.591739
0.591744
0.591749
0.591753
0.591757
0.59176
0.591763
0.591765
0.591767
0.591769
0.591769
0.59177
0.59177
0.591771
0.59177
0.59177
0.59177
0.59177
0.591769
0.591769
0.591768
0.591768
0.591768
0.591767
0.591768
0.591767
0.591768
0.591768
0.591767
0.591767
0.591766
0.591765
0.591764
0.591765
0.591766
0.590778
0.590874
0.590956
0.591031
0.5911
0.591165
0.591225
0.591281
0.591334
0.591383
0.59143
0.591474
0.591515
0.591553
0.591588
0.59162
0.591649
0.591675
0.591698
0.591718
0.591734
0.591748
0.591758
0.591766
0.591771
0.591774
0.591774
0.591772
0.591768
0.591764
0.591758
0.591751
0.591743
0.591737
0.591731
0.591725
0.591718
0.591716
0.591712
0.591706
0.591703
0.591699
0.591694
0.591691
0.591686
0.591682
0.591676
0.591671
0.591668
0.591663
0.591659
0.591658
0.59166
0.591663
0.591668
0.591673
0.59168
0.591686
0.591693
0.5917
0.591707
0.591714
0.591721
0.591727
0.591733
0.591738
0.591743
0.591748
0.591752
0.591756
0.591759
0.591761
0.591763
0.591765
0.591766
0.591767
0.591768
0.591768
0.591768
0.591768
0.591768
0.591767
0.591767
0.591767
0.591766
0.591766
0.591765
0.591765
0.591765
0.591765
0.591765
0.591764
0.591764
0.591764
0.591764
0.591763
0.591763
0.591763
0.591763
0.591764
0.590749
0.590843
0.590922
0.590994
0.591061
0.591124
0.591184
0.59124
0.591293
0.591344
0.591392
0.591438
0.591482
0.591522
0.591559
0.591593
0.591624
0.591651
0.591674
0.591694
0.591711
0.591725
0.591735
0.591745
0.59175
0.591754
0.591755
0.591755
0.591754
0.591751
0.591747
0.591742
0.591735
0.591734
0.591728
0.591723
0.591717
0.591716
0.591712
0.591708
0.591702
0.591701
0.591694
0.591692
0.591685
0.591683
0.591679
0.591672
0.59167
0.591664
0.591661
0.591661
0.591664
0.591667
0.591672
0.591678
0.591683
0.59169
0.591696
0.591703
0.591709
0.591716
0.591722
0.591727
0.591733
0.591738
0.591742
0.591747
0.59175
0.591754
0.591756
0.591759
0.59176
0.591762
0.591763
0.591764
0.591764
0.591765
0.591765
0.591765
0.591764
0.591764
0.591764
0.591763
0.591763
0.591763
0.591762
0.591762
0.591762
0.591761
0.591761
0.591761
0.591761
0.591761
0.591761
0.59176
0.59176
0.591761
0.591761
0.591762
0.590717
0.590804
0.590882
0.590955
0.59102
0.59108
0.591138
0.591196
0.591251
0.591304
0.591354
0.591402
0.591447
0.591489
0.591528
0.591563
0.591594
0.591622
0.591646
0.591667
0.591685
0.5917
0.591712
0.591724
0.591732
0.591738
0.591741
0.591743
0.591747
0.591747
0.591745
0.591741
0.591735
0.591735
0.591732
0.591729
0.591725
0.591719
0.591718
0.591714
0.59171
0.591707
0.591703
0.5917
0.591696
0.591692
0.591688
0.591681
0.591679
0.591673
0.591671
0.591671
0.591673
0.591676
0.591681
0.591686
0.591691
0.591696
0.591702
0.591708
0.591714
0.591719
0.591725
0.59173
0.591734
0.591739
0.591743
0.591747
0.59175
0.591753
0.591755
0.591757
0.591759
0.59176
0.591761
0.591762
0.591762
0.591762
0.591763
0.591762
0.591762
0.591762
0.591762
0.591761
0.591761
0.591761
0.59176
0.59176
0.59176
0.59176
0.59176
0.591759
0.591759
0.591759
0.591759
0.591759
0.591759
0.59176
0.59176
0.591761
0.590689
0.590768
0.590852
0.590928
0.590995
0.591052
0.591111
0.591171
0.591228
0.591283
0.591335
0.591384
0.59143
0.591472
0.591511
0.591547
0.591579
0.591607
0.591631
0.591653
0.591671
0.591687
0.5917
0.591712
0.591723
0.59173
0.591739
0.591744
0.591747
0.591749
0.591751
0.59175
0.591749
0.591748
0.591746
0.591741
0.591738
0.591734
0.591733
0.591728
0.591724
0.591722
0.591721
0.591718
0.591715
0.591711
0.591708
0.591704
0.591699
0.591693
0.591691
0.591691
0.591692
0.591695
0.591699
0.591702
0.591707
0.591711
0.591716
0.59172
0.591725
0.591729
0.591734
0.591738
0.591742
0.591745
0.591749
0.591752
0.591754
0.591757
0.591759
0.59176
0.591762
0.591763
0.591763
0.591764
0.591764
0.591764
0.591764
0.591764
0.591764
0.591764
0.591763
0.591763
0.591763
0.591763
0.591762
0.591762
0.591762
0.591762
0.591762
0.591762
0.591762
0.591761
0.591761
0.591761
0.591761
0.591762
0.591762
0.591763
0.590685
0.59076
0.590854
0.590937
0.591007
0.591073
0.591133
0.591193
0.59125
0.591305
0.591357
0.591407
0.591453
0.591495
0.591534
0.591569
0.5916
0.591628
0.591652
0.591674
0.591692
0.591708
0.591722
0.591735
0.591745
0.591754
0.591762
0.59177
0.591772
0.591774
0.591777
0.591777
0.59178
0.59178
0.591779
0.591774
0.591774
0.591771
0.591768
0.591764
0.59176
0.591756
0.591753
0.59175
0.591749
0.591744
0.591743
0.591737
0.591735
0.59173
0.591726
0.591725
0.591725
0.591727
0.591728
0.591731
0.591734
0.591736
0.59174
0.591743
0.591746
0.591749
0.591752
0.591755
0.591758
0.591761
0.591763
0.591765
0.591767
0.591769
0.591771
0.591772
0.591773
0.591773
0.591774
0.591774
0.591774
0.591774
0.591774
0.591774
0.591773
0.591773
0.591773
0.591772
0.591772
0.591772
0.591771
0.591771
0.591771
0.591771
0.591771
0.591771
0.59177
0.59177
0.59177
0.59177
0.591769
0.591769
0.591769
0.59177
0.590734
0.590818
0.590933
0.591032
0.591111
0.591186
0.591257
0.591323
0.591383
0.591439
0.591489
0.591535
0.591575
0.591612
0.591646
0.591675
0.591702
0.591726
0.591747
0.591766
0.591782
0.591796
0.591808
0.591819
0.591828
0.591834
0.591842
0.591846
0.591848
0.591849
0.591851
0.591851
0.59185
0.591849
0.591845
0.591844
0.591842
0.591838
0.591832
0.591829
0.591826
0.591822
0.591817
0.591814
0.59181
0.591806
0.591803
0.591799
0.591795
0.59179
0.591786
0.591783
0.591782
0.591781
0.59178
0.59178
0.591781
0.591781
0.591783
0.591784
0.591785
0.591787
0.591788
0.59179
0.591791
0.591792
0.591793
0.591794
0.591795
0.591796
0.591796
0.591797
0.591797
0.591797
0.591797
0.591797
0.591797
0.591796
0.591796
0.591795
0.591795
0.591794
0.591794
0.591793
0.591792
0.591792
0.591791
0.591791
0.59179
0.59179
0.59179
0.59179
0.59179
0.59179
0.591789
0.591787
0.591786
0.591785
0.591785
0.591785
0.590888
0.590967
0.591085
0.59119
0.591276
0.591353
0.591424
0.591488
0.591548
0.591602
0.59165
0.591693
0.591731
0.591765
0.591797
0.591826
0.591853
0.591877
0.591897
0.591916
0.591932
0.591946
0.591957
0.591967
0.591975
0.591981
0.591985
0.591988
0.59199
0.59199
0.591989
0.591987
0.591984
0.591981
0.591976
0.591971
0.591966
0.591961
0.591955
0.591949
0.591942
0.591936
0.591929
0.591923
0.591916
0.59191
0.591904
0.591897
0.591891
0.591885
0.59188
0.591875
0.591871
0.591866
0.591862
0.591858
0.591856
0.591854
0.591852
0.591851
0.59185
0.59185
0.591849
0.591848
0.591847
0.591846
0.591845
0.591844
0.591844
0.591843
0.591843
0.591843
0.591842
0.591842
0.591841
0.59184
0.591839
0.591838
0.591836
0.591835
0.591834
0.591833
0.591832
0.591831
0.591829
0.591828
0.591826
0.591825
0.591824
0.591823
0.591822
0.591821
0.59182
0.591819
0.591818
0.591816
0.591815
0.591814
0.591813
0.591812
0.591093
0.591157
0.59126
0.591355
0.591436
0.591507
0.591571
0.591629
0.591682
0.59173
0.591773
0.591813
0.591849
0.591882
0.591913
0.591941
0.591966
0.591989
0.59201
0.592029
0.592047
0.592062
0.592075
0.592086
0.592096
0.592104
0.59211
0.592116
0.59212
0.592124
0.592127
0.592127
0.592127
0.592126
0.592124
0.592121
0.592118
0.592114
0.59211
0.592105
0.5921
0.592094
0.592088
0.592081
0.592074
0.592066
0.592058
0.59205
0.592042
0.592034
0.592026
0.592018
0.59201
0.592002
0.591994
0.591985
0.591979
0.591973
0.591963
0.591958
0.591956
0.591952
0.591948
0.591944
0.591939
0.591936
0.591931
0.591927
0.591923
0.59192
0.591919
0.591917
0.591915
0.591913
0.591911
0.591909
0.591907
0.591904
0.591902
0.591899
0.591897
0.591894
0.591891
0.591889
0.591886
0.591883
0.591881
0.591879
0.591876
0.591874
0.591872
0.591869
0.591867
0.591865
0.591863
0.591861
0.591859
0.591857
0.591856
0.591854
0.591209
0.591262
0.591345
0.591429
0.591505
0.591573
0.591635
0.591691
0.591743
0.59179
0.591833
0.591872
0.591908
0.591941
0.591972
0.592
0.592023
0.592046
0.592069
0.592086
0.592104
0.59212
0.592133
0.592145
0.592155
0.592164
0.592172
0.592179
0.592184
0.592189
0.592193
0.592195
0.592197
0.592199
0.592199
0.592199
0.592199
0.592198
0.592197
0.592195
0.592192
0.592189
0.592186
0.592182
0.592178
0.592174
0.592169
0.592165
0.59216
0.592155
0.59215
0.592146
0.59214
0.592135
0.592129
0.592123
0.592117
0.592111
0.592105
0.592098
0.592094
0.592086
0.59208
0.592078
0.592075
0.592071
0.592065
0.59206
0.592053
0.592048
0.592043
0.592034
0.592028
0.592019
0.592015
0.592016
0.592015
0.592012
0.592008
0.592003
0.591998
0.591993
0.591988
0.591983
0.591978
0.591974
0.591969
0.591965
0.59196
0.591956
0.591952
0.591948
0.591944
0.591941
0.591937
0.591934
0.59193
0.591927
0.591923
0.59192
0.591313
0.591374
0.591444
0.591515
0.591583
0.591645
0.591701
0.591752
0.591799
0.591842
0.591882
0.591918
0.591951
0.591981
0.592009
0.592035
0.592059
0.59208
0.5921
0.592118
0.592134
0.592148
0.592161
0.592171
0.592181
0.59219
0.592198
0.592205
0.592211
0.592217
0.592221
0.592225
0.592228
0.59223
0.592231
0.592231
0.592232
0.592231
0.592231
0.59223
0.592228
0.592227
0.592225
0.592222
0.592221
0.592218
0.592216
0.592213
0.592209
0.592207
0.592204
0.592201
0.592197
0.592194
0.592191
0.592188
0.592184
0.592181
0.592178
0.592176
0.592173
0.59217
0.592167
0.592164
0.592162
0.592158
0.592156
0.592154
0.592152
0.59215
0.592146
0.592143
0.592139
0.592133
0.592129
0.592128
0.592127
0.592124
0.592121
0.592117
0.592113
0.592108
0.592104
0.592099
0.592095
0.59209
0.592085
0.59208
0.592075
0.592069
0.592064
0.592059
0.592054
0.592048
0.592043
0.592038
0.592033
0.592027
0.592023
0.592016
0.591383
0.591449
0.591518
0.591585
0.591647
0.591705
0.591757
0.591804
0.591848
0.591888
0.591925
0.591958
0.591989
0.592017
0.592043
0.592066
0.592088
0.592108
0.592125
0.592142
0.592157
0.592169
0.592181
0.59219
0.592199
0.592206
0.592213
0.592219
0.592225
0.59223
0.592235
0.592238
0.592241
0.592243
0.592244
0.592244
0.592244
0.592244
0.592244
0.592243
0.592241
0.592239
0.592237
0.592235
0.592233
0.592231
0.592229
0.592227
0.592225
0.592223
0.592219
0.592217
0.592214
0.592212
0.592211
0.592208
0.592206
0.592203
0.592201
0.592199
0.592198
0.592196
0.592195
0.592194
0.592193
0.592191
0.59219
0.592189
0.592188
0.592186
0.592185
0.592183
0.592181
0.59218
0.592178
0.592177
0.592175
0.592173
0.592172
0.59217
0.592168
0.592166
0.592165
0.592164
0.592163
0.592161
0.592159
0.592156
0.592154
0.592151
0.592149
0.592146
0.592143
0.59214
0.592137
0.592133
0.59213
0.592126
0.592122
0.592117
0.591438
0.591499
0.591564
0.591625
0.591682
0.591735
0.591783
0.591828
0.59187
0.591908
0.591943
0.591975
0.592004
0.592031
0.592055
0.592077
0.592097
0.592116
0.592133
0.592148
0.592162
0.592173
0.592184
0.592194
0.592201
0.592209
0.592216
0.592223
0.592228
0.592233
0.592238
0.592242
0.592245
0.592247
0.592249
0.59225
0.59225
0.59225
0.592249
0.592248
0.592247
0.592246
0.592244
0.592243
0.592241
0.592239
0.592238
0.592236
0.592234
0.592231
0.592228
0.592226
0.592224
0.592222
0.59222
0.592219
0.592217
0.592214
0.592212
0.59221
0.592209
0.592207
0.592206
0.592205
0.592204
0.592203
0.592202
0.592201
0.5922
0.592199
0.592198
0.592197
0.592196
0.592195
0.592194
0.592192
0.592191
0.59219
0.592189
0.592188
0.592187
0.592186
0.592185
0.592184
0.592183
0.592182
0.592182
0.592181
0.59218
0.592178
0.592177
0.592176
0.592175
0.592174
0.592173
0.592171
0.59217
0.592168
0.592167
0.592165
0.591489
0.591545
0.591607
0.591665
0.591718
0.591767
0.591813
0.591856
0.591895
0.591931
0.591964
0.591994
0.592021
0.592046
0.592069
0.59209
0.592109
0.592126
0.592142
0.592156
0.592169
0.592181
0.592192
0.592201
0.592209
0.592217
0.592222
0.592228
0.592233
0.592237
0.592241
0.592245
0.592248
0.59225
0.592252
0.592252
0.592253
0.592252
0.592252
0.592251
0.59225
0.592249
0.592248
0.592246
0.592245
0.592242
0.592241
0.592238
0.592236
0.592234
0.592232
0.59223
0.592229
0.592226
0.592225
0.592222
0.59222
0.592218
0.592217
0.592215
0.592214
0.592213
0.592212
0.592211
0.59221
0.592209
0.592208
0.592207
0.592206
0.592205
0.592204
0.592203
0.592202
0.592201
0.5922
0.592199
0.592198
0.592197
0.592196
0.592195
0.592194
0.592194
0.592193
0.592192
0.592191
0.59219
0.59219
0.592189
0.592188
0.592188
0.592187
0.592186
0.592185
0.592185
0.592184
0.592183
0.592182
0.592181
0.592181
0.59218
0.591538
0.591589
0.591647
0.591701
0.59175
0.591795
0.591838
0.591878
0.591914
0.591948
0.591979
0.592008
0.592034
0.592058
0.59208
0.592099
0.592117
0.592134
0.592148
0.592162
0.592174
0.592185
0.592195
0.592203
0.592211
0.592219
0.592224
0.592229
0.592234
0.592238
0.592242
0.592244
0.592247
0.59225
0.592251
0.592253
0.592253
0.592253
0.592253
0.592252
0.592251
0.59225
0.592249
0.592248
0.592246
0.592245
0.592244
0.592241
0.592239
0.592237
0.592236
0.592234
0.592232
0.59223
0.592229
0.592228
0.592226
0.592224
0.592222
0.59222
0.592219
0.592217
0.592216
0.592215
0.592214
0.592213
0.592212
0.592211
0.59221
0.592209
0.592208
0.592207
0.592206
0.592205
0.592204
0.592203
0.592202
0.592201
0.592201
0.5922
0.592199
0.592198
0.592197
0.592196
0.592195
0.592195
0.592194
0.592193
0.592192
0.592192
0.592191
0.59219
0.59219
0.592189
0.592188
0.592187
0.592187
0.592186
0.592185
0.592184
0.591588
0.591633
0.591687
0.591738
0.591783
0.591824
0.591864
0.591901
0.591935
0.591967
0.591996
0.592023
0.592047
0.59207
0.59209
0.592108
0.592125
0.59214
0.592154
0.592166
0.592178
0.592188
0.592197
0.592206
0.592212
0.592219
0.592226
0.592231
0.592235
0.592239
0.592242
0.592245
0.592247
0.592249
0.592251
0.592252
0.592253
0.592252
0.592252
0.592252
0.592251
0.59225
0.592249
0.592248
0.592247
0.592245
0.592244
0.592242
0.59224
0.592238
0.592237
0.592235
0.592234
0.592232
0.59223
0.592228
0.592226
0.592225
0.592224
0.592222
0.592221
0.59222
0.592219
0.592218
0.592217
0.592216
0.592215
0.592214
0.592213
0.592212
0.592211
0.592211
0.59221
0.592209
0.592208
0.592207
0.592206
0.592206
0.592205
0.592204
0.592203
0.592202
0.592201
0.592201
0.5922
0.592199
0.592198
0.592198
0.592197
0.592196
0.592195
0.592195
0.592194
0.592193
0.592193
0.592192
0.592191
0.59219
0.59219
0.592189
0.591638
0.591678
0.591727
0.591773
0.591814
0.591852
0.591888
0.591922
0.591953
0.591983
0.59201
0.592035
0.592057
0.592078
0.592097
0.592115
0.592131
0.592145
0.592158
0.59217
0.59218
0.59219
0.592199
0.592207
0.592214
0.59222
0.592226
0.592229
0.592234
0.592239
0.592242
0.592244
0.592246
0.592248
0.59225
0.592251
0.592252
0.592252
0.592252
0.592251
0.592251
0.59225
0.592249
0.592248
0.592247
0.592246
0.592245
0.592243
0.592241
0.59224
0.592239
0.592238
0.592236
0.592234
0.592232
0.592231
0.592229
0.592228
0.592227
0.592225
0.592225
0.592223
0.592222
0.59222
0.592219
0.592218
0.592217
0.592216
0.592215
0.592214
0.592213
0.592212
0.592212
0.592211
0.59221
0.592209
0.592209
0.592208
0.592207
0.592206
0.592206
0.592205
0.592204
0.592203
0.592203
0.592202
0.592201
0.592201
0.5922
0.592199
0.592199
0.592198
0.592197
0.592197
0.592196
0.592195
0.592195
0.592194
0.592193
0.592193
0.591688
0.591723
0.591767
0.591809
0.591846
0.59188
0.591913
0.591944
0.591973
0.591999
0.592024
0.592047
0.592068
0.592088
0.592106
0.592122
0.592137
0.59215
0.592162
0.592173
0.592183
0.592192
0.5922
0.592208
0.592214
0.59222
0.592225
0.59223
0.592234
0.592237
0.592239
0.592242
0.592244
0.592246
0.592248
0.592249
0.59225
0.59225
0.59225
0.592249
0.592249
0.592248
0.592247
0.592246
0.592245
0.592244
0.592243
0.592242
0.59224
0.592239
0.592237
0.592236
0.592235
0.592233
0.592232
0.592231
0.592229
0.592228
0.592227
0.592225
0.592224
0.592223
0.592222
0.592221
0.59222
0.592219
0.592218
0.592217
0.592216
0.592215
0.592215
0.592214
0.592213
0.592213
0.592212
0.592211
0.592211
0.59221
0.592209
0.592209
0.592208
0.592207
0.592207
0.592206
0.592205
0.592205
0.592204
0.592204
0.592203
0.592202
0.592202
0.592201
0.5922
0.5922
0.592199
0.592199
0.592198
0.592197
0.592197
0.592196
0.591736
0.591766
0.591806
0.591843
0.591876
0.591907
0.591937
0.591965
0.591991
0.592015
0.592038
0.592059
0.592078
0.592096
0.592112
0.592127
0.592141
0.592153
0.592165
0.592175
0.592184
0.592193
0.592201
0.592208
0.592214
0.592219
0.592224
0.592228
0.592232
0.592235
0.592238
0.59224
0.592242
0.592244
0.592246
0.592247
0.592247
0.592248
0.592248
0.592248
0.592247
0.592247
0.592246
0.592245
0.592244
0.592243
0.592243
0.592241
0.592241
0.59224
0.592238
0.592236
0.592235
0.592233
0.592233
0.592231
0.592231
0.592229
0.592228
0.592226
0.592225
0.592224
0.592223
0.592222
0.592221
0.592221
0.59222
0.592218
0.592217
0.592216
0.592215
0.592215
0.592214
0.592213
0.592213
0.592212
0.592212
0.592211
0.59221
0.59221
0.592209
0.592209
0.592208
0.592208
0.592207
0.592207
0.592206
0.592206
0.592205
0.592205
0.592204
0.592204
0.592203
0.592203
0.592202
0.592201
0.592201
0.5922
0.5922
0.592199
0.591783
0.591809
0.591844
0.591877
0.591907
0.591934
0.591961
0.591986
0.59201
0.592032
0.592052
0.592071
0.592089
0.592105
0.59212
0.592134
0.592146
0.592158
0.592168
0.592178
0.592186
0.592194
0.592201
0.592208
0.592214
0.592219
0.592223
0.592227
0.592231
0.592233
0.592236
0.592238
0.592239
0.592241
0.592242
0.592244
0.592245
0.592245
0.592245
0.592245
0.592245
0.592244
0.592243
0.592243
0.592242
0.592241
0.59224
0.592239
0.592238
0.592237
0.592236
0.592235
0.592233
0.592232
0.592231
0.59223
0.59223
0.592229
0.592227
0.592226
0.592225
0.592224
0.592223
0.592222
0.592221
0.59222
0.592219
0.592218
0.592217
0.592216
0.592216
0.592215
0.592214
0.592214
0.592213
0.592213
0.592212
0.592212
0.592211
0.592211
0.59221
0.59221
0.592209
0.592209
0.592208
0.592208
0.592207
0.592207
0.592207
0.592206
0.592206
0.592205
0.592205
0.592204
0.592204
0.592203
0.592203
0.592202
0.592202
0.592201
0.591829
0.591851
0.591882
0.59191
0.591937
0.591961
0.591985
0.592007
0.592028
0.592047
0.592066
0.592083
0.592099
0.592113
0.592127
0.592139
0.592151
0.592161
0.592171
0.592179
0.592187
0.592194
0.592201
0.592207
0.592213
0.592217
0.592221
0.592224
0.592228
0.592231
0.592233
0.592235
0.592236
0.592238
0.59224
0.592241
0.592242
0.592242
0.592243
0.592243
0.592242
0.592242
0.592241
0.592241
0.59224
0.592239
0.592238
0.592238
0.592237
0.592236
0.592235
0.592234
0.592233
0.592232
0.592231
0.59223
0.592229
0.592228
0.592227
0.592226
0.592225
0.592224
0.592223
0.592222
0.592221
0.59222
0.592219
0.592218
0.592218
0.592217
0.592216
0.592215
0.592214
0.592214
0.592213
0.592213
0.592212
0.592212
0.592211
0.592211
0.592211
0.59221
0.59221
0.59221
0.592209
0.592209
0.592208
0.592208
0.592208
0.592207
0.592207
0.592206
0.592206
0.592205
0.592205
0.592205
0.592204
0.592204
0.592203
0.592203
0.591874
0.591893
0.591919
0.591944
0.591966
0.591988
0.592009
0.592028
0.592047
0.592064
0.592081
0.592096
0.59211
0.592123
0.592135
0.592146
0.592156
0.592165
0.592174
0.592182
0.592189
0.592196
0.592201
0.592207
0.592212
0.592216
0.59222
0.592223
0.592226
0.592229
0.59223
0.592232
0.592234
0.592235
0.592236
0.592237
0.592238
0.592239
0.592239
0.592239
0.592239
0.592238
0.592238
0.592237
0.592237
0.592236
0.592235
0.592235
0.592234
0.592233
0.592232
0.592231
0.59223
0.592229
0.592228
0.592227
0.592227
0.592226
0.592225
0.592224
0.592223
0.592222
0.592221
0.59222
0.592219
0.592219
0.592218
0.592218
0.592217
0.592216
0.592216
0.592215
0.592214
0.592213
0.592213
0.592212
0.592212
0.592212
0.592211
0.592211
0.592211
0.59221
0.59221
0.59221
0.592209
0.592209
0.592209
0.592208
0.592208
0.592208
0.592207
0.592207
0.592207
0.592206
0.592206
0.592205
0.592205
0.592205
0.592204
0.592204
0.591917
0.591933
0.591955
0.591976
0.591996
0.592014
0.592032
0.592049
0.592065
0.59208
0.592094
0.592107
0.592119
0.592131
0.592141
0.592151
0.59216
0.592169
0.592176
0.592183
0.59219
0.592196
0.592201
0.592206
0.592211
0.592213
0.592217
0.592221
0.592222
0.592226
0.592227
0.592229
0.592231
0.592232
0.592233
0.592234
0.592235
0.592235
0.592235
0.592236
0.592235
0.592235
0.592235
0.592234
0.592234
0.592233
0.592233
0.592232
0.592231
0.592231
0.59223
0.592229
0.592229
0.592228
0.592227
0.592227
0.592226
0.592225
0.592224
0.592223
0.592222
0.592221
0.592221
0.59222
0.592219
0.592219
0.592218
0.592218
0.592217
0.592216
0.592216
0.592215
0.592215
0.592214
0.592213
0.592213
0.592212
0.592211
0.592211
0.592211
0.59221
0.59221
0.59221
0.59221
0.592209
0.592209
0.592209
0.592209
0.592208
0.592208
0.592208
0.592207
0.592207
0.592207
0.592206
0.592206
0.592206
0.592205
0.592205
0.592205
0.591959
0.591972
0.59199
0.592008
0.592024
0.59204
0.592055
0.59207
0.592084
0.592097
0.592109
0.59212
0.592131
0.592141
0.59215
0.592158
0.592166
0.592173
0.59218
0.592186
0.592192
0.592197
0.592201
0.592205
0.59221
0.592212
0.592215
0.592218
0.592221
0.592222
0.592224
0.592225
0.592227
0.592228
0.592229
0.59223
0.592231
0.592231
0.592231
0.592231
0.592231
0.592231
0.592231
0.59223
0.59223
0.59223
0.592229
0.592229
0.592228
0.592227
0.592226
0.592226
0.592225
0.592225
0.592224
0.592223
0.592222
0.592222
0.592221
0.592221
0.59222
0.59222
0.592219
0.592218
0.592218
0.592217
0.592217
0.592216
0.592215
0.592215
0.592214
0.592214
0.592213
0.592213
0.592212
0.592211
0.592211
0.592211
0.59221
0.59221
0.59221
0.59221
0.592209
0.592209
0.592209
0.592209
0.592209
0.592208
0.592208
0.592208
0.592208
0.592207
0.592207
0.592207
0.592207
0.592206
0.592206
0.592206
0.592206
0.592205
0.591999
0.592009
0.592024
0.592039
0.592053
0.592066
0.592078
0.59209
0.592101
0.592112
0.592122
0.592132
0.592141
0.592149
0.592157
0.592164
0.592171
0.592177
0.592183
0.592188
0.592193
0.592197
0.592201
0.592205
0.592208
0.592212
0.592213
0.592216
0.592218
0.592219
0.592221
0.592222
0.592223
0.592224
0.592225
0.592226
0.592227
0.592227
0.592227
0.592227
0.592227
0.592227
0.592227
0.592227
0.592227
0.592227
0.592226
0.592226
0.592225
0.592225
0.592224
0.592223
0.592223
0.592222
0.592222
0.592221
0.592221
0.59222
0.59222
0.592219
0.592219
0.592218
0.592218
0.592218
0.592217
0.592216
0.592216
0.592215
0.592214
0.592214
0.592213
0.592213
0.592213
0.592212
0.592212
0.592211
0.592211
0.59221
0.59221
0.59221
0.59221
0.592209
0.592209
0.592209
0.592209
0.592209
0.592209
0.592209
0.592208
0.592208
0.592208
0.592208
0.592208
0.592207
0.592207
0.592207
0.592207
0.592207
0.592206
0.592206
0.592038
0.592046
0.592058
0.59207
0.592081
0.592091
0.592101
0.592111
0.59212
0.592129
0.592137
0.592145
0.592152
0.592159
0.592166
0.592171
0.592177
0.592182
0.592187
0.592191
0.592195
0.592198
0.592202
0.592205
0.592207
0.59221
0.592212
0.592214
0.592215
0.592217
0.592218
0.592219
0.59222
0.59222
0.592221
0.592222
0.592222
0.592223
0.592223
0.592223
0.592223
0.592223
0.592223
0.592223
0.592223
0.592223
0.592222
0.592222
0.592222
0.592221
0.592221
0.59222
0.59222
0.59222
0.592219
0.592219
0.592218
0.592218
0.592217
0.592217
0.592217
0.592216
0.592216
0.592216
0.592215
0.592215
0.592214
0.592214
0.592213
0.592213
0.592212
0.592212
0.592212
0.592211
0.592211
0.592211
0.59221
0.59221
0.59221
0.592209
0.592209
0.592209
0.592209
0.592209
0.592209
0.592209
0.592209
0.592209
0.592209
0.592208
0.592208
0.592208
0.592208
0.592208
0.592208
0.592207
0.592207
0.592207
0.592207
0.592207
0.592077
0.592083
0.592092
0.592101
0.592109
0.592117
0.592125
0.592132
0.592139
0.592145
0.592152
0.592158
0.592163
0.592168
0.592173
0.592177
0.592182
0.592186
0.592189
0.592193
0.592196
0.592199
0.592201
0.592204
0.592206
0.592208
0.59221
0.592211
0.592213
0.592214
0.592215
0.592215
0.592216
0.592217
0.592218
0.592218
0.592219
0.592219
0.59222
0.59222
0.59222
0.59222
0.59222
0.59222
0.59222
0.59222
0.59222
0.59222
0.592219
0.592219
0.592219
0.592218
0.592218
0.592218
0.592217
0.592217
0.592217
0.592216
0.592216
0.592216
0.592215
0.592215
0.592215
0.592214
0.592214
0.592214
0.592213
0.592213
0.592213
0.592212
0.592212
0.592212
0.592211
0.592211
0.592211
0.59221
0.59221
0.59221
0.592209
0.592209
0.592209
0.592209
0.592208
0.592208
0.592208
0.592208
0.592208
0.592208
0.592208
0.592208
0.592208
0.592208
0.592208
0.592207
0.592207
0.592207
0.592207
0.592207
0.592207
0.592207
0.592114
0.592118
0.592124
0.59213
0.592136
0.592141
0.592147
0.592152
0.592157
0.592161
0.592165
0.592169
0.592173
0.592177
0.59218
0.592184
0.592187
0.59219
0.592193
0.592195
0.592197
0.592199
0.592201
0.592203
0.592204
0.592206
0.592207
0.592208
0.59221
0.592211
0.592212
0.592213
0.592214
0.592215
0.592215
0.592216
0.592216
0.592216
0.592216
0.592217
0.592217
0.592217
0.592217
0.592217
0.592217
0.592216
0.592216
0.592216
0.592216
0.592216
0.592216
0.592215
0.592215
0.592215
0.592215
0.592214
0.592214
0.592214
0.592213
0.592213
0.592213
0.592212
0.592212
0.592212
0.592211
0.592211
0.592211
0.592211
0.59221
0.59221
0.59221
0.59221
0.592209
0.592209
0.592209
0.592209
0.592208
0.592208
0.592208
0.592208
0.592207
0.592207
0.592207
0.592207
0.592207
0.592207
0.592207
0.592207
0.592207
0.592207
0.592207
0.592207
0.592207
0.592207
0.592207
0.592206
0.592206
0.592206
0.592206
0.592206
0.59215
0.592152
0.592156
0.592159
0.592163
0.592166
0.592169
0.592172
0.592175
0.592178
0.592181
0.592184
0.592187
0.592189
0.592191
0.592194
0.592196
0.592197
0.592199
0.592201
0.592202
0.592204
0.592205
0.592206
0.592207
0.592208
0.592208
0.592209
0.59221
0.59221
0.592211
0.592211
0.592212
0.592212
0.592212
0.592212
0.592212
0.592212
0.592212
0.592212
0.592212
0.592212
0.592212
0.592211
0.592211
0.592211
0.592211
0.592211
0.592211
0.592211
0.592211
0.59221
0.59221
0.59221
0.59221
0.59221
0.59221
0.592209
0.592209
0.592209
0.592209
0.592209
0.592208
0.592208
0.592208
0.592208
0.592208
0.592208
0.592207
0.592207
0.592207
0.592207
0.592207
0.592206
0.592206
0.592206
0.592206
0.592206
0.592206
0.592206
0.592206
0.592206
0.592206
0.592206
0.592206
0.592206
0.592206
0.592206
0.592206
0.592206
0.592206
0.592206
0.592206
0.592206
0.592206
0.592206
0.592206
0.592205
0.592205
0.592205
0.592188
0.592189
0.59219
0.592191
0.592192
0.592194
0.592195
0.592196
0.592197
0.592198
0.592199
0.5922
0.592201
0.592202
0.592203
0.592203
0.592204
0.592205
0.592205
0.592206
0.592206
0.592206
0.592207
0.592207
0.592207
0.592207
0.592207
0.592207
0.592208
0.592208
0.592208
0.592208
0.592208
0.592208
0.592207
0.592207
0.592207
0.592207
0.592207
0.592207
0.592207
0.592207
0.592207
0.592206
0.592206
0.592206
0.592206
0.592206
0.592206
0.592206
0.592206
0.592206
0.592206
0.592205
0.592205
0.592205
0.592205
0.592205
0.592205
0.592205
0.592205
0.592205
0.592205
0.592205
0.592205
0.592205
0.592205
0.592205
0.592205
0.592205
0.592204
0.592204
0.592204
0.592204
0.592204
0.592204
0.592204
0.592204
0.592204
0.592204
0.592204
0.592204
0.592204
0.592204
0.592204
0.592204
0.592205
0.592205
0.592205
0.592205
0.592205
0.592205
0.592205
0.592205
0.592205
0.592205
0.592205
0.592205
0.592205
0.592205
0.591191
0.591179
0.591184
0.591201
0.591224
0.591255
0.591292
0.591316
0.591325
0.591268
0.591296
0.591281
0.59128
0.591288
0.591301
0.591319
0.591342
0.591365
0.591375
0.59134
0.59139
0.591373
0.591366
0.591368
0.591374
0.591384
0.591397
0.591411
0.591423
0.591407
0.591475
0.591457
0.591447
0.591444
0.591446
0.59145
0.591458
0.591466
0.591473
0.591465
0.591551
0.591532
0.59152
0.591515
0.591514
0.591515
0.591517
0.591523
0.591526
0.591522
0.591619
0.591601
0.591589
0.591581
0.591577
0.591576
0.591576
0.591578
0.59158
0.591576
0.59168
0.591663
0.59165
0.591642
0.591637
0.591634
0.591633
0.591632
0.591633
0.59163
0.591737
0.59172
0.591708
0.591699
0.591693
0.591689
0.591687
0.591685
0.591685
0.591683
0.591787
0.591773
0.591761
0.591752
0.591746
0.591742
0.591739
0.591737
0.591735
0.591733
0.591835
0.591822
0.591811
0.591802
0.591796