/*--------------------------------*- C++ -*----------------------------------*\
  =========                 |
  \\      /  F ield         | OpenFOAM: The Open Source CFD Toolbox
   \\    /   O peration     | Website:  https://openfoam.org
    \\  /    A nd           | Version:  8
     \\/     M anipulation  |
\*---------------------------------------------------------------------------*/
FoamFile
{
    version     2.0;
    format      ascii;
    class       volVectorField;
    location    "2.0000073";
    object      U;
}
// * * * * * * * * * * * * * * * * * * * * * * * * * * * * * * * * * * * * * //

dimensions      [0 1 -1 0 0 0 0];

internalField   nonuniform List<vector> 
6800
(
(0.327533 4.18148 -1.07093e-14)
(20.9397 -3.16869 2.95481e-15)
(31.6979 -4.41085 2.84502e-15)
(38.6631 -4.36661 -2.86821e-15)
(43.4029 -3.97701 1.93292e-15)
(46.6277 -3.49884 2.57818e-15)
(48.8309 -3.02502 -4.09467e-15)
(50.3383 -2.59209 3.70686e-15)
(51.3856 -2.18815 -2.64706e-15)
(52.0886 -1.8567 5.19169e-16)
(10.8834 1.50057 1.51832e-14)
(27.9223 -5.30126 -4.0787e-15)
(37.8157 -5.19686 -9.39521e-16)
(43.7979 -4.57702 1.99939e-15)
(47.5828 -3.86476 -1.91471e-15)
(50.0042 -3.17388 -4.62274e-17)
(51.55 -2.57896 5.81589e-18)
(52.5201 -2.09844 -1.12893e-15)
(53.1273 -1.71782 1.97401e-16)
(53.4617 -1.50346 2.61973e-15)
(18.0911 -0.730953 2.63797e-15)
(34.1929 -7.37596 -7.27863e-16)
(43.1445 -5.72703 1.94681e-15)
(48.1004 -4.58083 -4.48534e-15)
(50.9563 -3.58647 9.17244e-16)
(52.6307 -2.7293 -2.87335e-15)
(53.5782 -2.05099 2.63078e-15)
(54.0769 -1.5428 -3.15364e-16)
(54.3138 -1.16364 3.43319e-15)
(54.3672 -0.939043 -5.42116e-15)
(25.7515 -2.30806 4.30385e-15)
(40.3898 -8.98654 -9.91383e-16)
(47.9974 -5.82889 -1.86644e-16)
(51.7966 -4.3306 5.97053e-16)
(53.7402 -3.11492 -1.8885e-15)
(54.7103 -2.14484 1.83586e-15)
(55.1231 -1.42809 -3.10939e-15)
(55.2333 -0.910751 4.57325e-15)
(55.1896 -0.531514 -3.22324e-15)
(55.0449 -0.292516 3.9981e-15)
(33.3712 -2.73178 4.18879e-18)
(46.3458 -9.82603 1.93932e-15)
(52.397 -5.35015 7.77562e-16)
(54.9971 -3.7517 3.56013e-15)
(56.0595 -2.39738 -1.92824e-15)
(56.3839 -1.39068 6.18168e-16)
(56.3453 -0.677287 7.82504e-16)
(56.1491 -0.170503 2.4275e-15)
(55.8948 0.197185 -3.35915e-15)
(55.6036 0.436981 1.45794e-15)
(40.5941 -1.96445 -1.96181e-15)
(51.9108 -9.78359 -9.59915e-16)
(56.3145 -4.23554 -4.95791e-17)
(57.7563 -2.80208 -1.30213e-15)
(57.9931 -1.39034 -1.69907e-16)
(57.7566 -0.431085 9.97161e-16)
(57.3497 0.238459 -1.37577e-15)
(56.9126 0.70913 1.59991e-15)
(56.4928 1.0464 -1.80499e-15)
(56.0828 1.2714 -3.71936e-16)
(47.1444 -0.101669 2.7852e-16)
(56.9236 -8.83096 1.0401e-15)
(59.6918 -2.48988 7.67976e-16)
(60.0855 -1.46401 -1.13146e-15)
(59.5828 -0.0702131 -1.59055e-16)
(58.8817 0.759077 1.49397e-15)
(58.1802 1.34438 -6.25527e-16)
(57.5504 1.75175 9.75572e-16)
(56.9945 2.03318 -2.0033e-15)
(56.4805 2.22723 3.8057e-20)
(52.8013 2.70501 6.98837e-16)
(61.2641 -7.00516 -1.78053e-16)
(62.4718 -0.165372 -8.30779e-16)
(61.964 0.260872 -1.42424e-15)
(60.8336 1.56125 2.51071e-15)
(59.7701 2.18431 -1.76763e-15)
(58.8362 2.65046 3.57778e-16)
(58.0503 2.96294 -1.4006e-15)
(57.3811 3.15749 -6.18706e-16)
(56.7736 3.30552 -7.9687e-16)
(57.4242 6.25819 8.41688e-17)
(64.8257 -4.39361 1.32009e-16)
(64.5992 2.63372 -6.96427e-16)
(63.3616 2.33325 5.45078e-16)
(61.7379 3.47964 4.52025e-16)
(60.4019 3.83145 -6.32601e-16)
(59.2894 4.14503 3.02054e-16)
(58.38 4.32704 5.17052e-16)
(57.62 4.40512 5.31224e-16)
(56.931 4.49323 6.23913e-16)
(60.917 10.3512 -2.32383e-16)
(67.5124 -1.10165 -7.25579e-17)
(66.0297 5.78253 -1.64001e-16)
(64.2487 4.69683 1.66246e-16)
(62.2652 5.63223 -5.15384e-16)
(60.7463 5.66432 -9.84131e-17)
(59.5021 5.79396 -4.55183e-17)
(58.5016 5.81359 4.53422e-16)
(57.6786 5.74889 2.14686e-16)
(56.9219 5.76684 -9.85264e-16)
(-3.3449 1.69631 1.72291e-15)
(-5.33952 1.19572 -4.87875e-16)
(-7.21459 0.884218 -2.27212e-16)
(-8.6401 0.651977 3.63853e-16)
(-9.55201 0.434221 -7.59874e-17)
(-10.0229 0.208732 5.17561e-16)
(-10.0899 -0.0286037 1.74606e-16)
(-9.78552 -0.266225 -2.8414e-16)
(-9.14837 -0.482207 5.68879e-16)
(-8.22999 -0.635909 -1.94767e-16)
(-3.36623 4.30758 -8.80677e-16)
(-5.00963 3.29435 8.00367e-16)
(-6.5694 2.48885 1.62602e-16)
(-7.68364 1.84392 8.50151e-16)
(-8.29276 1.22722 -3.30448e-16)
(-8.4509 0.574347 -9.89857e-17)
(-8.17251 -0.135029 -1.01391e-15)
(-7.46264 -0.85779 7.12165e-16)
(-6.38601 -1.49858 2.30392e-16)
(-5.03114 -1.92168 1.03708e-15)
(-3.493 6.56644 -2.08807e-15)
(-4.5718 5.09937 -1.0109e-16)
(-5.53422 3.86569 1.73209e-15)
(-6.02828 2.84007 -2.75306e-15)
(-5.99852 1.84975 7.05075e-18)
(-5.46177 0.788466 -3.43428e-16)
(-4.35978 -0.39389 2.89407e-15)
(-2.7279 -1.60611 -1.85528e-15)
(-0.921584 -2.61453 4.48403e-15)
(1.20719 -3.21437 -1.93359e-15)
(-3.73478 8.21646 -2.32092e-15)
(-4.11435 6.40428 2.21901e-15)
(-4.23934 4.82803 -3.72661e-15)
(-3.81324 3.46644 4.41424e-15)
(-2.73148 2.12865 1.05217e-15)
(-0.894499 0.637558 -5.41547e-16)
(1.8563 -1.03964 -1.99817e-15)
(4.43507 -2.45315 1.3445e-15)
(6.9004 -3.52158 9.84144e-16)
(9.57415 -4.017 -3.85919e-15)
(-4.03703 9.13604 9.17884e-15)
(-3.66163 7.06819 5.87098e-17)
(-2.68785 5.20095 1.70137e-15)
(-0.856096 3.44417 -9.62208e-15)
(2.08017 1.64055 5.39792e-15)
(5.96853 -0.231119 9.94715e-16)
(9.63519 -1.83547 7.74651e-16)
(12.945 -3.06701 1.23115e-15)
(15.9066 -3.98872 3.08665e-16)
(19.0584 -4.30084 5.54761e-15)
(-4.3519 9.37018 7.01712e-15)
(-3.12529 6.95991 2.3038e-15)
(-0.561101 4.72795 2.16495e-15)
(3.48662 2.55773 -8.732e-15)
(8.82649 0.397823 7.41823e-15)
(13.7808 -1.32902 -4.75463e-15)
(18.1691 -2.6513 -7.2904e-15)
(22.006 -3.57588 1.85676e-15)
(25.2659 -4.16728 -4.91903e-15)
(28.5204 -4.20247 1.75458e-15)
(-4.67313 8.9976 5.83386e-15)
(-2.30591 6.01931 4.56091e-15)
(2.76824 3.39263 -6.90625e-15)
(9.98336 0.768952 1.54091e-14)
(16.5319 -1.14749 2.74546e-15)
(22.1185 -2.46326 -7.5541e-15)
(26.7801 -3.29877 4.37144e-15)
(30.5991 -3.80324 -6.6941e-16)
(33.6503 -4.07089 2.72241e-15)
(36.5031 -3.88578 1.25873e-15)
(-5.11823 8.24028 -9.81854e-15)
(-0.67772 4.43734 -2.09773e-14)
(9.15313 0.897854 6.38987e-15)
(17.7416 -1.25994 5.32305e-16)
(24.6612 -2.50886 -3.26811e-15)
(30.1154 -3.22972 -2.7119e-15)
(34.364 -3.61501 4.19344e-16)
(37.6711 -3.76363 -1.67342e-15)
(40.2285 -3.76433 -1.7777e-15)
(42.5124 -3.43554 5.05029e-15)
(-5.24813 6.90755 1.10687e-14)
(5.53231 1.50464 7.02167e-15)
(17.0042 -1.4874 2.93978e-15)
(25.6177 -2.82468 -1.13965e-15)
(32.0432 -3.40501 2.99252e-17)
(36.8363 -3.60819 2.05926e-15)
(40.4253 -3.60619 4.65134e-15)
(43.1213 -3.48366 -2.89403e-15)
(45.1368 -3.29967 -3.15082e-15)
(46.8462 -2.89703 3.33411e-15)
(-4.28059 5.39923 -8.90575e-15)
(13.6335 -1.08588 -3.1545e-16)
(24.7673 -3.24179 -3.7061e-15)
(32.6211 -3.82366 -9.71847e-17)
(38.2521 -3.85128 4.85976e-16)
(42.2852 -3.66509 -3.33497e-16)
(45.1804 -3.38675 -2.28812e-16)
(47.2625 -3.07384 -2.18148e-15)
(48.7481 -2.75219 -3.22205e-15)
(49.8924 -2.32973 9.41941e-16)
(-7.03574 -0.696318 1.24503e-16)
(-5.52286 -0.667473 2.00955e-17)
(-4.11799 -0.612103 -1.97402e-16)
(-2.83088 -0.562791 1.47977e-16)
(-1.63193 -0.526564 6.64686e-17)
(-0.509937 -0.501963 -3.21295e-16)
(0.595005 -0.475261 -1.67025e-16)
(1.60805 -0.447562 2.47681e-16)
(2.58374 -0.42662 -1.50299e-16)
(3.52082 -0.409927 -4.45149e-17)
(4.4253 -0.395763 1.52225e-16)
(5.30165 -0.383192 -6.14579e-17)
(6.15261 -0.371636 3.77008e-16)
(6.97988 -0.360743 -1.9254e-16)
(7.78443 -0.350265 -4.39748e-16)
(8.56703 -0.340112 5.81094e-16)
(9.32819 -0.330236 -2.47015e-16)
(10.0684 -0.320524 -1.29655e-16)
(10.788 -0.310915 1.32781e-16)
(11.487 -0.301367 -3.10915e-17)
(12.1654 -0.291869 -3.21463e-17)
(12.8233 -0.282434 9.14504e-17)
(13.4606 -0.273093 -1.54247e-16)
(14.0777 -0.263882 4.11383e-16)
(14.6746 -0.254827 2.0386e-17)
(15.2518 -0.245959 -4.37966e-16)
(15.8096 -0.237303 3.20709e-16)
(16.3485 -0.228883 7.14135e-17)
(16.869 -0.220727 -1.51144e-18)
(17.3716 -0.21285 -2.46105e-16)
(17.8569 -0.205257 1.49917e-16)
(18.3255 -0.197948 -2.44698e-16)
(18.7781 -0.190925 2.22359e-16)
(19.2151 -0.184184 -2.92504e-16)
(19.6371 -0.177713 4.26192e-16)
(20.0449 -0.171506 -2.64876e-16)
(20.4389 -0.16556 -1.15481e-16)
(20.8197 -0.159875 3.76112e-16)
(21.1878 -0.154424 -9.30125e-17)
(21.5439 -0.149211 -7.56971e-18)
(21.8884 -0.14423 -1.82935e-16)
(22.2218 -0.139467 6.70187e-17)
(22.5446 -0.134911 -3.57113e-17)
(22.8572 -0.130538 -1.90361e-17)
(23.16 -0.126364 2.28902e-16)
(23.4536 -0.122369 -9.84493e-17)
(23.7382 -0.11854 1.55236e-16)
(24.0143 -0.114881 -2.68245e-16)
(24.2822 -0.111384 4.04041e-17)
(24.5423 -0.108039 3.08955e-17)
(24.7949 -0.104846 -1.77483e-18)
(25.0402 -0.101798 -6.71005e-17)
(25.2786 -0.098876 7.94769e-17)
(25.5103 -0.0960705 3.3375e-17)
(25.7357 -0.093374 -1.68373e-17)
(25.955 -0.0907803 -6.76746e-17)
(26.1684 -0.0882842 1.33204e-17)
(26.3762 -0.0858811 -6.96706e-17)
(26.5786 -0.0835669 4.38044e-17)
(26.7758 -0.0813376 1.06508e-16)
(26.9679 -0.07919 -9.69744e-17)
(27.1552 -0.0771211 3.49897e-18)
(27.3378 -0.0751281 -3.41808e-17)
(27.5159 -0.0732086 9.99261e-18)
(27.6898 -0.07136 6.15582e-17)
(27.8594 -0.0695801 5.79657e-17)
(28.025 -0.0678664 -1.45638e-16)
(28.1868 -0.0662167 4.31878e-17)
(28.3449 -0.0646289 1.09824e-17)
(28.4994 -0.063101 -3.68101e-17)
(28.6505 -0.0616305 -6.85443e-17)
(28.7982 -0.060215 1.45053e-16)
(28.9428 -0.0588528 -4.23188e-17)
(29.0843 -0.0575417 3.20234e-17)
(29.2228 -0.0562798 -2.89438e-17)
(29.3585 -0.055065 -4.49899e-17)
(29.4915 -0.0538954 1.29842e-17)
(29.6218 -0.0527694 4.48205e-17)
(29.7495 -0.0516856 -6.69173e-17)
(29.8749 -0.0506425 8.32973e-17)
(29.9978 -0.0496383 2.37697e-18)
(30.1185 -0.0486714 -1.32315e-17)
(30.237 -0.0477405 -3.14658e-17)
(30.3534 -0.0468443 4.818e-17)
(30.4677 -0.0459817 -4.00687e-17)
(30.5801 -0.0451507 3.44042e-17)
(30.6907 -0.0443504 -5.01838e-17)
(30.7993 -0.0435783 -6.03595e-18)
(30.9063 -0.0428319 3.29582e-17)
(31.0115 -0.0421083 2.09271e-18)
(31.1151 -0.041403 -1.21637e-17)
(31.2171 -0.0407142 -5.20972e-19)
(31.3175 -0.0400268 -1.90883e-18)
(31.4163 -0.0393417 -4.43485e-18)
(31.5136 -0.0386458 2.49117e-18)
(31.6092 -0.0379213 -1.56331e-18)
(31.7031 -0.0371478 5.81193e-18)
(31.7949 -0.0363043 4.04083e-18)
(31.8846 -0.0353345 -7.45501e-19)
(31.993 -0.0333373 1.20594e-18)
(-3.68338 -2.01893 -4.981e-16)
(-2.4293 -1.88478 -3.53396e-16)
(-1.20667 -1.72859 -1.55735e-15)
(-0.0684627 -1.59697 1.30626e-15)
(1.0138 -1.49188 -1.89658e-15)
(2.0122 -1.41503 1.38249e-15)
(2.97387 -1.34544 -9.19549e-16)
(3.89499 -1.27806 -6.60137e-16)
(4.78916 -1.22363 1.45189e-15)
(5.65568 -1.1786 4.9646e-16)
(6.49643 -1.13974 2.70827e-16)
(7.31376 -1.10529 -1.02681e-15)
(8.1093 -1.07369 3.70549e-16)
(8.8842 -1.04378 -4.11547e-16)
(9.63916 -1.01505 -1.05422e-15)
(10.3744 -0.986967 2.41564e-15)
(11.0901 -0.959352 1.65285e-16)
(11.7862 -0.932198 -1.54021e-16)
(12.463 -0.905362 -4.97047e-16)
(13.1205 -0.878606 -1.548e-16)
(13.7587 -0.851801 -1.03244e-15)
(14.3776 -0.824985 1.00181e-15)
(14.9772 -0.798286 -1.26139e-15)
(15.5576 -0.771857 2.40289e-15)
(16.1192 -0.745807 -1.12414e-15)
(16.6621 -0.720229 3.26204e-16)
(17.1868 -0.695201 -4.0607e-16)
(17.6937 -0.670799 4.50833e-16)
(18.1832 -0.647122 4.13814e-16)
(18.6559 -0.624228 -9.54787e-17)
(19.1123 -0.602132 -8.43048e-16)
(19.5531 -0.580831 -1.19434e-16)
(19.9787 -0.560313 4.08935e-16)
(20.3896 -0.540601 1.54251e-16)
(20.7865 -0.521683 -9.00073e-16)
(21.1698 -0.503514 7.51242e-16)
(21.5402 -0.486104 2.0488e-16)
(21.898 -0.469455 -3.12944e-16)
(22.244 -0.453477 1.44543e-16)
(22.5786 -0.4382 -2.2932e-16)
(22.9022 -0.423556 -2.25755e-16)
(23.2153 -0.409539 7.31602e-16)
(23.5184 -0.39615 -3.79165e-16)
(23.8119 -0.383296 1.35843e-16)
(24.0963 -0.371052 -7.95624e-16)
(24.3717 -0.359325 5.96036e-16)
(24.6388 -0.348075 2.39422e-16)
(24.8979 -0.33732 -5.27168e-16)
(25.1492 -0.327026 -3.31628e-16)
(25.3931 -0.31716 2.86349e-16)
(25.63 -0.307749 1.80865e-16)
(25.86 -0.298806 1.15763e-18)
(26.0833 -0.290248 5.54548e-16)
(26.3004 -0.282037 -7.59555e-16)
(26.5115 -0.274147 5.16305e-16)
(26.7169 -0.266559 -3.93398e-16)
(26.9167 -0.259258 -1.94831e-16)
(27.1112 -0.25223 8.50938e-16)
(27.3006 -0.245462 -1.44967e-16)
(27.4851 -0.238943 -2.33065e-16)
(27.665 -0.232661 2.05626e-16)
(27.8403 -0.226609 -2.79527e-16)
(28.0112 -0.220779 -2.09921e-16)
(28.178 -0.215163 1.96631e-16)
(28.3407 -0.209754 -1.04611e-16)
(28.4995 -0.204545 -2.34198e-16)
(28.6546 -0.19953 4.40978e-16)
(28.8061 -0.194702 -8.04464e-17)
(28.9542 -0.190055 -1.4171e-16)
(29.0989 -0.185581 -1.97185e-16)
(29.2405 -0.181275 2.69095e-17)
(29.3789 -0.177131 1.78502e-16)
(29.5144 -0.173141 1.51828e-16)
(29.647 -0.169301 7.32631e-17)
(29.7769 -0.165604 -2.08203e-17)
(29.9041 -0.162046 -3.20486e-16)
(30.0288 -0.158621 2.57757e-16)
(30.151 -0.155325 1.85177e-16)
(30.2709 -0.152151 -1.60765e-16)
(30.3885 -0.149097 -2.33809e-16)
(30.5039 -0.146156 9.99855e-18)
(30.6172 -0.143326 7.91676e-17)
(30.7285 -0.140601 -3.90672e-17)
(30.8378 -0.137978 5.61743e-18)
(30.9452 -0.135455 -9.30928e-18)
(31.0509 -0.133023 9.75875e-18)
(31.1547 -0.130679 -9.03871e-17)
(31.257 -0.128422 2.07953e-16)
(31.3575 -0.126242 -9.24008e-17)
(31.4566 -0.12413 -7.21129e-17)
(31.5541 -0.122074 4.11847e-17)
(31.6501 -0.120073 2.28477e-17)
(31.7447 -0.118069 1.78159e-17)
(31.8379 -0.116069 -2.38582e-17)
(31.9296 -0.114032 1.36847e-17)
(32.0198 -0.111908 -8.58445e-17)
(32.1084 -0.109646 3.67052e-17)
(32.195 -0.107149 -1.23545e-17)
(32.2804 -0.10418 2.47048e-18)
(32.3823 -0.0996476 -1.91993e-17)
(2.39178 -3.14472 -4.97782e-15)
(3.15717 -2.86661 1.06487e-15)
(4.02027 -2.6523 2.03132e-15)
(4.87687 -2.48066 1.99224e-15)
(5.71485 -2.33425 -1.46408e-15)
(6.52868 -2.21409 -4.16535e-15)
(7.32578 -2.11409 4.31309e-15)
(8.10748 -2.02607 7.2994e-16)
(8.87629 -1.95048 -1.30075e-15)
(9.62962 -1.88482 -6.52966e-16)
(10.3666 -1.82617 7.6775e-16)
(11.0874 -1.77324 3.21453e-15)
(11.7911 -1.72411 -1.22755e-15)
(12.4781 -1.67696 -2.54736e-15)
(13.1482 -1.63139 3.44542e-15)
(13.8006 -1.58656 -1.52115e-15)
(14.4355 -1.54207 -1.1882e-15)
(15.0529 -1.49823 4.00273e-16)
(15.6526 -1.45491 -6.07522e-16)
(16.2344 -1.41165 1.4059e-15)
(16.7981 -1.36827 -2.01725e-15)
(17.3437 -1.32492 1.9683e-16)
(17.8715 -1.28182 -7.46045e-16)
(18.3816 -1.2392 1.64833e-15)
(18.8746 -1.19725 -3.90997e-16)
(19.3509 -1.15611 1.18029e-15)
(19.8108 -1.11589 -4.35998e-16)
(20.2549 -1.07669 -1.11472e-15)
(20.6837 -1.03868 -5.45174e-16)
(21.0977 -1.00193 -8.41576e-17)
(21.4973 -0.966424 5.64039e-16)
(21.8832 -0.932186 7.89306e-16)
(22.2557 -0.899216 -1.36241e-15)
(22.6153 -0.867535 9.77551e-16)
(22.9626 -0.837129 3.80389e-16)
(23.2981 -0.807955 -7.48586e-16)
(23.6223 -0.780012 1.55613e-15)
(23.9356 -0.753241 -1.35715e-15)
(24.2385 -0.727588 2.51099e-16)
(24.5315 -0.703055 -5.03512e-16)
(24.815 -0.679566 2.37293e-16)
(25.0893 -0.657067 -2.27468e-16)
(25.3548 -0.635539 3.57661e-16)
(25.6119 -0.614925 1.6126e-16)
(25.861 -0.595214 -2.9642e-16)
(26.1024 -0.576361 8.92571e-16)
(26.3364 -0.558326 -5.56523e-16)
(26.5634 -0.541072 -5.52781e-16)
(26.7836 -0.524557 8.4081e-16)
(26.9974 -0.508754 -9.09066e-16)
(27.2049 -0.493646 -1.48988e-17)
(27.4064 -0.479223 1.56704e-15)
(27.6021 -0.465425 -2.04618e-15)
(27.7923 -0.452201 1.67544e-15)
(27.9772 -0.439511 -1.12694e-15)
(28.157 -0.42732 1.53684e-16)
(28.332 -0.4156 7.13311e-16)
(28.5023 -0.404326 -3.75753e-16)
(28.6681 -0.39348 -1.77749e-16)
(28.8297 -0.383043 2.5478e-16)
(28.9871 -0.372997 -8.32642e-18)
(29.1406 -0.363323 -2.09638e-16)
(29.2902 -0.354007 -2.42017e-16)
(29.4362 -0.345037 3.01576e-17)
(29.5787 -0.336401 2.91295e-16)
(29.7178 -0.328087 -1.46073e-16)
(29.8537 -0.320083 3.8402e-16)
(29.9864 -0.312379 -1.92282e-16)
(30.1161 -0.304965 -2.22813e-17)
(30.243 -0.297828 -4.64993e-16)
(30.367 -0.290958 4.32312e-16)
(30.4884 -0.284345 2.24244e-16)
(30.6072 -0.27798 5.62152e-17)
(30.7236 -0.271852 -2.98083e-16)
(30.8375 -0.265954 2.34222e-16)
(30.9492 -0.260278 -8.66351e-17)
(31.0586 -0.254816 -1.99334e-17)
(31.166 -0.249561 -3.19604e-16)
(31.2713 -0.244505 2.50985e-16)
(31.3746 -0.23964 7.23047e-17)
(31.4761 -0.234959 -2.35809e-16)
(31.5758 -0.230455 8.33117e-17)
(31.6737 -0.226122 8.15624e-17)
(31.77 -0.221953 -1.75437e-16)
(31.8647 -0.217941 -3.41597e-18)
(31.9578 -0.214079 3.20201e-16)
(32.0495 -0.210359 6.63156e-17)
(32.1398 -0.206775 -6.58607e-17)
(32.2287 -0.203313 -1.72742e-16)
(32.3163 -0.199962 -2.38302e-17)
(32.4026 -0.196702 -6.88073e-17)
(32.4876 -0.19352 3.33274e-17)
(32.5715 -0.190369 1.25835e-16)
(32.6542 -0.187224 -5.04171e-17)
(32.7357 -0.184019 4.31398e-17)
(32.8159 -0.180687 -7.09716e-17)
(32.8948 -0.177102 7.25879e-17)
(32.972 -0.173114 -2.96385e-17)
(33.0485 -0.168261 -1.31856e-17)
(33.1396 -0.162487 1.45776e-17)
(10.3351 -3.77797 1.83983e-15)
(10.5912 -3.46633 -4.76506e-16)
(10.9997 -3.27409 3.85578e-15)
(11.5255 -3.11984 -3.19409e-15)
(12.0936 -2.97524 2.62718e-15)
(12.6766 -2.84776 1.14908e-15)
(13.2714 -2.73929 2.5743e-16)
(13.8729 -2.64423 3.82493e-16)
(14.477 -2.55942 -8.5063e-16)
(15.0774 -2.48279 -9.73083e-16)
(15.6719 -2.41204 -2.58712e-15)
(16.2591 -2.34638 3.31631e-15)
(16.8347 -2.28405 -3.38788e-15)
(17.3989 -2.22333 2.31135e-15)
(17.9505 -2.16382 -1.06346e-15)
(18.487 -2.10465 -2.81109e-16)
(19.0096 -2.04567 1.18265e-15)
(19.5178 -1.98707 -2.57172e-16)
(20.0108 -1.92855 -4.52909e-16)
(20.4876 -1.86985 -8.57617e-16)
(20.9482 -1.81117 2.35445e-15)
(21.393 -1.75285 -5.6273e-16)
(21.8225 -1.69516 1.51005e-16)
(22.2372 -1.6383 1.49713e-15)
(22.6375 -1.58246 -3.98007e-15)
(23.0241 -1.52783 2.84151e-15)
(23.3972 -1.47449 -3.13432e-15)
(23.7575 -1.42263 4.33783e-15)
(24.1052 -1.37238 -2.4331e-15)
(24.441 -1.32381 1.59223e-15)
(24.7652 -1.27696 1.23526e-15)
(25.0782 -1.2318 -3.4076e-15)
(25.3805 -1.18835 8.63028e-16)
(25.6724 -1.14658 -5.69816e-16)
(25.9545 -1.10647 1.11561e-15)
(26.227 -1.068 -1.28866e-16)
(26.4905 -1.03114 -2.27832e-15)
(26.7451 -0.995841 1.99811e-15)
(26.9914 -0.962028 -2.67867e-16)
(27.2297 -0.92965 3.03224e-16)
(27.4602 -0.898637 4.48369e-16)
(27.6833 -0.868931 3.86113e-16)
(27.8993 -0.84049 4.17138e-17)
(28.1084 -0.81326 -9.24801e-16)
(28.3109 -0.787209 2.60522e-17)
(28.5072 -0.762306 -1.27316e-16)
(28.6975 -0.738474 -3.92086e-16)
(28.882 -0.715687 1.72007e-15)
(29.0611 -0.693885 -7.18965e-16)
(29.2348 -0.673013 2.57822e-16)
(29.4035 -0.653053 3.46471e-16)
(29.5672 -0.633969 -5.24376e-16)
(29.7261 -0.615701 -6.00152e-16)
(29.8804 -0.598188 1.26495e-15)
(30.0304 -0.581379 -1.19637e-15)
(30.1763 -0.565235 -1.16512e-16)
(30.3181 -0.54972 1.24915e-15)
(30.4562 -0.534809 -8.21427e-16)
(30.5905 -0.520469 2.81705e-16)
(30.7213 -0.506673 1.56914e-16)
(30.8488 -0.493399 -6.10438e-16)
(30.973 -0.480626 7.87856e-16)
(31.0941 -0.468335 -2.67807e-16)
(31.2122 -0.45651 -7.48662e-16)
(31.3275 -0.445133 4.21622e-16)
(31.44 -0.434183 -5.57413e-17)
(31.5499 -0.423644 9.06646e-16)
(31.6573 -0.413499 -1.55159e-15)
(31.7622 -0.403735 1.39258e-15)
(31.8648 -0.394338 -6.52867e-17)
(31.9652 -0.385295 -5.52324e-16)
(32.0634 -0.376594 7.38299e-16)
(32.1596 -0.368222 -4.92279e-16)
(32.2537 -0.360166 2.41351e-16)
(32.346 -0.352417 -4.13071e-16)
(32.4365 -0.344965 -6.34859e-17)
(32.5252 -0.337799 2.31055e-16)
(32.6123 -0.330911 -8.61835e-17)
(32.6978 -0.324288 -2.89191e-16)
(32.7817 -0.317922 2.79047e-16)
(32.8642 -0.3118 4.08066e-16)
(32.9454 -0.305916 -7.05197e-17)
(33.0251 -0.300258 2.38866e-16)
(33.1036 -0.294821 -2.92324e-16)
(33.1809 -0.289592 -2.1065e-16)
(33.257 -0.284564 -7.74329e-17)
(33.3321 -0.279724 1.78266e-17)
(33.406 -0.275064 1.18724e-16)
(33.4789 -0.270565 2.14729e-16)
(33.5509 -0.266216 -4.38165e-16)
(33.6219 -0.261989 3.28231e-16)
(33.6919 -0.257867 -1.71481e-16)
(33.7611 -0.253798 3.54776e-17)
(33.8295 -0.249743 1.41282e-16)
(33.8969 -0.245613 -1.27402e-17)
(33.9635 -0.241321 -1.17291e-16)
(34.0291 -0.236693 9.09451e-17)
(34.0936 -0.231551 -3.74988e-17)
(34.1575 -0.225302 -2.59049e-18)
(34.234 -0.21823 -1.36731e-17)
(19.5468 -3.9476 -6.61523e-15)
(19.4295 -3.69397 -2.75041e-15)
(19.425 -3.57782 3.87676e-15)
(19.6102 -3.4811 -1.01456e-15)
(19.8857 -3.37585 -1.12205e-15)
(20.2019 -3.27257 2.78851e-15)
(20.5498 -3.17769 -2.83816e-15)
(20.9219 -3.09045 -1.22037e-15)
(21.3138 -3.01017 1.18624e-15)
(21.7177 -2.93509 1.23925e-15)
(22.1277 -2.86151 -2.55401e-15)
(22.5393 -2.79072 3.88666e-15)
(22.9481 -2.72172 -2.85753e-15)
(23.3519 -2.65161 3.93271e-15)
(23.7488 -2.58259 -2.9768e-15)
(24.1369 -2.51387 -2.01002e-15)
(24.5157 -2.44332 1.0385e-15)
(24.8827 -2.37194 2.61999e-15)
(25.2371 -2.30071 1.04071e-15)
(25.5795 -2.22985 -2.36116e-15)
(25.9108 -2.15935 2.14087e-15)
(26.2312 -2.08955 6.77626e-17)
(26.5414 -2.0206 -1.52709e-16)
(26.8412 -1.95272 -1.55403e-15)
(27.1311 -1.88611 1.41206e-15)
(27.4114 -1.82103 -3.25283e-16)
(27.6822 -1.75757 -3.29058e-15)
(27.9442 -1.69596 2.02158e-15)
(28.1975 -1.63625 3.81538e-16)
(28.4423 -1.57842 9.38362e-16)
(28.679 -1.52259 -3.52346e-15)
(28.9077 -1.46879 2.3487e-16)
(29.1289 -1.41708 3.08722e-15)
(29.3428 -1.36743 -1.67081e-16)
(29.5497 -1.31977 -2.44372e-15)
(29.7499 -1.27408 -6.91281e-16)
(29.9435 -1.23031 3.45326e-15)
(30.1308 -1.1884 -9.24505e-16)
(30.312 -1.14823 -9.71233e-16)
(30.4873 -1.10972 9.10672e-16)
(30.6569 -1.07283 7.8542e-16)
(30.821 -1.03749 1.26848e-15)
(30.9797 -1.00361 -3.50709e-15)
(31.1334 -0.971163 2.28286e-15)
(31.2822 -0.940109 2.93849e-16)
(31.4264 -0.910423 -1.77592e-15)
(31.5662 -0.882024 6.15677e-17)
(31.7017 -0.854842 -3.60693e-16)
(31.8331 -0.828825 1.31377e-15)
(31.9606 -0.803926 8.33254e-16)
(32.0842 -0.780107 -4.89417e-16)
(32.2041 -0.757309 -6.75375e-16)
(32.3204 -0.73547 -3.22121e-17)
(32.4333 -0.714527 3.01922e-16)
(32.5429 -0.694424 -2.43389e-16)
(32.6493 -0.675114 9.48841e-17)
(32.7527 -0.656559 -6.05169e-16)
(32.8533 -0.63873 1.25236e-15)
(32.951 -0.621593 -1.03844e-15)
(33.0462 -0.605118 1.26218e-15)
(33.1388 -0.589272 -1.80754e-15)
(33.2289 -0.574022 2.75569e-16)
(33.3168 -0.559354 6.20594e-16)
(33.4024 -0.545252 -1.10311e-16)
(33.4859 -0.531691 4.88114e-16)
(33.5674 -0.518644 -1.2719e-15)
(33.6469 -0.506095 7.85559e-16)
(33.7246 -0.494029 -5.60106e-16)
(33.8006 -0.48242 -2.58572e-16)
(33.8748 -0.471251 1.68171e-15)
(33.9474 -0.460508 -1.38148e-15)
(34.0185 -0.450177 6.46311e-16)
(34.0882 -0.440243 -2.97454e-16)
(34.1564 -0.430691 7.78512e-18)
(34.2233 -0.421511 6.92445e-16)
(34.2889 -0.412692 -4.72837e-16)
(34.3534 -0.404223 -2.17695e-16)
(34.4167 -0.396092 1.90233e-16)
(34.4789 -0.388285 3.98037e-16)
(34.5401 -0.380787 -3.49581e-16)
(34.6003 -0.373587 -3.33485e-16)
(34.6596 -0.366673 7.27571e-16)
(34.718 -0.360034 -5.06308e-16)
(34.7756 -0.35366 9.61941e-17)
(34.8324 -0.347538 -2.18798e-16)
(34.8884 -0.341658 1.88312e-16)
(34.9438 -0.336004 2.25877e-16)
(34.9984 -0.330568 -8.36529e-17)
(35.0525 -0.325326 1.32343e-16)
(35.1059 -0.320265 3.01332e-16)
(35.1587 -0.315355 -3.17635e-16)
(35.2111 -0.310575 4.11078e-16)
(35.2629 -0.305869 -3.33187e-16)
(35.3142 -0.301191 1.73957e-16)
(35.365 -0.296434 1.15952e-16)
(35.4153 -0.291496 -3.68593e-17)
(35.4651 -0.286169 4.46973e-17)
(35.5143 -0.280265 -6.6747e-17)
(35.5633 -0.273086 7.9501e-17)
(35.6223 -0.265008 3.81318e-17)
(28.9558 -3.82169 7.33413e-16)
(28.7086 -3.68163 -2.45487e-15)
(28.4846 -3.65117 -7.32007e-16)
(28.4398 -3.61313 7.32001e-15)
(28.4921 -3.55502 2.65231e-18)
(28.5843 -3.48899 -3.4559e-15)
(28.7043 -3.42221 1.84165e-15)
(28.8525 -3.35399 -2.13083e-15)
(29.0241 -3.28385 5.26581e-16)
(29.2139 -3.21535 3.8708e-15)
(29.4154 -3.1465 -7.51826e-16)
(29.6229 -3.07609 -9.18175e-15)
(29.8343 -3.00582 2.83325e-15)
(30.0466 -2.9338 6.39402e-15)
(30.2573 -2.85956 -1.12047e-16)
(30.4658 -2.78479 -3.29924e-15)
(30.6699 -2.70929 -2.37623e-15)
(30.8688 -2.63291 -4.08826e-16)
(31.0632 -2.55549 1.33705e-15)
(31.2534 -2.47752 2.70917e-16)
(31.4399 -2.3999 2.23357e-15)
(31.6219 -2.32303 -2.64723e-16)
(31.7994 -2.24707 -2.73806e-15)
(31.9721 -2.17233 6.92226e-16)
(32.1402 -2.09904 -6.46585e-16)
(32.3036 -2.02758 3.45175e-16)
(32.4625 -1.95788 -2.89965e-16)
(32.617 -1.89005 -7.55917e-16)
(32.7671 -1.82435 2.46995e-15)
(32.9128 -1.7607 -2.07504e-15)
(33.0542 -1.69922 1.82754e-15)
(33.1915 -1.63988 2.93135e-16)
(33.3247 -1.58271 1.07873e-15)
(33.4539 -1.52769 -1.46757e-15)
(33.5793 -1.47478 -5.30751e-16)
(33.7009 -1.42397 -1.10567e-15)
(33.8186 -1.37523 2.05334e-15)
(33.9325 -1.32845 -1.81198e-15)
(34.0428 -1.28351 -7.41722e-16)
(34.1493 -1.24034 1.70519e-15)
(34.2523 -1.19896 4.97624e-16)
(34.3518 -1.15931 4.17799e-16)
(34.4482 -1.12134 -1.60954e-16)
(34.5415 -1.085 -1.32242e-16)
(34.6319 -1.05022 -9.45926e-16)
(34.7196 -1.01696 -2.07264e-15)
(34.8045 -0.985126 3.88599e-15)
(34.8868 -0.95465 -2.64616e-15)
(34.9665 -0.925499 -1.16763e-15)
(35.0437 -0.89762 1.96232e-15)
(35.1186 -0.870962 -1.28401e-15)
(35.191 -0.845443 1.54555e-15)
(35.2612 -0.820998 -1.4028e-16)
(35.3291 -0.797555 4.88453e-17)
(35.395 -0.775055 -1.32102e-15)
(35.4588 -0.753443 3.01993e-16)
(35.5207 -0.732681 -6.29978e-16)
(35.5808 -0.712742 4.13104e-16)
(35.639 -0.69358 2.55626e-16)
(35.6956 -0.675163 -3.97623e-16)
(35.7505 -0.657467 6.45966e-16)
(35.8039 -0.640454 -1.17701e-16)
(35.8558 -0.624096 8.82621e-16)
(35.9063 -0.608365 2.76816e-16)
(35.9555 -0.593237 7.36119e-18)
(36.0034 -0.578692 -2.75423e-17)
(36.0501 -0.564709 -8.38641e-16)
(36.0957 -0.551273 1.86851e-16)
(36.1403 -0.538358 -8.5337e-17)
(36.1839 -0.525946 -3.69111e-16)
(36.2265 -0.514022 -2.77532e-16)
(36.2683 -0.50257 4.74536e-16)
(36.3092 -0.49157 -7.50394e-16)
(36.3494 -0.481004 -1.50517e-16)
(36.3889 -0.470859 8.18049e-16)
(36.4277 -0.461129 -6.46908e-17)
(36.4658 -0.4518 -5.77318e-16)
(36.5034 -0.442856 -5.71277e-16)
(36.5405 -0.43428 1.42404e-15)
(36.577 -0.426056 -4.41389e-16)
(36.6131 -0.418168 -8.37729e-18)
(36.6487 -0.410603 -8.43255e-17)
(36.684 -0.403348 -2.28518e-16)
(36.7188 -0.396394 3.27173e-16)
(36.7533 -0.389725 -4.02875e-16)
(36.7875 -0.38333 4.03557e-16)
(36.8214 -0.37719 -5.52781e-17)
(36.8551 -0.3713 3.29975e-16)
(36.8885 -0.36563 -5.92986e-16)
(36.9217 -0.360167 3.62697e-18)
(36.9547 -0.354881 3.61358e-17)
(36.9876 -0.349749 -5.18798e-17)
(37.0203 -0.344713 -8.84851e-17)
(37.0529 -0.339728 -1.66208e-16)
(37.0855 -0.334673 1.94661e-16)
(37.118 -0.329442 -2.04154e-17)
(37.1505 -0.323806 5.78032e-17)
(37.1828 -0.317572 -1.19973e-16)
(37.2155 -0.309967 -4.92103e-17)
(37.2553 -0.301363 4.2673e-18)
(36.8847 -3.58024 -1.084e-15)
(36.586 -3.57148 2.98632e-16)
(36.261 -3.61328 -4.73505e-15)
(36.0963 -3.61519 2.26494e-15)
(36.0298 -3.5913 3.95221e-15)
(36.0031 -3.55746 2.15807e-15)
(36.0004 -3.51668 -5.39784e-16)
(36.0229 -3.46939 -8.51592e-15)
(36.0648 -3.41536 1.89741e-16)
(36.1205 -3.356 5.52058e-15)
(36.186 -3.29257 -2.77875e-16)
(36.2577 -3.22547 -1.6108e-16)
(36.3335 -3.1555 4.32614e-15)
(36.4124 -3.08301 -9.06459e-16)
(36.492 -3.00814 -5.17968e-16)
(36.5716 -2.93105 -6.90186e-16)
(36.651 -2.85187 -1.6172e-15)
(36.7305 -2.77126 -2.31325e-15)
(36.8099 -2.69038 -9.82761e-16)
(36.8883 -2.60943 6.17271e-15)
(36.965 -2.52867 7.60341e-16)
(37.0399 -2.44883 -4.58838e-15)
(37.1129 -2.36983 -1.45934e-15)
(37.1842 -2.29196 -3.54974e-15)
(37.2537 -2.21555 6.14956e-15)
(37.3212 -2.14092 -2.52147e-15)
(37.3868 -2.06815 2.28868e-15)
(37.4501 -1.99725 1.33546e-15)
(37.5113 -1.92829 -3.10476e-15)
(37.5702 -1.86147 1.23233e-15)
(37.6271 -1.79697 1.84792e-16)
(37.682 -1.7348 -1.17985e-15)
(37.7349 -1.6749 2.66035e-15)
(37.7857 -1.61723 -3.1097e-15)
(37.8346 -1.56175 5.12781e-16)
(37.8815 -1.50847 7.22509e-16)
(37.9264 -1.4573 -1.17749e-16)
(37.9694 -1.40814 7.80985e-16)
(38.0106 -1.36102 -1.07086e-15)
(38.0502 -1.31586 1.15211e-15)
(38.0884 -1.27258 -1.5218e-15)
(38.1252 -1.23106 1.65137e-15)
(38.1608 -1.19118 -1.47463e-15)
(38.1951 -1.15301 7.89363e-16)
(38.2281 -1.11631 1.15294e-15)
(38.2599 -1.08118 5.39602e-16)
(38.2904 -1.04757 -1.16055e-15)
(38.3197 -1.01522 1.33247e-15)
(38.3477 -0.984196 -2.42891e-15)
(38.3746 -0.954444 1.48159e-15)
(38.4003 -0.925943 -4.2929e-16)
(38.4247 -0.898618 2.33493e-16)
(38.448 -0.872403 -1.29621e-15)
(38.4701 -0.847236 2.70921e-15)
(38.4912 -0.823066 -1.35645e-15)
(38.5113 -0.799843 -2.16817e-15)
(38.5305 -0.77753 1.63084e-15)
(38.5487 -0.756101 -5.18059e-17)
(38.5661 -0.735489 -1.14729e-15)
(38.5826 -0.71568 -1.10623e-15)
(38.5983 -0.696672 3.04312e-15)
(38.6134 -0.678414 -1.95348e-15)
(38.6278 -0.660898 1.9493e-15)
(38.6418 -0.644106 -9.82371e-16)
(38.6552 -0.628 9.57014e-17)
(38.6683 -0.612546 4.37067e-16)
(38.6809 -0.597718 -1.14975e-15)
(38.6933 -0.583497 -1.41511e-16)
(38.7053 -0.569858 8.72812e-16)
(38.7171 -0.556783 -6.13718e-16)
(38.7287 -0.544255 5.14956e-16)
(38.7402 -0.53225 5.64664e-17)
(38.7514 -0.520736 -6.86975e-16)
(38.7626 -0.509686 -7.80613e-17)
(38.7737 -0.499089 1.35311e-15)
(38.7847 -0.488942 -5.01583e-16)
(38.7957 -0.479232 -3.44369e-16)
(38.8066 -0.469937 4.9114e-16)
(38.8175 -0.461034 -2.45213e-16)
(38.8285 -0.452507 3.91532e-16)
(38.8394 -0.444338 4.05389e-16)
(38.8505 -0.436512 -1.09896e-15)
(38.8615 -0.429018 9.88337e-17)
(38.8727 -0.421846 4.35147e-16)
(38.8839 -0.414978 -7.03615e-16)
(38.8953 -0.408404 8.87091e-16)
(38.9068 -0.402103 -3.21788e-16)
(38.9185 -0.396074 -4.6537e-16)
(38.9303 -0.39029 7.66187e-17)
(38.9424 -0.384736 5.2671e-17)
(38.9547 -0.379374 1.04939e-16)
(38.9672 -0.374188 -1.27128e-16)
(38.98 -0.369112 8.65396e-17)
(38.9931 -0.364111 4.16866e-18)
(39.0066 -0.359074 5.7622e-17)
(39.0205 -0.353904 -2.03634e-17)
(39.0347 -0.348362 3.54946e-17)
(39.0496 -0.342261 -2.6695e-17)
(39.0652 -0.334794 -4.7185e-17)
(39.0852 -0.326238 -4.04202e-17)
(42.7435 -3.24297 1.80177e-15)
(42.382 -3.35427 -2.70393e-15)
(41.966 -3.46515 4.43923e-15)
(41.6842 -3.50921 -3.05732e-15)
(41.5037 -3.52058 -4.91937e-15)
(41.3742 -3.51944 4.20641e-15)
(41.2766 -3.50779 1.81614e-15)
(41.2075 -3.48461 5.33128e-17)
(41.1638 -3.45048 -7.52622e-17)
(41.1406 -3.407 2.82821e-15)
(41.1339 -3.35555 -2.88857e-15)
(41.1405 -3.2975 -1.92131e-15)
(41.1575 -3.23427 -4.40301e-15)
(41.183 -3.1665 3.40695e-15)
(41.2149 -3.09475 -5.39958e-16)
(41.2518 -3.01972 -1.32654e-15)
(41.2922 -2.94209 5.42863e-16)
(41.3352 -2.86269 6.76665e-15)
(41.3795 -2.78209 -6.20681e-15)
(41.425 -2.70077 -1.13161e-15)
(41.4703 -2.61891 2.16153e-15)