/*--------------------------------*- C++ -*----------------------------------*\
  =========                 |
  \\      /  F ield         | OpenFOAM: The Open Source CFD Toolbox
   \\    /   O peration     | Website:  https://openfoam.org
    \\  /    A nd           | Version:  8
     \\/     M anipulation  |
\*---------------------------------------------------------------------------*/
FoamFile
{
    version     2.0;
    format      ascii;
    class       surfaceScalarField;
    location    "0.6";
    object      phi;
}
// * * * * * * * * * * * * * * * * * * * * * * * * * * * * * * * * * * * * * //

dimensions      [1 0 -1 0 0 0 0];

internalField   nonuniform List<scalar> 
4780
(
-1.5293393e-08
-0.00018497524
1.0225803e-13
-2.1089916e-09
-0.00018500384
5.5603559e-14
-1.5689114e-10
-0.00018499084
-1.9751065e-14
-3.6038975e-10
-0.00018499075
-3.9278431e-14
-4.8841147e-12
-0.00018499062
-1.0991082e-14
3.5509868e-10
-0.00018499063
4.6667248e-15
1.5505071e-10
-0.00018499074
5.5734688e-14
2.1112676e-09
-0.00018499084
-3.4230795e-14
1.5294693e-08
-0.00018500383
2.9441919e-14
-0.00018497524
7.0111992e-14
-2.3698478e-08
-0.00025233629
8.0138182e-14
-4.8200631e-09
-0.00025240763
4.6587222e-14
-2.7576588e-10
-0.00025237857
-1.2051933e-14
-8.5667535e-10
-0.00025237533
-3.6272943e-14
-3.7987996e-12
-0.00025237598
-8.1725859e-15
8.5202311e-10
-0.00025237599
4.3392038e-15
2.7433167e-10
-0.00025237532
3.9807446e-14
4.8219647e-09
-0.00025237857
-2.521029e-14
2.3699524e-08
-0.00025240763
2.7864497e-14
-0.00025233629
6.480515e-14
-1.5578291e-08
-0.00026346299
8.1616163e-14
-5.9546412e-09
-0.00026355985
4.6267299e-14
-3.9670945e-10
-0.00026352499
-1.3604746e-14
-1.0752298e-09
-0.00026351742
-3.7817648e-14
-3.8373347e-12
-0.00026351918
-8.6477355e-15
1.0705858e-09
-0.0002635192
2.3733826e-15
3.9527661e-10
-0.00026351741
4.2902035e-14
5.9565512e-09
-0.000263525
-2.6215755e-14
1.5579384e-08
-0.00026355985
2.855417e-14
-0.00026346299
6.5539745e-14
-1.0163715e-08
-0.00026466127
8.467458e-14
-6.3853522e-09
-0.00026477253
4.5169803e-14
-4.6258034e-10
-0.00026473809
-1.6048251e-14
-1.1705284e-09
-0.0002647257
-3.9051149e-14
-3.8847279e-12
-0.00026472871
-9.9660175e-15
1.1658686e-09
-0.00026472873
4.5328145e-16
4.6116309e-10
-0.00026472569
4.8913093e-14
6.3872753e-09
-0.00026473809
-2.8227541e-14
1.0164848e-08
-0.00026477252
2.8967557e-14
-0.00026466127
6.6524525e-14
-7.8701321e-09
-0.00026476456
8.7198091e-14
-6.5160787e-09
-0.00026488554
4.4006422e-14
-4.8644326e-10
-0.00026485412
-1.8366024e-14
-1.2128108e-09
-0.00026483669
-4.0142466e-14
-3.9327859e-12
-0.00026484103
-1.082657e-14
1.2081235e-09
-0.00026484105
-1.3440426e-15
4.8504186e-10
-0.00026483667
5.3369556e-14
6.5180264e-09
-0.00026485412
-3.0167069e-14
7.8713018e-09
-0.00026488553
2.955643e-14
-0.00026476457
6.7635451e-14
-7.037621e-09
-0.00026478096
8.889643e-14
-6.5383006e-09
-0.00026490998
4.2849408e-14
-4.9343245e-10
-0.00026488256
-2.012043e-14
-1.2362828e-09
-0.00026485991
-4.1453445e-14
-3.985204e-12
-0.00026486565
-1.0979611e-14
1.2315517e-09
-0.00026486568
-3.2073608e-15
4.9203357e-10
-0.00026485988
5.5601097e-14
6.5402735e-09
-0.00026488257
-3.1509672e-14
7.0388193e-09
-0.00026490997
3.0222115e-14
-0.00026478097
6.8752483e-14
-6.7050564e-09
-0.00026479246
8.9792206e-14
-6.5273453e-09
-0.00026492887
4.1637049e-14
-4.9129048e-10
-0.00026490589
-2.1317825e-14
-1.2538685e-09
-0.00026487784
-4.2167432e-14
-4.0413941e-12
-0.00026488506
-1.0577297e-14
1.2490826e-09
-0.0002648851
-3.8390813e-15
4.8988305e-10
-0.00026487782
5.6348224e-14
6.5293405e-09
-0.0002649059
-3.2565446e-14
6.7062794e-09
-0.00026492886
3.0714268e-14
-0.00026479247
6.9703257e-14
-6.5502346e-09
-0.00026480402
9.0347548e-14
-6.5055716e-09
-0.00026494752
4.03425e-14
-4.8735872e-10
-0.00026492926
-2.2087462e-14
-1.2697574e-09
-0.00026489562
-4.2996641e-14
-4.1001757e-12
-0.0002649044
-9.8374845e-15
1.2649112e-09
-0.00026490444
-4.7496621e-15
4.8593757e-10
-0.00026489559
5.6159939e-14
6.5075863e-09
-0.00026492927
-3.3413839e-14
6.5514799e-09
-0.00026494751
3.119436e-14
-0.00026480402
7.0726806e-14
-6.4036072e-09
-0.00026481592
9.0602091e-14
-6.4804822e-09
-0.00026496624
3.84258e-14
-4.8060174e-10
-0.00026495298
-2.3090096e-14
-1.2850558e-09
-0.00026491352
-4.3041282e-14
-4.1605146e-12
-0.00026492396
-8.2307119e-15
1.2801474e-09
-0.00026492401
-4.9041084e-15
4.7916477e-10
-0.00026491348
5.5833481e-14
6.4825143e-09
-0.00026495298
-3.4464363e-14
6.4048757e-09
-0.00026496622
3.1528746e-14
-0.00026481592
7.1625267e-14
-6.2897846e-09
-0.00026482809
9.0786367e-14
-6.4528479e-09
-0.00026498499
3.6432473e-14
-4.7307146e-10
-0.00026497699
-2.40725e-14
-1.2999838e-09
-0.00026493148
-4.4814426e-14
-4.2222399e-12
-0.00026494371
-7.6816822e-15
1.2950123e-09
-0.00026494375
-6.312602e-15
4.7161811e-10
-0.00026493145
5.4441973e-14
6.4548964e-09
-0.000264977
-3.4964148e-14
6.2910764e-09
-0.00026498497
3.2364528e-14
-0.0002648281
7.2907118e-14
-6.1466757e-09
-0.00026484063
9.0469458e-14
-6.4237029e-09
-0.00026500379
3.3719875e-14
-4.6358956e-10
-0.00026500138
-2.5118936e-14
-1.3146468e-09
-0.00026494956
-4.5185449e-14
-4.2848205e-12
-0.00026496369
-6.1561014e-15
1.3096122e-09
-0.00026496374
-7.0723123e-15
4.6211927e-10
-0.00026494952
5.3158534e-14
6.4257658e-09
-0.00026500139
-3.5835969e-14
6.1479929e-09
-0.00026500377
3.3153187e-14
-0.00026484064
7.4129182e-14
-6.021194e-09
-0.00026485347
9.0258489e-14
-6.3926297e-09
-0.00026502259
3.0790687e-14
-4.5243994e-10
-0.00026502608
-2.6584638e-14
-1.328882e-09
-0.00026496771
-4.6937995e-14
-4.3487225e-12
-0.00026498388
-4.9470732e-15
1.3237836e-09
-0.00026498393
-8.1989736e-15
4.5095255e-10
-0.00026496766
5.1343421e-14
6.3947058e-09
-0.00026502609
-3.7281022e-14
6.022537e-09
-0.00026502258
3.3540731e-14
-0.00026485348
7.5498478e-14
-5.8751657e-09
-0.00026486672
8.8838546e-14
-6.3602351e-09
-0.00026504143
2.7335649e-14
-4.401366e-10
-0.00026505115
-2.8036018e-14
-1.3429288e-09
-0.00026498597
-4.7107811e-14
-4.4133224e-12
-0.00026500433
-2.5955255e-15
1.3377673e-09
-0.00026500439
-8.8645706e-15
4.3863158e-10
-0.00026498592
4.958438e-14
6.362322e-09
-0.00026505116
-3.8396392e-14
5.8765366e-09
-0.00026504142
3.3710682e-14
-0.00026486673
7.6232601e-14
-5.7296049e-09
-0.00026488029
8.7807542e-14
-6.3259601e-09
-0.00026506019
2.3908306e-14
-4.2451562e-10
-0.00026507651
-2.9801145e-14
-1.3563542e-09
-0.00026500426
-4.8908679e-14
-4.4790347e-12
-0.00026502498
-1.0707194e-15
1.351128e-09
-0.00026502504
-9.7840878e-15
4.2299207e-10
-0.00026500421
4.6911578e-14
6.3280565e-09
-0.00026507652
-3.9387032e-14
5.7310048e-09
-0.00026506018
3.3796087e-14
-0.0002648803
7.7049505e-14
-5.5867789e-09
-0.00026489427
8.5818834e-14
-6.290804e-09
-0.00026507894
1.9744121e-14
-4.0953907e-10
-0.00026510221
-3.1419694e-14
-1.3698271e-09
-0.00026502265
-5.0148816e-14
-4.5451432e-12
-0.00026504591
2.4198355e-15
1.3645376e-09
-0.00026504598
-1.1016211e-14
4.0799618e-10
-0.0002650226
4.4106691e-14
6.2929065e-09
-0.00026510222
-4.0941348e-14
5.58821e-09
-0.00026507893
3.4101707e-14
-0.00026489428
7.7801747e-14
-5.4104411e-09
-0.00026490855
8.3836747e-14
-6.2534393e-09
-0.00026509745
1.5338879e-14
-3.8800822e-10
-0.00026512808
-3.381325e-14
-1.3823111e-09
-0.00026504098
-5.0580982e-14
-4.612169e-12
-0.00026506697
7.63502e-15
1.3769556e-09
-0.00026506704
-1.1454733e-14
3.8644473e-10
-0.00026504092
4.1627601e-14
6.2555472e-09
-0.0002651281
-4.2176288e-14
5.4119045e-09
-0.00026509745
3.4067708e-14
-0.00026490857
7.8916444e-14
-5.2834553e-09
-0.00026492324
8.0706799e-14
-6.2161591e-09
-0.00026511592
9.9935745e-15
-3.7132516e-10
-0.00026515426
-3.8372904e-14
-1.395449e-09
-0.0002650594
-5.3755178e-14
-4.6793985e-12
-0.00026508832
1.3070957e-14
1.3900298e-09
-0.00026508839
-1.404139e-14
3.697401e-10
-0.00026505934
3.729882e-14
6.218268e-09
-0.00026515427
-4.3764682e-14
5.2849537e-09
-0.00026511592
3.4761862e-14
-0.00026492326
8.0065029e-14
-5.0561783e-09
-0.00026493819
7.8016916e-14
-6.1756721e-09
-0.00026513394
5.3649656e-15
-3.4125403e-10
-0.00026518046
-4.1572872e-14
-1.4068107e-09
-0.00026507763
-5.4246403e-14
-4.7472629e-12
-0.00026510969
2.1180012e-14
1.4013228e-09
-0.00026510977
-1.4590302e-14
3.3964397e-10
-0.00026507756
3.4023064e-14
6.1777811e-09
-0.00026518048
-4.5591466e-14
5.0577137e-09
-0.00026513395
3.5100309e-14
-0.00026493821
8.1473568e-14
-4.9707025e-09
-0.00026495356
7.3596779e-14
-6.1371711e-09
-0.00026515196
-1.8569672e-15
-3.2560965e-10
-0.00026520698
-4.6696953e-14
-1.4202051e-09
-0.00026509599
-5.76888e-14
-4.8148325e-12
-0.00026513142
2.8137983e-14
1.4146535e-09
-0.00026513149
-1.6535078e-14
3.2397426e-10
-0.00026509593
2.9066911e-14
6.1392741e-09
-0.000265207
-4.72741e-14
4.9722784e-09
-0.00026515197
3.5625488e-14
-0.00026495358
8.2615358e-14
-4.6535289e-09
-0.00026496912
6.852816e-14
-6.0932566e-09
-0.00026516925
-1.1872683e-14
-2.8182801e-10
-0.00026523336
-5.1255357e-14
-1.4300606e-09
-0.000265114
-5.6219661e-14
-4.8828326e-12
-0.000265153
4.0078691e-14
1.424436e-09
-0.00026515308
-1.5998796e-14
2.8016154e-10
-0.00026511393
2.6654986e-14
6.0953537e-09
-0.00026523338
-4.9214329e-14
4.6551467e-09
-0.00026516927
3.6016081e-14
-0.00026496915
8.442027e-14
-4.6605731e-09
-0.00026498517
6.3215226e-14
-6.0548911e-09
-0.00026518672
-2.7751557e-14
-2.7367314e-10
-0.00026526017
-5.8330364e-14
-1.444911e-09
-0.00026513229
-5.995785e-14
-4.9494519e-12
-0.00026517508
4.9404738e-14
1.4392236e-09
-0.00026517516
-1.8114844e-14
2.7197757e-10
-0.00026513222
2.0766812e-14
6.0569728e-09
-0.00026526019
-5.1618009e-14
4.6622369e-09
-0.00026518675
3.6171789e-14
-0.0002649852
8.5473147e-14
-4.1795033e-09
-0.0002650013
5.5964965e-14
-6.0067969e-09
-0.00026520301
-4.539347e-14
-2.0570271e-10
-0.00026528658
-6.6860556e-14
-1.4523267e-09
-0.00026514993
-6.0308266e-14
-5.0167767e-12
-0.00026519676
6.260087e-14
1.4465592e-09
-0.00026519683
-1.8296352e-14
2.0396259e-10
-0.00026514985
1.7494993e-14
6.0088658e-09
-0.0002652866
-5.2487622e-14
4.1812153e-09
-0.00026520305
3.6244792e-14
-0.00026500133
8.6349528e-14
-4.3764862e-09
-0.00026501798
4.8148039e-14
-5.9706876e-09
-0.00026521993
-6.6206807e-14
-2.1896185e-10
-0.00026531367
-7.6812481e-14
-1.470888e-09
-0.00026516814
-6.404123e-14
-5.0812157e-12
-0.00026521918
7.4996169e-14
1.46506e-09
-0.00026521925
-1.9430887e-14
2.1719123e-10
-0.00026516807
1.0862048e-14
5.9727287e-09
-0.0002653137
-5.4737062e-14
4.3782502e-09
-0.00026521997
3.6400351e-14
-0.00026501801
8.7463161e-14
-3.5958177e-09
-0.00026503456
3.9083879e-14
-5.9169747e-09
-0.00026523488
-8.8531881e-14
-1.0532962e-10
-0.00026533996
-8.8304968e-14
-1.4737373e-09
-0.0002651852
-6.3915017e-14
-5.1460495e-12
-0.00026524072
9.084786e-14
1.4678186e-09
-0.00026524079
-1.9593996e-14
1.0346813e-10
-0.00026518512
5.6311857e-15
5.9189954e-09
-0.00026533999
-5.7163317e-14
3.597637e-09
-0.00026523494
3.7564497e-14
-0.0002650346
8.8905501e-14
-4.1594253e-09
-0.00026505178
2.8412668e-14
-5.8864282e-09
-0.0002652513
-1.1813283e-13
-1.6864417e-10
-0.00026536738
-1.0175079e-13
-1.5000773e-09
-0.00026520334
-6.7572798e-14
-5.2065525e-12
-0.00026526346
1.0670824e-13
1.4941024e-09
-0.00026526352
-1.9966348e-14
1.6677886e-10
-0.00026520326
-4.2457738e-15
5.8884053e-09
-0.00026536741
-6.0317071e-14
4.1613046e-09
-0.00026525136
3.7071009e-14
-0.00026505182
9.0238131e-14
-2.8424667e-09
-0.00026506869
1.7838202e-14
-5.8246503e-09
-0.00026526448
-1.4813432e-13
2.4795722e-11
-0.00026539336
-1.2007508e-13
-1.4940119e-09
-0.0002652195
-6.8195665e-14
-5.2678628e-12
-0.00026528454
1.2499027e-13
1.4879311e-09
-0.0002652846
-2.1956615e-14
-2.621563e-11
-0.00026521942
-1.2561303e-14
5.8265986e-09
-0.00026539339
-6.2334024e-14
2.844411e-09
-0.00026526455
3.891029e-14
-0.00026506873
9.2417913e-14
-4.0739098e-09
-0.00026508631
5.3137614e-15
-5.8047785e-09
-0.00026528055
-1.9086649e-13
-1.3555192e-10
-0.00026542119
-1.377126e-13
-1.535187e-09
-0.00026523757
-7.1971274e-14
-5.3227105e-12
-0.00026530757
1.4465179e-13
1.5290571e-09
-0.00026530762
-2.2826161e-14
1.3357565e-10
-0.00026523749
-3.4042647e-14
5.8066636e-09
-0.00026542122
-6.5511595e-14
4.0759238e-09
-0.00026528064
3.6165806e-14
-0.00026508635
9.1951709e-14
-1.8326393e-09
-0.00026510343
-1.3472967e-14
-5.7311274e-09
-0.00026529139
-2.3097899e-13
1.7985519e-10
-0.00026544662
-1.623e-13
-1.5123459e-09
-0.00026525242
-7.0381783e-14
-5.3786562e-12
-0.00026532778
1.6677067e-13
1.5060921e-09
-0.00026532782
-2.5649011e-14
-1.8170013e-10
-0.00026525234
-4.5214034e-14
5.7329736e-09
-0.00026544665
-6.7949219e-14
1.8347298e-09
-0.00026529148
3.8833672e-14
-0.00026510347
9.5071775e-14
-4.2111886e-09
-0.00026512125
-4.3360524e-14
-5.7296588e-09
-0.00026530741
-2.9016402e-13
-1.3923553e-10
-0.00026547494
-1.8547216e-13
-1.579823e-09
-0.00026527044
-7.5540823e-14
-5.424975e-12
-0.00026535108
1.8924096e-13
1.5735274e-09
-0.00026535112
-2.6821222e-14
1.3715175e-10
-0.00026527036
-7.3970034e-14
5.7314194e-09
-0.00026547498
-7.198683e-14
4.213361e-09
-0.00026530752
3.5261524e-14
-0.00026512129
9.4040944e-14
-4.5079911e-10
-0.00026513855
-7.7687773e-14
-5.6386562e-09
-0.00026531514
-3.4577124e-13
4.2481614e-10
-0.0002654996
-2.1968022e-13
-1.5277183e-09
-0.00026528341
-6.9296902e-14
-5.4734507e-12
-0.00026536995
2.1684621e-13
1.5212872e-09
-0.00026536998
-3.1461261e-14
-4.2697209e-10
-0.00026528332
-8.550508e-14
5.6403641e-09
-0.00026549963
-7.4263701e-14
4.5304469e-10
-0.00026531526
3.9679583e-14
-0.0002651386
9.8507579e-14
-4.6883375e-09
-0.00026515633
-1.1747447e-13
-5.6667493e-09
-0.00026533153
-4.2515729e-13
-2.0384405e-10
-0.00026552851
-2.4739547e-13
-1.6385473e-09
-0.00026530138
-7.6904596e-14
-5.5079633e-12
-0.00026539355
2.4047111e-13
1.6320713e-09
-0.00026539357
-3.5484261e-14
2.0164716e-10
-0.0002653013
-1.2720416e-13
5.668347e-09
-0.00026552854
-7.7164005e-14
4.6907018e-09
-0.00026533166
3.5986893e-14
-0.00026515638
9.729861e-14
1.4334937e-09
-0.00026517394
-1.5886265e-13
-5.5485965e-09
-0.00026533522
-4.9316126e-13
7.9215842e-10
-0.00026555215
-2.9183126e-13
-1.5378695e-09
-0.00026531178
-6.6093349e-14
-5.5461529e-12
-0.00026541057
2.7058897e-13
1.5311494e-09
-0.00026541058
-4.5181758e-14
-7.9452157e-10
-0.0002653117
-1.4045007e-13
5.5501013e-09
-0.00026555218
-8.1354206e-14
-1.4310596e-09
-0.00026533538
3.9279968e-14
-0.00026517399
1.0186478e-13
-5.645573e-09
-0.00026519132
-2.0736017e-13
-5.6240385e-09
-0.00026535251
-5.9362812e-13
-3.5709531e-10
-0.00026558169
-3.2263175e-13
-1.716892e-09
-0.00026532969
-7.6178048e-14
-5.564173e-12
-0.00026543447
2.9425017e-13
1.7102148e-09
-0.00026543448
-5.1809176e-14
3.5475074e-10
-0.00026532961
-2.0129086e-13
5.6254289e-09
-0.00026558172
-8.6253512e-14
5.6481696e-09
-0.00026535268
3.0017754e-14
-0.00026519137
9.7630066e-14
4.0017327e-09
-0.00026520955
-2.5944237e-13
-5.4487437e-09
-0.00026535106
-6.7058426e-13
1.3032024e-09
-0.00026560404
-3.8577218e-13
-1.5306359e-09
-0.00026533677
-6.1537872e-14
-5.5879882e-12
-0.00026544912
3.2966908e-13
1.5234372e-09
-0.00026544911
-7.0275447e-14
-1.3057313e-09
-0.0002653367
-2.157987e-13
5.4499753e-09
-0.00026560407
-9.0757198e-14
-3.9990637e-09
-0.00026535125
3.788108e-14
-0.0002652096
1.0513662e-13
-7.2454447e-09
-0.00026522602
-3.1659441e-13
-5.612175e-09
-0.00026536995
-7.8396598e-13
-6.3330739e-10
-0.00026563418
-4.1556216e-13
-1.821282e-09
-0.00026535461
-7.2392223e-14
-5.5838861e-12
-0.00026547334
3.5178349e-13
1.8143719e-09
-0.00026547331
-7.9805927e-14
6.3078456e-10
-0.00026535454
-2.9959127e-13
5.6133083e-09
-0.00026563421
-9.5895995e-14
7.2483221e-09
-0.00026537015
2.5142361e-14
-0.00026522607
9.9325676e-14
7.4386187e-09
-0.00026524535
-3.8069292e-13
-5.3180765e-09
-0.0002653621
-8.5725662e-13
2.0010688e-09
-0.00026565496
-4.9228374e-13
-1.4930564e-09
-0.00026535759
-4.648196e-14
-5.5844049e-12
-0.00026548503
3.9214888e-13
1.4853153e-09
-0.00026548498
-1.0955662e-13
-2.0038232e-09
-0.00026535753
-3.1463766e-13
5.3190014e-09
-0.00026565499
-1.0244348e-13
-7.4356771e-09
-0.00026536232
3.5547286e-14
-0.0002652454
1.0830764e-13
-9.6758113e-09
-0.00026526014
-4.431066e-13
-5.6446291e-09
-0.00026538355
-9.6116289e-13
-1.0742914e-09
-0.00026568563
-5.2159983e-13
-1.9588627e-09
-0.00026537539
-6.2548602e-14
-5.5503888e-12
-0.00026550952
4.1103326e-13
1.9516741e-09
-0.00026550945
-1.184595e-13
1.0715791e-09
-0.00026537534
-4.2200762e-13
5.6454547e-09
-0.00026568565
-1.0492785e-13
9.6790185e-09
-0.00026538378
2.005326e-14
-0.00026526019
1.0089148e-13
1.1964627e-08
-0.00026528121
-5.2067958e-13
-5.1361414e-09
-0.00026536802
-1.0077963e-12
2.9412291e-09
-0.00026570456
-6.1552139e-13
-1.4155158e-09
-0.00026537352
-2.831404e-14
-5.5123381e-12
-0.00026551759
4.5181467e-13
1.4072012e-09
-0.0002655175
-1.6162837e-13
-2.9442649e-09
-0.00026537348
-4.4240558e-13
5.1367584e-09
-0.00026570458
-1.1720242e-13
-1.1961373e-08
-0.00026536826
3.2292671e-14
-0.00026528126
1.1114515e-13
-1.3155882e-08
-0.00026529327
-5.8003576e-13
-5.7374377e-09
-0.00026539345
-1.0608407e-12
-1.7286522e-09
-0.0002657356
-6.2833792e-13
-2.1369882e-09
-0.00026539156
-4.3936202e-14
-5.4405518e-12
-0.00026554224
4.6494514e-13
2.1294613e-09
-0.00026554213
-1.5778719e-13
1.7257508e-09
-0.00026539153
-5.6736103e-13
5.7379149e-09
-0.00026573561
-1.1402968e-13
1.3159456e-08
-0.0002653937
1.2844961e-14
-0.00026529332
1.0284214e-13
1.7835986e-08
-0.00026531683
-6.7298856e-13
-4.8803101e-09
-0.00026536903
-1.0416275e-12
4.1844266e-09
-0.00026575242
-7.4573398e-13
-1.2868899e-09
-0.00026538426
-5.6693764e-15
-5.366064e-12
-0.00026554595
5.0626323e-13
1.2779311e-09
-0.0002655458
-2.0665176e-13
-4.1877969e-09
-0.00026538424
-5.8623361e-13
4.8806251e-09
-0.00026575243
-1.3733077e-13
-1.7832393e-08
-0.00026536929
2.5317991e-14
-0.00026531687
1.1362624e-13
-1.7944721e-08
-0.00026532475
-7.1681366e-13
-5.9080748e-09
-0.00026540056
-9.8851901e-13
-2.6520168e-09
-0.00026578363
-7.2903742e-13
-2.361777e-09
-0.00026540325
-1.9797688e-14
-5.2675249e-12
-0.00026557067
5.0933916e-13
2.3538484e-09
-0.0002655705
-1.6479427e-13
2.6489273e-09
-0.00026540324
-7.1363286e-13
5.9081942e-09
-0.00026578363
-1.2531864e-13
1.7948672e-08
-0.00026540081
3.0927695e-15
-0.00026532479
1.0400762e-13
2.5348729e-08
-0.0002653517
-8.2310633e-13
-4.5192268e-09
-0.00026536629
-8.4191658e-13
5.7967495e-09
-0.000265798
-8.7390636e-13
-1.0909879e-09
-0.00026539038
4.1664886e-14
-5.175344e-12
-0.00026556921
5.4902116e-13
1.0812659e-09
-0.000265569
-1.9721868e-13
-5.8005098e-09
-0.00026539038
-7.197912e-13
4.5192569e-09
-0.00026579799
-1.5597283e-13
-2.5344798e-08
-0.00026536653
1.6913484e-14
-0.00026535174
1.1602644e-13
-2.4352375e-08
-0.0002653537
-8.348459e-13
-6.1735601e-09
-0.00026540688
-6.6257375e-13
-3.9088463e-09
-0.00026582909
-8.1281246e-13
-2.6358684e-09
-0.00026541173
9.2389462e-15
-5.0644467e-12
-0.00026559409
5.3195084e-13
2.6274841e-09
-0.00026559384
-8.5383824e-14
3.9055658e-09
-0.00026541174
-8.2270629e-13
6.1733699e-09
-0.00026582908
-1.3236441e-13
2.4356661e-08
-0.00026540711
-1.1473241e-14
-0.00026535373
1.0532475e-13
3.4844004e-08
-0.00026538518
-9.5301836e-13
-4.0098349e-09
-0.00026536205
-4.4708791e-13
7.8488576e-09
-0.00026584053
-9.8292086e-13
-8.0313213e-10
-0.00026539377
1.1249907e-13
-4.958659e-12
-0.00026558681
5.6726667e-13
7.9243211e-10
-0.00026558653
-8.6372907e-14
-7.8530638e-09
-0.00026539379
-7.8679834e-13
4.0096209e-09
-0.00026584051
-1.7268775e-13
-3.4839786e-08
-0.00026536225
6.5473184e-15
-0.0002653852
1.1793244e-13
-3.2752129e-08
-0.00026537921
-9.1505699e-13
-6.5487448e-09
-0.0002654155
-2.7651523e-13
-5.5754346e-09
-0.00026587112
-8.7175814e-13
-2.9559895e-09
-0.00026541972
5.0516699e-14
-4.8473185e-12
-0.0002656124
5.1727525e-13
2.947132e-09
-0.00026561208
8.1543376e-14
5.571952e-09
-0.00026541975
-8.3130359e-13
6.5483727e-09
-0.00026587108
-1.3079596e-13
3.2756645e-08
-0.00026541567
-3.1858105e-14
-0.00026537923
1.085555e-13
4.6714125e-08
-0.00026541674
-1.043622e-12
-3.2950602e-09
-0.00026535934
-8.5259436e-15
1.0413651e-08
-0.00026587895
-1.0735884e-12
-3.7782413e-10
-0.00026539782
1.7856611e-13
-4.7185871e-12
-0.00026559917
5.3485195e-13
3.6527169e-10
-0.00026559883
1.6235622e-13
-1.0418354e-08
-0.00026539786
-7.1441218e-13
3.2946688e-09
-0.0002658789
-1.7794656e-13
-4.6709731e-08
-0.00026535947
-8.4757892e-15
-0.00026541674
1.1740067e-13
-4.3591682e-08
-0.00026540072
-9.3086959e-13
-7.0483611e-09
-0.00026542988
2.1840555e-13
-7.7425352e-09
-0.00026590865
-8.883394e-13
-3.3127364e-09
-0.00026543128
8.6787579e-14
-4.6241925e-12
-0.00026562697
4.4809772e-13
3.3035795e-09
-0.0002656266
5.7386467e-13
7.7388143e-09
-0.00026543132
-6.6967365e-13
7.0480002e-09
-0.00026590859
-1.1061467e-13
4.3596266e-08
-0.00026542997
-4.9178115e-14
-0.00026540072
1.1194596e-13
6.1412031e-08
-0.00026544668
-1.0640541e-12
-2.2986306e-09
-0.00026536096
8.4030636e-13
1.3563026e-08
-0.00026591214
-1.1423422e-12
1.6631769e-10
-0.00026540692
2.2420391e-13
-4.4658127e-12
-0.00026560874
4.3867217e-13
-1.7407432e-10
-0.00026560837
8.4068481e-13
-1.3568259e-08
-0.00026540694
-4.5008936e-13
2.2981391e-09
-0.00026591206
-1.6197853e-13
-6.140762e-08
-0.000265361
-2.87865e-14
-0.00026544666
1.1743338e-13
-5.7399797e-08
-0.00026541889
-8.5753132e-13
-7.6972307e-09
-0.00026545271
9.547912e-13
-1.0513779e-08
-0.00026594094
-8.6451793e-13
-3.6997099e-09
-0.00026545088
8.9579222e-14
-4.4200448e-12
-0.00026564149
3.3223109e-13
3.6906801e-09
-0.00026564112
1.2983598e-12
1.0509785e-08
-0.0002654509
-4.017357e-13
7.6970616e-09
-0.00026594084
-6.3427686e-14
5.7404277e-08
-0.00026545271
-6.4078029e-14
-0.00026541886
1.1376386e-13
7.9467949e-08
-0.00026547719
-9.8012925e-13
-8.8370984e-10
-0.00026536815
1.6017775e-12
1.7365167e-08
-0.00026593967
-1.1680989e-12
6.7529152e-10
-0.00026542486
2.4270813e-13
-4.2345862e-12
-0.0002656207
2.8153011e-13
-6.8511794e-10
-0.00026562036
1.7581017e-12
-1.7370937e-08
-0.00026542488
-1.4803505e-13
8.8313336e-10
-0.00026593956
-1.1768629e-13
-7.9463679e-08
-0.00026536811
-4.6116387e-14
-0.00026547715
1.1397624e-13
-7.4786797e-08
-0.00026543662
-6.9799289e-13
-8.5454742e-09
-0.00026548474
1.33921e-12
-1.3998416e-08
-0.00026596852
-7.8172838e-13
-4.1283742e-09
-0.00026548157
5.3456471e-14
-4.2796752e-12
-0.00026566212
1.7220229e-13
4.1200235e-09
-0.00026566181
2.080473e-12
1.3994145e-08
-0.00026548158
-1.2835385e-13
8.5455567e-09
-0.00026596841
-1.1080365e-14
7.4791062e-08
-0.00026548467
-6.9303691e-14
-0.00026543658
1.1511708e-13
1.0151743e-07
-0.00026551334
-8.0820536e-13
6.9802758e-10
-0.00026537931
1.9358728e-12
2.1885199e-08
-0.00026596363
-1.1293797e-12
1.3642564e-09
-0.0002654535
2.1836827e-13
-4.0822524e-12
-0.00026564181
6.550283e-14
-1.3753693e-09
-0.00026564155
2.6645649e-12
-2.1891476e-08
-0.0002654535
3.3955233e-13
-6.9836877e-10
-0.0002659635
-6.4479495e-14
-1.0151339e-07
-0.00026537922
-4.7706263e-14
-0.00026551329
1.1581782e-13
-9.6442906e-08
-0.00026545959
-4.941178e-13
-9.6729668e-09
-0.00026552416
1.2687311e-12
-1.8299824e-08
-0.00026599503
-6.3503488e-13
-4.6370545e-09
-0.00026552391
-1.1591347e-14
-4.2560875e-12
-0.00026569549
-3.8495213e-14
4.6298046e-09
-0.00026569528
2.5680963e-12
1.8295336e-08
-0.00026552391
2.3354647e-13
9.6732291e-09
-0.0002659949
7.8986353e-14
9.644695e-08
-0.00026552407
-6.5252369e-14
-0.00026545954
1.1599119e-13
1.2833957e-07
-0.000265563
-5.6848956e-13
2.343446e-09
-0.00026539073
1.7299027e-12
2.7192183e-08
-0.00026598975
-9.9720051e-13
2.2223897e-09
-0.00026549143
1.6386576e-13
-4.0726752e-12
-0.00026567797
-3.9217956e-13
-2.2345448e-09
-0.00026567783
3.0750876e-12
-2.7198915e-08
-0.00026549142
9.7768936e-13
-2.3438275e-09
-0.00026598962
-9.0883792e-15
-1.2833577e-07
-0.00026539063
-4.2106761e-14
-0.00026556295
1.156948e-13
-1.2314634e-07
-0.00026549512
-2.3815954e-13
-1.1175939e-08
-0.00026556813
8.3879031e-13
-2.3506227e-08
-0.0002660276
-4.1411498e-13
-5.2803609e-09
-0.00026557556
-1.1964103e-13
-4.3781562e-12
-0.00026574583
-3.9464469e-13
5.2743669e-09
-0.00026574573
2.3860674e-12
2.3501648e-08
-0.00026557555
6.1469179e-13
1.1176256e-08
-0.00026602747
1.787143e-13
1.2315024e-07
-0.00026556805
-4.6629865e-14
-0.00026549507
1.2064508e-13
1.6089556e-07
-0.00026563438
-2.5540054e-13
4.5129816e-09
-0.00026539934
1.1793873e-12
3.3372605e-08
-0.00026602654
-7.5490015e-13
3.2291175e-09
-0.00026553502
1.2244693e-13
-4.2346364e-12
-0.00026573073
-9.6749463e-13
-3.2422055e-09
-0.00026573069
2.4731171e-12
-3.3379746e-08
-0.000265535
1.4149022e-12
-4.5133895e-09
-0.00026602641
8.1993793e-14
-1.6089188e-07
-0.00026539927
-2.7215019e-14
-0.00026563434
1.1498427e-13
-1.5579372e-07
-0.0002655489
7.2540306e-14
-1.3151567e-08
-0.00026561547
4.877092e-13
-2.9688396e-08
-0.0002660747
-1.2420987e-13
-6.1076494e-09
-0.00026563313
-2.4037537e-13
-4.6132029e-12
-0.00026581223
-6.7568047e-13
6.1029002e-09
-0.00026581222
1.4550482e-12
2.9683885e-08
-0.00026563311
7.9501916e-13
1.3151841e-08
-0.00026607458
2.6137584e-13
1.5579757e-07
-0.00026561541
-2.7176736e-14
-0.00026554887
1.2073108e-13
2.0034854e-07
-0.00026573166
1.4559798e-13
7.2257514e-09
-0.0002654042
8.5217252e-13
4.0540624e-08
-0.00026608211
-4.1711542e-13
4.3590177e-09
-0.0002655811
1.075565e-13
-4.5063506e-12
-0.00026579575
-1.43598e-12
-4.3731106e-09
-0.00026579575
1.2046734e-12
-4.0548171e-08
-0.00026558108
1.5878349e-12
-7.2262045e-09
-0.000266082
1.5242426e-13
-2.0034488e-07
-0.00026540415
-1.5924177e-14
-0.00026573163
1.150078e-13
-1.954549e-07
-0.00026562104
5.7102639e-13
-1.5691589e-08
-0.00026566717
3.4737847e-13
-3.6906073e-08
-0.00026614209
3.2838157e-13
-7.1459545e-09
-0.00026569455
-3.9409e-13
-4.864009e-12
-0.000265889
-7.7768698e-13
7.1424204e-09
-0.00026588901
6.1875607e-13
3.6901785e-08
-0.00026569453
8.6199218e-13
1.5691759e-08
-0.00026614199
3.1028198e-13
1.954587e-07
-0.00026566713
-8.2692564e-15
-0.00026562102
1.2119577e-13
2.4805604e-07
-0.00026585189
7.0400538e-13
1.0530006e-08
-0.00026540612
7.2912648e-13
4.8827283e-08
-0.00026615856
-7.3712988e-14
5.6114018e-09
-0.00026562901
1.4875919e-13
-4.7098505e-12
-0.00026586568
-1.6975432e-12
-5.6267774e-09
-0.00026586568
1.9143752e-13
-4.8835313e-08
-0.00026562898
1.5206771e-12
-1.0530491e-08
-0.00026615846
1.7020239e-13
-2.4805234e-07
-0.00026540608
-1.0127191e-14
-0.00026585188
1.0908698e-13
-2.434341e-07
-0.00026570518
9.6926956e-13
-1.8881957e-08
-0.00026572515
3.8681207e-13
-4.5220583e-08
-0.00026622838
8.6173504e-13
-8.396798e-09
-0.00026576001
-6.0161859e-13
-5.0342457e-12
-0.0002659696
-6.7782853e-13
8.3945453e-09
-0.00026596959
-3.7273821e-14
4.5216661e-08
-0.00026575998
9.7320034e-13
1.888198e-08
-0.00026622828
3.2780067e-13
2.4343779e-07
-0.00026572511
2.3680268e-14
-0.00026570517
1.2174249e-13
3.0555585e-07
-0.00026598755
9.4819888e-13
1.4504858e-08
-0.0002654054
7.4358358e-13
5.8340525e-08
-0.00026624937
2.9439645e-13
7.0291551e-09
-0.00026568
2.7328345e-13
-4.6799874e-12
-0.00026593572
-1.7284091e-12
-7.0461679e-09
-0.00026593569
-9.0073437e-13
-5.8349202e-08
-0.00026567996
1.2978932e-12
-1.4505312e-08
-0.00026624927
1.4019667e-13
-3.0555211e-07
-0.00026540535
-1.3695709e-14
-0.00026598754
9.7742679e-14
-3.0130999e-07
-0.00026579278
1.2495413e-12
-2.2807733e-08
-0.00026579016
5.4772257e-13
-5.4701485e-08
-0.00026632537
1.2181481e-12
-9.853414e-09
-0.00026583053
-9.4942271e-13
-5.147462e-12
-0.00026605107
-4.1161502e-13
9.8526711e-09
-0.00026605104
-7.3281423e-13
5.4698095e-08
-0.00026583049
1.2776222e-12
2.2807537e-08
-0.00026632528
3.282988e-13
3.0131343e-07
-0.00026579011
7.2860559e-14
-0.00026579277
1.2228736e-13
3.7459257e-07
-0.00026613371
7.8708188e-13
1.9266077e-08
-0.00026540025
6.8367834e-13
6.9120439e-08
-0.00026634445
3.4083256e-13
8.6791483e-09
-0.00026573515
4.7656619e-13
-4.466867e-12
-0.00026600638
-1.6119239e-12
-8.6980845e-09
-0.00026600634
-1.0578779e-12
-6.9129976e-08
-0.0002657351
9.3227583e-13
-1.9266415e-08
-0.00026634435
9.2267405e-14
-3.7458879e-07
-0.00026540019
-2.8489199e-14
-0.0002661337
8.5100024e-14
-3.7094756e-07
-0.00026587916
1.5131403e-12
-2.7565296e-08
-0.0002658613
7.769709e-13
-6.5410562e-08
-0.0002664244
1.4163371e-12
-1.15263e-08
-0.00026590629
-1.5483466e-12
-5.3174607e-12
-0.00026613461
-8.8679322e-15
1.1527426e-08
-0.00026613457
-1.286222e-12
6.5407929e-08
-0.00026590623
1.8896661e-12
2.7564745e-08
-0.00026642429
3.2388867e-13
3.7095065e-07
-0.00026586123
1.3201156e-13
-0.00026587915
1.2182253e-13
4.5720859e-07
-0.00026629263
2.9704342e-13
2.4952367e-08
-0.00026538772
3.8199617e-13
8.1128707e-08
-0.00026643872
-2.0004538e-14
1.0613506e-08
-0.00026579437
7.811235e-13
-4.2058585e-12
-0.00026608094
-1.5184132e-12
-1.0634581e-08
-0.0002660809
-4.0492217e-13
-8.1139317e-08
-0.00026579431
3.2269668e-13
-2.4952469e-08
-0.00026643861
5.9069308e-14
-4.5720474e-07
-0.00026538765
-7.3920265e-14
-0.00026629261
6.3722261e-14
-4.5451597e-07
-0.00026596513
1.8634589e-12
-3.3275031e-08
-0.00026593733
1.1527329e-12
-7.7364328e-08
-0.00026652246
1.5172525e-12
-1.3450378e-08
-0.00026598636
-2.5038e-12
-5.5975728e-12
-0.00026622235
6.4379665e-13
1.3453772e-08
-0.00026622232
-2.1917684e-12
7.7362719e-08
-0.0002659863
2.9376512e-12
3.3273911e-08
-0.00026652234
3.3198347e-13
4.545186e-07
-0.00026593726
2.321826e-13
-0.00026596511
1.2897939e-13
5.5586801e-07
-0.00026647088
-3.4182436e-13
3.170656e-08
-0.00026536547
-8.9234662e-14
9.4270548e-08
-0.00026653453
-4.2880172e-13
1.2855006e-08
-0.0002658572
1.3217329e-12
-3.9212052e-12
-0.00026616127
-1.6714204e-12
-1.2878444e-08
-0.00026616124
5.8892579e-13
-9.4282422e-08
-0.00026585713
-7.9508697e-13
-3.1706225e-08
-0.00026653441
6.3539258e-14
-5.5586406e-07
-0.00026536538
-1.6143082e-13
-0.00026647086
3.3626669e-14
-5.5455786e-07
-0.00026605323
2.3117795e-12
-4.0080773e-08
-0.00026601805
1.835082e-12
-9.05019e-08
-0.00026662169
1.4783636e-12
-1.5667005e-08
-0.00026606982
-3.9743869e-12
-5.9441895e-12
-0.00026631469
1.6880104e-12
1.5673069e-08
-0.00026631467
-3.7179046e-12
9.0501581e-08
-0.00026606975
4.643922e-12
4.0078773e-08
-0.00026662155
3.4238876e-13
5.5455994e-07
-0.00026601796
3.6911783e-13
-0.0002660532
1.3385718e-13
6.7356164e-07
-0.00026667392
-1.0478324e-12
3.9672264e-08
-0.0002653323
-8.5080529e-13
1.0840316e-07
-0.00026663618
-7.0369037e-13