/*--------------------------------*- C++ -*----------------------------------*\
  =========                 |
  \\      /  F ield         | OpenFOAM: The Open Source CFD Toolbox
   \\    /   O peration     | Website:  https://openfoam.org
    \\  /    A nd           | Version:  8
     \\/     M anipulation  |
\*---------------------------------------------------------------------------*/
FoamFile
{
    version     2.0;
    format      ascii;
    class       volVectorField;
    location    "0.6";
    object      U;
}
// * * * * * * * * * * * * * * * * * * * * * * * * * * * * * * * * * * * * * //

dimensions      [0 1 -1 0 0 0 0];

internalField   nonuniform List<vector> 
2000
(
(-1.6527274e-05 -0.0015157018 -3.1571061e-05)
(-2.634087e-06 -0.0015156836 -3.1599606e-05)
(-5.4430254e-07 -0.0015156793 -3.1599431e-05)
(3.9992755e-07 -0.0015157001 -3.1599485e-05)
(-9.7167661e-07 -0.0015156935 -3.1599459e-05)
(9.6591633e-07 -0.0015156935 -3.1599452e-05)
(-4.0233648e-07 -0.0015157 -3.1599453e-05)
(5.4479733e-07 -0.0015156794 -3.1599435e-05)
(2.6360671e-06 -0.0015156836 -3.1599611e-05)
(1.6527482e-05 -0.0015157018 -3.1571061e-05)
(-2.7326163e-05 -0.0039153611 -5.1758767e-05)
(-5.646625e-06 -0.003916186 -5.1814654e-05)
(-1.2117525e-06 -0.0039158226 -5.1814278e-05)
(8.8999802e-07 -0.0039158049 -5.1814157e-05)
(-2.140699e-06 -0.0039158069 -5.1814193e-05)
(2.1357227e-06 -0.003915807 -5.1814187e-05)
(-8.9197191e-07 -0.0039158048 -5.181413e-05)
(1.2120147e-06 -0.0039158226 -5.1814283e-05)
(5.6483948e-06 -0.0039161859 -5.1814659e-05)
(2.7326245e-05 -0.0039153611 -5.1758766e-05)
(-1.4618485e-05 -0.0043379631 -2.5665179e-05)
(-6.8815656e-06 -0.0043394482 -2.5704148e-05)
(-1.5113456e-06 -0.0043388701 -2.5703965e-05)
(1.0323733e-06 -0.0043387826 -2.5703885e-05)
(-2.5807977e-06 -0.0043388017 -2.5703914e-05)
(2.5758044e-06 -0.0043388019 -2.5703908e-05)
(-1.0342929e-06 -0.0043387825 -2.5703856e-05)
(1.5115686e-06 -0.0043388702 -2.570397e-05)
(6.883345e-06 -0.0043394481 -2.5704152e-05)
(1.4618608e-05 -0.0043379631 -2.5665178e-05)
(-6.5550518e-06 -0.0043441243 -9.4077512e-06)
(-7.2514073e-06 -0.0043458375 -9.4270578e-06)
(-1.6238581e-06 -0.004345263 -9.4271342e-06)
(1.0650679e-06 -0.0043451017 -9.4271203e-06)
(-2.7249919e-06 -0.0043451394 -9.4271253e-06)
(2.7200044e-06 -0.0043451397 -9.4271201e-06)
(-1.0669357e-06 -0.0043451015 -9.4270891e-06)
(1.6240781e-06 -0.0043452631 -9.4271386e-06)
(7.2531699e-06 -0.0043458374 -9.4270618e-06)
(6.5552118e-06 -0.0043441243 -9.4077509e-06)
(-3.2397046e-06 -0.0043667751 -2.8898669e-06)
(-7.2791374e-06 -0.0043687192 -2.8987156e-06)
(-1.6524949e-06 -0.0043681622 -2.8986556e-06)
(1.0711152e-06 -0.0043679152 -2.8987026e-06)
(-2.7661478e-06 -0.0043679757 -2.8986982e-06)
(2.7611699e-06 -0.004367976 -2.8986934e-06)
(-1.0729436e-06 -0.0043679149 -2.8986699e-06)
(1.6527228e-06 -0.0043681622 -2.89866e-06)
(7.2808927e-06 -0.0043687191 -2.898719e-06)
(3.2398876e-06 -0.0043667751 -2.889867e-06)
(-2.0788884e-06 -0.0043571095 -7.9525545e-07)
(-7.1846783e-06 -0.0043591566 -7.9986023e-07)
(-1.655017e-06 -0.0043586753 -7.9996492e-07)
(1.0735045e-06 -0.0043583487 -7.999028e-07)
(-2.777114e-06 -0.0043584296 -7.9993471e-07)
(2.7721411e-06 -0.00435843 -7.9993017e-07)
(-1.07531e-06 -0.0043583484 -7.9986923e-07)
(1.6552501e-06 -0.0043586754 -7.9996919e-07)
(7.1864321e-06 -0.0043591565 -7.9986315e-07)
(2.0790792e-06 -0.0043571096 -7.9525566e-07)
(-1.6380488e-06 -0.0043604528 -1.6327913e-07)
(-7.0587499e-06 -0.0043626489 -1.6644555e-07)
(-1.6465032e-06 -0.0043622293 -1.66466e-07)
(1.0765608e-06 -0.0043618087 -1.6644896e-07)
(-2.7804393e-06 -0.004361916 -1.6645961e-07)
(2.7754678e-06 -0.0043619165 -1.6645538e-07)
(-1.0783536e-06 -0.0043618084 -1.6641527e-07)
(1.6467367e-06 -0.0043622293 -1.6647015e-07)
(7.0605044e-06 -0.0043626487 -1.6644805e-07)
(1.6382406e-06 -0.0043604528 -1.6327928e-07)
(-1.4525036e-06 -0.0043625172 -6.1225009e-08)
(-6.9215233e-06 -0.0043648199 -6.383226e-08)
(-1.6372749e-06 -0.0043644785 -6.3914789e-08)
(1.0808677e-06 -0.0043639768 -6.3877503e-08)
(-2.782464e-06 -0.004364105 -6.3897914e-08)
(2.7774917e-06 -0.0043641056 -6.3894264e-08)
(-1.0826523e-06 -0.0043639764 -6.3843932e-08)
(1.6375066e-06 -0.0043644786 -6.3919074e-08)
(6.923278e-06 -0.0043648197 -6.3834292e-08)
(1.452693e-06 -0.0043625173 -6.122503e-08)
(-1.2836783e-06 -0.0043570358 1.3293383e-08)
(-6.7851367e-06 -0.004359453 1.0882822e-08)
(-1.625581e-06 -0.0043591956 1.0854882e-08)
(1.0858985e-06 -0.0043585868 1.0876348e-08)
(-2.7842294e-06 -0.0043587473 1.0863484e-08)
(2.7792554e-06 -0.004358748 1.0866535e-08)
(-1.0876755e-06 -0.0043585863 1.0909482e-08)
(1.625809e-06 -0.0043591957 1.0850616e-08)
(6.7868921e-06 -0.0043594528 1.0881308e-08)
(1.2838647e-06 -0.0043570359 1.3293477e-08)
(-1.1651331e-06 -0.0043659728 -2.2793842e-08)
(-6.6468052e-06 -0.0043685143 -2.4964428e-08)
(-1.614903e-06 -0.0043683286 -2.5058196e-08)
(1.0924068e-06 -0.0043676414 -2.5006756e-08)
(-2.7867268e-06 -0.0043678217 -2.5033168e-08)
(2.7817508e-06 -0.0043678224 -2.5030604e-08)
(-1.0941765e-06 -0.0043676408 -2.4973762e-08)
(1.615127e-06 -0.0043683288 -2.5062313e-08)
(6.6485609e-06 -0.0043685141 -2.4965365e-08)
(1.1653155e-06 -0.0043659729 -2.2793485e-08)
(-1.0131727e-06 -0.0043546674 1.6185646e-08)
(-6.510983e-06 -0.0043572837 1.4118441e-08)
(-1.6025347e-06 -0.0043572113 1.4097054e-08)
(1.0991576e-06 -0.0043563941 1.4107242e-08)
(-2.788986e-06 -0.0043566172 1.4099673e-08)
(2.7840079e-06 -0.004356618 1.41015e-08)
(-1.1009189e-06 -0.0043563935 1.4139798e-08)
(1.6027533e-06 -0.0043572114 1.4092928e-08)
(6.5127394e-06 -0.0043572835 1.4118377e-08)
(1.0133511e-06 -0.0043546675 1.6186331e-08)
(-8.9095972e-07 -0.0043692835 -1.6095516e-08)
(-6.3738878e-06 -0.0043720543 -1.7897276e-08)
(-1.5911242e-06 -0.0043720362 -1.8016463e-08)
(1.1081934e-06 -0.0043711548 -1.7939775e-08)
(-2.7926949e-06 -0.0043713919 -1.7976988e-08)
(2.7877142e-06 -0.0043713927 -1.7975774e-08)
(-1.109946e-06 -0.0043711541 -1.7907464e-08)
(1.591337e-06 -0.0043720364 -1.8020654e-08)
(6.3756444e-06 -0.0043720541 -1.7896527e-08)
(8.9113367e-07 -0.0043692837 -1.609454e-08)
(-7.466417e-07 -0.0043516155 8.1055616e-09)
(-6.2396239e-06 -0.0043543975 6.3374177e-09)
(-1.5780972e-06 -0.0043545418 6.3424665e-09)
(1.1164901e-06 -0.0043534891 6.3251514e-09)
(-2.7953854e-06 -0.0043537884 6.3308213e-09)
(2.7904023e-06 -0.0043537893 6.3308691e-09)
(-1.1182324e-06 -0.0043534883 6.3568362e-09)
(1.5783024e-06 -0.004354542 6.3382887e-09)
(6.2413813e-06 -0.0043543973 6.3390839e-09)
(7.4681089e-07 -0.0043516157 8.1069977e-09)
(-6.1179347e-07 -0.0043742914 -5.8551112e-09)
(-6.1036277e-06 -0.0043772892 -7.2511718e-09)
(-1.5661487e-06 -0.0043774443 -7.4225026e-09)
(1.1287984e-06 -0.004376367 -7.2969549e-09)
(-2.8009265e-06 -0.0043766637 -7.354735e-09)
(2.7959407e-06 -0.0043766647 -7.3555467e-09)
(-1.1305309e-06 -0.0043763662 -7.2657066e-09)
(1.5663458e-06 -0.0043774445 -7.4264971e-09)
(6.1053852e-06 -0.004377289 -7.2487334e-09)
(6.1195835e-07 -0.0043742915 -5.8534887e-09)
(-4.8176831e-07 -0.0043457491 -5.9869226e-09)
(-5.9716382e-06 -0.0043486426 -7.5057838e-09)
(-1.5523364e-06 -0.00434905 -7.434986e-09)
(1.1380587e-06 -0.004347723 -7.5144889e-09)
(-2.8035984e-06 -0.0043481189 -7.4795856e-09)
(2.7986103e-06 -0.0043481199 -7.4817042e-09)
(-1.139779e-06 -0.0043477222 -7.4836151e-09)
(1.5525227e-06 -0.0043490502 -7.439091e-09)
(5.9733966e-06 -0.0043486425 -7.5020707e-09)
(4.8192835e-07 -0.0043457493 -5.9849036e-09)
(-3.240542e-07 -0.0043836384 1.2044011e-08)
(-5.8361926e-06 -0.0043868775 1.1125536e-08)
(-1.5401557e-06 -0.0043871958 1.085041e-08)
(1.1550128e-06 -0.0043859376 1.1072276e-08)
(-2.8121367e-06 -0.0043862913 1.0973377e-08)
(2.8071459e-06 -0.0043862924 1.0969808e-08)
(-1.1567229e-06 -0.0043859367 1.1102378e-08)
(1.5403319e-06 -0.0043871961 1.0846437e-08)
(5.8379501e-06 -0.0043868774 1.1130451e-08)
(3.2421055e-07 -0.0043836387 1.2046507e-08)
(-2.2136891e-07 -0.0043336583 -3.0504896e-08)
(-5.7075611e-06 -0.0043365734 -3.1869268e-08)
(-1.5253314e-06 -0.0043373166 -3.1656461e-08)
(1.1637092e-06 -0.0043356555 -3.1866365e-08)
(-2.8136245e-06 -0.00433618 -3.177015e-08)
(2.8086316e-06 -0.0043361811 -3.1775515e-08)
(-1.1654055e-06 -0.0043356545 -3.183648e-08)
(1.5254933e-06 -0.0043373169 -3.1659882e-08)
(5.7093201e-06 -0.0043365734 -3.1862466e-08)
(2.2152007e-07 -0.0043336586 -3.0501529e-08)
(-2.1709955e-08 -0.004401822 4.4202767e-08)
(-5.5714649e-06 -0.0044053513 4.3897063e-08)
(-1.5134832e-06 -0.0044057911 4.3416258e-08)
(1.187985e-06 -0.0044043994 4.3827558e-08)
(-2.82745e-06 -0.004404795 4.3646804e-08)
(2.8224547e-06 -0.0044047962 4.3639796e-08)
(-1.1896718e-06 -0.0044043983 4.3856355e-08)
(1.5136317e-06 -0.0044057914 4.3413044e-08)
(5.5732224e-06 -0.0044053514 4.3905397e-08)
(2.1859195e-08 -0.0044018222 4.4206795e-08)
(2.8267288e-08 -0.0043093566 -7.4547063e-08)
(-5.4480415e-06 -0.0043121423 -7.5935892e-08)
(-1.4971859e-06 -0.0043133416 -7.5435862e-08)
(1.192648e-06 -0.0043112454 -7.5908202e-08)
(-2.8250658e-06 -0.0043119513 -7.5690404e-08)
(2.8200691e-06 -0.0043119524 -7.569949e-08)
(-1.1943182e-06 -0.0043112444 -7.5879697e-08)
(1.4973143e-06 -0.0043133419 -7.5438362e-08)
(5.4498021e-06 -0.0043121425 -7.5925257e-08)
(-2.8123301e-08 -0.004309357 -7.4541886e-08)
(3.0624542e-07 -0.0044368036 1.029132e-07)
(-5.3089101e-06 -0.0044407405 1.0346835e-07)
(-1.4867099e-06 -0.0044412 1.0259043e-07)
(1.2296016e-06 -0.0044397812 1.033684e-07)
(-2.8487254e-06 -0.0044401786 1.0302742e-07)
(2.8437265e-06 -0.0044401799 1.0301624e-07)
(-1.2312646e-06 -0.0044397799 1.0339542e-07)
(1.4868226e-06 -0.0044412003 1.0258848e-07)
(5.3106666e-06 -0.0044407407 1.0348129e-07)
(-3.0610008e-07 -0.0044368039 1.0291955e-07)
(2.5494864e-07 -0.0042623133 -1.5439655e-07)
(-5.1939983e-06 -0.0042647161 -1.5613278e-07)
(-1.4679739e-06 -0.0042665757 -1.5508361e-07)
(1.222911e-06 -0.0042638687 -1.5605737e-07)
(-2.8366838e-06 -0.0042648438 -1.5560855e-07)
(2.8316851e-06 -0.0042648448 -1.5562269e-07)
(-1.2245536e-06 -0.0042638677 -1.5603065e-07)
(1.4680593e-06 -0.0042665761 -1.5508479e-07)
(5.1957603e-06 -0.0042647166 -1.5611665e-07)
(-2.5480923e-07 -0.0042623138 -1.5438892e-07)
(6.7895466e-07 -0.0045023648 2.0935981e-07)
(-5.0473896e-06 -0.0045069467 2.112081e-07)
(-1.4607517e-06 -0.00450722 2.0959149e-07)
(1.2831952e-06 -0.0045059806 2.1105226e-07)
(-2.879118e-06 -0.0045062956 2.1041018e-07)
(2.8741175e-06 -0.0045062969 2.103937e-07)
(-1.2848357e-06 -0.0045059792 2.1107733e-07)
(1.4608191e-06 -0.0045072204 2.0959214e-07)
(5.0491436e-06 -0.0045069471 2.1122726e-07)
(-6.7880825e-07 -0.0045023652 2.0936927e-07)
(4.3682974e-07 -0.0041747368 -2.9706447e-07)
(-4.9468927e-06 -0.0041763422 -2.9969373e-07)
(-1.4376334e-06 -0.004179203 -2.9765364e-07)
(1.2505118e-06 -0.0041755843 -2.9953363e-07)
(-2.8456533e-06 -0.0041769733 -2.9866952e-07)
(2.8406552e-06 -0.0041769742 -2.9868972e-07)
(-1.2521256e-06 -0.0041755833 -2.9950908e-07)
(1.4376637e-06 -0.0041792033 -2.9765178e-07)
(4.9486563e-06 -0.004176343 -2.9966996e-07)
(-4.3669146e-07 -0.0041747373 -2.9705279e-07)
(1.1278619e-06 -0.0046210763 3.9720154e-07)
(-4.7849284e-06 -0.0046267292 4.0103987e-07)
(-1.4369943e-06 -0.0046264484 3.981307e-07)
(1.3546712e-06 -0.0046257485 4.0078852e-07)
(-2.9239647e-06 -0.0046258264 3.9961421e-07)
(2.9189662e-06 -0.0046258279 3.9959146e-07)
(-1.3562935e-06 -0.0046257469 4.0081005e-07)
(1.4370069e-06 -0.004626449 3.9813474e-07)
(4.7866759e-06 -0.0046267298 4.0106761e-07)
(-1.1277069e-06 -0.0046210767 3.9721553e-07)
(5.3804884e-07 -0.0040185631 -5.4343894e-07)
(-4.7090679e-06 -0.0040187278 -5.4780238e-07)
(-1.4057913e-06 -0.0040231282 -5.4409411e-07)
(1.2682414e-06 -0.0040181137 -5.4750252e-07)
(-2.846492e-06 -0.0040201437 -5.459395e-07)
(2.8414992e-06 -0.0040201444 -5.4596687e-07)
(-1.2698264e-06 -0.0040181128 -5.4748166e-07)
(1.4057519e-06 -0.0040231285 -5.4408842e-07)
(4.7108345e-06 -0.004018729 -5.4776856e-07)
(-5.3790729e-07 -0.0040185637 -5.4342172e-07)
(1.7007955e-06 -0.0048270108 7.1464817e-07)
(-4.5184348e-06 -0.0048344153 7.2148801e-07)
(-1.417442e-06 -0.0048329962 7.1648887e-07)
(1.4539657e-06 -0.0048333982 7.210815e-07)
(-2.9919409e-06 -0.0048329906 7.1904213e-07)
(2.9869487e-06 -0.0048329922 7.1901224e-07)
(-1.4555768e-06 -0.0048333963 7.210989e-07)
(1.4173878e-06 -0.0048329969 7.1649832e-07)
(4.5201724e-06 -0.0048344161 7.2152693e-07)
(-1.7006216e-06 -0.0048270113 7.1466846e-07)
(5.0546302e-07 -0.0037534703 -9.4850325e-07)
(-4.4841637e-06 -0.0037512722 -9.5575384e-07)
(-1.3715308e-06 -0.00375799 -9.4946667e-07)
(1.2643555e-06 -0.0037508729 -9.55238e-07)
(-2.8298676e-06 -0.0037538711 -9.5259439e-07)
(2.8248853e-06 -0.0037538714 -9.5263039e-07)
(-1.2659112e-06 -0.0037508723 -9.5522151e-07)
(1.3714038e-06 -0.0037579902 -9.494553e-07)
(4.4859363e-06 -0.0037512739 -9.557063e-07)
(-5.0531327e-07 -0.0037534711 -9.4847901e-07)
(2.4637113e-06 -0.0051665526 1.2221654e-06)
(-4.2433936e-06 -0.0051766751 1.2333018e-06)
(-1.4048941e-06 -0.0051732963 1.2252214e-06)
(1.5963685e-06 -0.0051755817 1.232665e-06)
(-3.0961406e-06 -0.005174337 1.2293442e-06)
(3.0911602e-06 -0.0051743387 1.2293057e-06)
(-1.5979786e-06 -0.0051755795 1.2326766e-06)
(1.4047623e-06 -0.0051732972 1.2252377e-06)
(4.2451138e-06 -0.005176676 1.2333557e-06)
(-2.4635046e-06 -0.0051665531 1.2221941e-06)
(2.6872207e-07 -0.0033275955 -1.5762079e-06)
(-4.2775672e-06 -0.0033218292 -1.5877286e-06)
(-1.3331607e-06 -0.0033318758 -1.5778183e-06)
(1.2216499e-06 -0.0033217335 -1.5869028e-06)
(-2.7817128e-06 -0.0033261248 -1.5827408e-06)
(2.7767483e-06 -0.0033261246 -1.5827868e-06)
(-1.223176e-06 -0.0033217332 -1.5868923e-06)
(1.3329265e-06 -0.0033318759 -1.5777996e-06)
(4.2793499e-06 -0.0033218315 -1.5876627e-06)
(-2.6855903e-07 -0.0033275964 -1.5761738e-06)
(3.498456e-06 -0.0056960388 1.9846982e-06)
(-3.9535286e-06 -0.0057101084 2.0015874e-06)
(-1.4031024e-06 -0.005703745 1.989379e-06)
(1.8031234e-06 -0.0057088779 2.0006334e-06)
(-3.2546331e-06 -0.0057063564 1.9955912e-06)
(3.2496719e-06 -0.0057063582 1.9955424e-06)
(-1.8047472e-06 -0.0057088754 2.0006368e-06)
(1.4028817e-06 -0.005703746 1.9894051e-06)
(3.9552229e-06 -0.0057101096 2.0016624e-06)
(-3.4981979e-06 -0.0056960394 1.9847384e-06)
(-2.5571917e-07 -0.0026813552 -2.4898613e-06)
(-4.0968026e-06 -0.0026705759 -2.5071199e-06)
(-1.287996e-06 -0.0026851421 -2.492569e-06)
(1.1174204e-06 -0.0026708895 -2.5058792e-06)
(-2.6830796e-06 -0.0026771745 -2.4997731e-06)
(2.6781417e-06 -0.0026771736 -2.4998312e-06)
(-1.118917e-06 -0.0026708896 -2.5058776e-06)
(1.2876303e-06 -0.0026851421 -2.4925398e-06)
(4.0986031e-06 -0.0026705789 -2.5070287e-06)
(2.5590141e-07 -0.0026813562 -2.4898142e-06)
(4.8978406e-06 -0.0064769439 3.0614931e-06)
(-3.6403308e-06 -0.006496391 3.0856017e-06)
(-1.4168602e-06 -0.0064858854 3.0683272e-06)
(2.1011317e-06 -0.0064949399 3.0842397e-06)
(-3.4903567e-06 -0.0064906466 3.0770808e-06)
(3.4854234e-06 -0.0064906485 3.0770198e-06)
(-2.1027894e-06 -0.0064949369 3.0842319e-06)
(1.4165402e-06 -0.0064858867 3.0683656e-06)
(3.6419873e-06 -0.0064963924 3.0857026e-06)
(-4.8975073e-06 -0.0064769444 3.0615476e-06)
(-1.1592635e-06 -0.0017526376 -3.7427534e-06)
(-3.9519312e-06 -0.0017352241 -3.7671645e-06)
(-1.2321416e-06 -0.0017556042 -3.7471292e-06)
(9.2419458e-07 -0.001736068 -3.7654044e-06)
(-2.5106763e-06 -0.0017447914 -3.7570027e-06)
(2.5057762e-06 -0.0017447897 -3.7570746e-06)
(-9.2566143e-07 -0.0017360687 -3.7654155e-06)
(1.231618e-06 -0.0017556039 -3.7470884e-06)
(3.9537582e-06 -0.0017352279 -3.7670436e-06)
(1.1594707e-06 -0.0017526386 -3.7426907e-06)
(6.7611342e-06 -0.0075709256 4.4986542e-06)
(-3.2925375e-06 -0.0075973201 4.5313679e-06)
(-1.4521072e-06 -0.0075814537 4.5083029e-06)
(2.5220913e-06 -0.0075955407 4.5295061e-06)
(-3.8305867e-06 -0.0075889588 4.5199283e-06)
(3.825692e-06 -0.0075889608 4.5198525e-06)
(-2.5238082e-06 -0.0075955374 4.5294832e-06)
(1.4516781e-06 -0.0075814551 4.5083571e-06)
(3.2941423e-06 -0.0075973217 4.5315002e-06)
(-6.760697e-06 -0.0075709262 4.4987265e-06)
(-2.5377593e-06 -0.0004810561 -5.3732918e-06)
(-3.8559614e-06 -0.00045525818 -5.4061494e-06)
(-1.1602748e-06 -0.00048278876 -5.3800332e-06)
(6.1063041e-07 -0.00045676967 -5.4037744e-06)
(-2.2375768e-06 -0.00046849377 -5.3928284e-06)
(2.2327264e-06 -0.00046849099 -5.3929166e-06)
(-6.1206756e-07 -0.00045677106 -5.4038028e-06)
(1.1595643e-06 -0.00048278819 -5.3799778e-06)
(3.8578263e-06 -0.00045526283 -5.4059944e-06)
(2.5379983e-06 -0.0004810572 -5.3732102e-06)
(9.1924844e-06 -0.009036519 6.3269507e-06)
(-2.8954778e-06 -0.0090715319 6.3695239e-06)
(-1.5161108e-06 -0.0090490707 6.3401999e-06)
(3.1016899e-06 -0.0090692902 6.3670861e-06)
(-4.3064054e-06 -0.0090599028 6.3548901e-06)
(4.3015621e-06 -0.0090599049 6.3547969e-06)
(-3.1034975e-06 -0.0090692864 6.3670421e-06)
(1.5155661e-06 -0.0090490723 6.3402713e-06)
(2.8970127e-06 -0.0090715337 6.3696898e-06)
(-9.1919085e-06 -0.0090365195 6.3270441e-06)
(-4.4912361e-06 0.0011897366 -7.4050685e-06)
(-3.8253659e-06 0.0012257708 -7.4475387e-06)
(-1.0653653e-06 0.0011897476 -7.4149952e-06)
(1.4213492e-07 0.0012234378 -7.4444722e-06)
(-1.8336834e-06 0.001208151 -7.4308366e-06)
(1.8288973e-06 0.001208155 -7.4309428e-06)
(-1.4354343e-07 0.0012234356 -7.4445229e-06)
(1.0644389e-06 0.0011897486 -7.4149227e-06)
(3.8272817e-06 0.0012257653 -7.4473504e-06)
(4.4915132e-06 0.0011897355 -7.404965e-06)
(1.2301696e-05 -0.010927707 8.5635081e-06)
(-2.4305361e-06 -0.010973101 8.6171002e-06)
(-1.6176608e-06 -0.010942814 8.5812704e-06)
(3.8791662e-06 -0.010970232 8.6140144e-06)
(-4.9523596e-06 -0.010957531 8.5990981e-06)
(4.947583e-06 -0.010957534 8.5989858e-06)
(-3.8811041e-06 -0.010970228 8.6139435e-06)
(1.6169988e-06 -0.010942816 8.5813616e-06)
(2.4319802e-06 -0.010973103 8.6172953e-06)
(-1.2300943e-05 -0.010927708 8.5636257e-06)
(-7.1257594e-06 0.0033113387 -9.8495648e-06)
(-3.8806072e-06 0.0033595504 -9.9027117e-06)
(-9.3828672e-07 0.0033137054 -9.8636146e-06)
(-5.1881674e-07 0.0033562248 -9.8989031e-06)
(-1.2658266e-06 0.0033368258 -9.8825218e-06)
(1.2611235e-06 0.0033368312 -9.8826462e-06)
(5.1743432e-07 0.0033562216 -9.8989822e-06)
(9.3711768e-07 0.0033137068 -9.8635247e-06)
(3.8825884e-06 0.0033595441 -9.902501e-06)
(7.1260773e-06 0.0033113375 -9.849438e-06)
(1.6206265e-05 -0.013293736 1.121498e-05)
(-1.8746465e-06 -0.013351377 1.1280685e-05)
(-1.7672822e-06 -0.013312033 1.1238287e-05)
(4.8972662e-06 -0.013347679 1.1276891e-05)
(-5.8062246e-06 -0.013331163 1.1259229e-05)
(5.8015352e-06 -0.013331165 1.1259098e-05)
(-4.8993847e-06 -0.013347675 1.1276788e-05)
(1.7665097e-06 -0.013312035 1.1238398e-05)
(1.8759761e-06 -0.013351379 1.1280892e-05)
(-1.6205295e-05 -0.013293737 1.1215124e-05)
(-1.0556292e-05 0.0059307746 -1.2709379e-05)
(-4.0466788e-06 0.0059931876 -1.2774202e-05)
(-7.6731361e-07 0.0059362149 -1.2728604e-05)
(-1.4125819e-06 0.0059886799 -1.2769633e-05)
(-4.9745947e-07 0.0059646441 -1.2750518e-05)
(4.9286308e-07 0.0059646512 -1.2750656e-05)
(1.4112214e-06 0.0059886756 -1.2769744e-05)
(7.658817e-07 0.0059362167 -1.2728498e-05)
(4.0487422e-06 0.0059931806 -1.2773993e-05)
(1.0556646e-05 0.0059307734 -1.2709229e-05)
(2.1033512e-05 -0.016179511 1.4280637e-05)
(-1.1998315e-06 -0.0162514 1.4359528e-05)
(-1.9775017e-06 -0.016201744 1.4310634e-05)
(6.2024419e-06 -0.016246627 1.4354974e-05)
(-6.9086765e-06 -0.016225787 1.43346e-05)
(6.9041018e-06 -0.016225788 1.4334457e-05)
(-6.2048027e-06 -0.016246622 1.4354837e-05)
(1.9766391e-06 -0.016201746 1.4310765e-05)
(1.20102e-06 -0.016251401 1.4359718e-05)
(-2.1032288e-05 -0.016179511 1.4280806e-05)
(-1.4910278e-05 0.0090910199 -1.5981108e-05)
(-4.3537891e-06 0.0091697332 -1.605858e-05)
(-5.3755464e-07 0.0091003619 -1.6006672e-05)
(-2.5825188e-06 0.0091638318 -1.6053268e-05)
(5.1206735e-07 0.0091346755 -1.6031482e-05)
(-5.1652658e-07 0.0091346846 -1.6031619e-05)
(2.5811751e-06 0.0091638264 -1.6053406e-05)
(5.3585252e-07 0.0091003643 -1.6006553e-05)
(4.3559535e-06 0.0091697261 -1.6058409e-05)
(1.4910648e-05 0.0090910188 -1.5980938e-05)
(2.6922407e-05 -0.019626182 1.7754973e-05)
(-3.7271247e-07 -0.01971449 1.7848135e-05)
(-2.2632474e-06 -0.019653215 1.7792926e-05)
(7.8450267e-06 -0.019708351 1.7842781e-05)
(-8.3027432e-06 -0.019682652 1.7819772e-05)
(8.2983205e-06 -0.019682654 1.7819638e-05)
(-7.8477032e-06 -0.019708345 1.7842617e-05)
(2.262336e-06 -0.019653217 1.7793074e-05)
(3.7372938e-07 -0.01971449 1.7848265e-05)
(-2.6920904e-05 -0.019626182 1.7755165e-05)
(-2.0331343e-05 0.012831598 -1.965761e-05)
(-4.8379401e-06 0.012928782 -1.974872e-05)
(-2.3044037e-07 0.012845789 -1.9690791e-05)
(-4.0755058e-06 0.012921243 -1.9742712e-05)
(1.8084589e-06 0.01288654 -1.971835e-05)
(-1.8127434e-06 0.012886551 -1.9718457e-05)
(4.074178e-06 0.012921237 -1.9742863e-05)
(2.2847577e-07 0.012845792 -1.969066e-05)
(4.8402273e-06 0.012928775 -1.9748628e-05)
(2.0331691e-05 0.012831597 -1.9657424e-05)
(3.4025092e-05 -0.02367173 2.1629565e-05)
(6.4618352e-07 -0.023778834 2.1738113e-05)
(-2.6425797e-06 -0.023704549 2.1676856e-05)
(9.8790836e-06 -0.023770991 2.1731941e-05)
(-1.0033137e-05 -0.023739866 2.1706407e-05)
(1.0028911e-05 -0.023739868 2.170632e-05)
(-9.8821582e-06 -0.023770985 2.1731767e-05)
(2.6416872e-06 -0.023704551 2.167702e-05)
(-6.4537098e-07 -0.023778832 2.1738137e-05)
(-3.4023302e-05 -0.02367173 2.1629774e-05)
(-2.6982614e-05 0.01718913 -2.3729383e-05)
(-5.5413883e-06 0.017307037 -2.3835179e-05)
(1.7657805e-07 0.017209252 -2.3771575e-05)
(-5.9430314e-06 0.017297563 -2.3828536e-05)
(3.4432513e-06 0.017256949 -2.380172e-05)
(-3.4473223e-06 0.017256962 -2.3801756e-05)
(5.9417316e-06 0.017297555 -2.382868e-05)
(-1.7878142e-07 0.017209255 -2.3771437e-05)
(5.5438212e-06 0.017307031 -2.3835196e-05)
(2.6982879e-05 0.017189129 -2.372919e-05)
(4.250861e-05 -0.0283515 2.5893922e-05)
(1.9035423e-06 -0.028479992 2.6018999e-05)
(-3.1379984e-06 -0.028391208 2.5952058e-05)
(1.2361644e-05 -0.028470074 2.6012039e-05)
(-1.2145892e-05 -0.02843293 2.5984111e-05)
(1.2141907e-05 -0.028432932 2.5984126e-05)
(-1.2365197e-05 -0.028470067 2.6011884e-05)
(3.1372179e-06 -0.02839121 2.5952236e-05)
(-1.9029699e-06 -0.028479989 2.601889e-05)
(-4.2506541e-05 -0.028351499 2.589414e-05)
(-3.5048844e-05 0.022197806 -2.8184946e-05)
(-6.5129228e-06 0.022338815 -2.8306567e-05)
(7.1006236e-07 0.022225102 -2.8237665e-05)
(-8.2428999e-06 0.022327024 -2.8299354e-05)
(5.4737241e-06 0.022280178 -2.8270223e-05)
(-5.4775551e-06 0.022280193 -2.8270138e-05)
(8.2416693e-06 0.022327016 -2.829946e-05)
(-7.1247632e-07 0.022225107 -2.8237522e-05)
(6.5155292e-06 0.02233881 -2.8306695e-05)
(3.5048949e-05 0.022197805 -2.8184759e-05)
(5.2557794e-05 -0.033698658 3.0535542e-05)
(3.4549041e-06 -0.033851329 3.0678308e-05)
(-3.7783412e-06 -0.033746477 3.0606166e-05)
(1.5351137e-05 -0.033838936 3.0670675e-05)
(-1.4689285e-05 -0.033795195 3.0640479e-05)
(1.4685569e-05 -0.033795198 3.0640653e-05)
(-1.5355221e-05 -0.033838928 3.0670573e-05)
(3.7777722e-06 -0.033746478 3.0606358e-05)
(-3.4546112e-06 -0.033851324 3.0678074e-05)
(-5.2555463e-05 -0.033698657 3.0535755e-05)
(-4.4736974e-05 0.027889774 -3.3010784e-05)
(-7.8080611e-06 0.028056482 -3.314949e-05)
(1.4006838e-06 0.027925685 -3.307567e-05)
(-1.1041018e-05 0.028041883 -3.314176e-05)
(7.9614078e-06 0.027988456 -3.3110472e-05)
(-7.9650003e-06 0.027988471 -3.3110237e-05)
(1.103994e-05 0.028041874 -3.3141802e-05)
(-1.4032934e-06 0.02792569 -3.3075524e-05)
(7.8108697e-06 0.028056478 -3.3149689e-05)
(4.4736844e-05 0.027889774 -3.3010614e-05)
(6.4380736e-05 -0.039744582 3.5539987e-05)
(5.3668641e-06 -0.039924379 3.5701653e-05)
(-4.6007733e-06 -0.039801852 3.5624882e-05)
(1.8905498e-05 -0.039909071 3.5693526e-05)
(-1.7716946e-05 -0.03985823 3.5661206e-05)
(1.7713489e-05 -0.039858235 3.566157e-05)
(-1.8910132e-05 -0.039909062 3.5693508e-05)
(4.6005118e-06 -0.039801854 3.5625084e-05)
(-5.3668922e-06 -0.039924372 3.5701347e-05)
(-6.4378155e-05 -0.039744581 3.5540182e-05)
(-5.6275783e-05 0.034295465 -3.8191726e-05)
(-9.4895005e-06 0.034490836 -3.8348894e-05)
(2.2841776e-06 0.034341644 -3.8270555e-05)
(-1.4412034e-05 0.034472787 -3.8340714e-05)
(1.0969509e-05 0.034412341 -3.8307435e-05)
(-1.0972904e-05 0.034412355 -3.8307069e-05)
(1.4411241e-05 0.034472777 -3.8340679e-05)
(-2.2869977e-06 0.03434165 -3.8270415e-05)
(9.492543e-06 0.034490832 -3.8349101e-05)
(5.6275354e-05 0.034295465 -3.819159e-05)
(7.821789e-05 -0.046519174 4.0891569e-05)
(7.7187166e-06 -0.046729176 4.1073487e-05)
(-5.6536264e-06 -0.046587385 4.0992621e-05)
(2.3083137e-05 -0.046710439 4.1065052e-05)
(-2.1291168e-05 -0.046652097 4.1030754e-05)
(2.1287913e-05 -0.046652105 4.1031274e-05)
(-2.3088304e-05 -0.046710428 4.1065127e-05)
(5.6537465e-06 -0.046587387 4.0992822e-05)
(-7.7191093e-06 -0.046729169 4.1073182e-05)
(-7.8215047e-05 -0.046519172 4.0891724e-05)
(-6.9916524e-05 0.04144388 -4.37118e-05)
(-1.1628848e-05 0.041671383 -4.3888898e-05)
(3.4036882e-06 0.041502195 -4.3806517e-05)
(-1.8437157e-05 0.041649094 -4.3880394e-05)
(1.4561251e-05 0.041581051 -4.3845296e-05)
(-1.4564517e-05 0.041581064 -4.3844875e-05)
(1.843681e-05 0.041649083 -4.3880289e-05)
(-3.4067694e-06 0.041502201 -4.3806399e-05)
(1.1632156e-05 0.041671379 -4.388906e-05)
(6.9915752e-05 0.04144388 -4.3711714e-05)
(9.4351891e-05 -0.054051089 4.6574112e-05)
(1.0603405e-05 -0.054294561 4.6777756e-05)
(-6.9976079e-06 -0.054131944 4.6693434e-05)
(2.7947045e-05 -0.054271747 4.6769264e-05)
(-2.5486048e-05 -0.054205575 4.6733145e-05)
(2.5482906e-05 -0.054205585 4.6733715e-05)
(-2.7952716e-05 -0.054271735 4.6769416e-05)
(6.9981552e-06 -0.054131946 4.6693613e-05)
(-1.0604207e-05 -0.054294554 4.6777507e-05)
(-9.4348746e-05 -0.054051087 4.6574205e-05)
(-8.5936974e-05 0.049362883 -4.9554593e-05)
(-1.4310174e-05 0.049626535 -4.9753183e-05)
(4.8134507e-06 0.049435394 -4.9667315e-05)
(-2.3199334e-05 0.049599107 -4.9744561e-05)
(1.880134e-05 0.049522782 -4.9707806e-05)
(-1.880455e-05 0.049522794 -4.9707436e-05)
(2.3199593e-05 0.049599095 -4.9744406e-05)
(-4.8168681e-06 0.0494354 -4.9667242e-05)
(1.4313783e-05 0.04962653 -4.9753287e-05)
(8.593582e-05 0.049362882 -4.955457e-05)
(0.0001131133 -0.062367898 5.2570556e-05)
(1.4127596e-05 -0.062648445 5.2797606e-05)
(-8.7053231e-06 -0.062463386 5.2710477e-05)
(3.3571727e-05 -0.062620718 5.2789329e-05)
(-3.0386886e-05 -0.062546358 5.2751556e-05)
(3.0383777e-05 -0.062546371 5.2752042e-05)
(-3.3577907e-05 -0.062620706 5.2789518e-05)
(8.7063261e-06 -0.062463388 5.2710603e-05)
(-1.4128851e-05 -0.062648438 5.2797423e-05)
(-0.0001131098 -0.062367896 5.2570571e-05)
(-0.00010465029 0.058079481 -5.5701863e-05)
(-1.7634639e-05 0.058383796 -5.5923614e-05)
(6.5827116e-06 0.058168399 -5.5834901e-05)
(-2.8779395e-05 0.058350227 -5.591517e-05)
(2.3760839e-05 0.05826494 -5.5876902e-05)
(-2.3764034e-05 0.058264953 -5.5876662e-05)
(2.8780395e-05 0.058350215 -5.5914976e-05)
(-6.5865465e-06 0.058168405 -5.583489e-05)
(1.7638583e-05 0.05838379 -5.5923679e-05)
(0.0001046487 0.05807948 -5.5701904e-05)
(0.00013488095 -0.071496227 5.8860678e-05)
(1.8410111e-05 -0.071817986 5.9113036e-05)
(-1.0862296e-05 -0.071608671 5.9023754e-05)
(4.0050165e-05 -0.071784308 5.9105286e-05)
(-3.6085237e-05 -0.071701292 5.9066033e-05)
(3.6082138e-05 -0.071701305 5.9066352e-05)
(-4.005694e-05 -0.071784294 5.9105467e-05)
(1.0863788e-05 -0.071608673 5.9023809e-05)
(-1.841186e-05 -0.071817979 5.9112892e-05)
(-0.00013487702 -0.071496226 5.8860622e-05)
(-0.00012641649 0.067620058 -6.213095e-05)
(-2.1724095e-05 0.067969929 -6.237767e-05)
(8.7983684e-06 0.067727742 -6.2286831e-05)
(-3.5257809e-05 0.067929076 -6.236978e-05)
(2.9521918e-05 0.067834261 -6.2330127e-05)
(-2.9525108e-05 0.067834275 -6.2330037e-05)
(3.5259664e-05 0.067929063 -6.2369535e-05)
(-8.8026949e-06 0.067727748 -6.2286884e-05)
(2.1728408e-05 0.067969922 -6.2377727e-05)
(0.00012641441 0.067620057 -6.2131048e-05)
(0.00016007905 -0.081461939 6.5419003e-05)
(2.3582954e-05 -0.081829695 6.5698769e-05)
(-1.3570468e-05 -0.081593978 6.5608019e-05)
(4.74929e-05 -0.081788824 6.5691938e-05)
(-4.2673523e-05 -0.081696585 6.5651384e-05)
(4.267048e-05 -0.0816966 6.5651558e-05)
(-4.7500435e-05 -0.081788809 6.5692073e-05)
(1.3572503e-05 -0.081593981 6.5608013e-05)
(-2.3585235e-05 -0.081829687 6.5698637e-05)
(-0.00016007463 -0.081461938 6.5418908e-05)
(-0.00015165218 0.078010443 -6.8813685e-05)
(-2.6721859e-05 0.078411106 -6.9087355e-05)
(1.1566598e-05 0.078139518 -6.8995172e-05)
(-4.2722313e-05 0.078361611 -6.9080473e-05)
(3.617806e-05 0.078256817 -6.9039551e-05)
(-3.6181247e-05 0.078256834 -6.9039591e-05)
(4.2725153e-05 0.078361597 -6.9080137e-05)
(-1.1571487e-05 0.078139524 -6.8995277e-05)
(2.6726572e-05 0.078411099 -6.9087424e-05)
(0.00015164951 0.078010443 -6.8813826e-05)
(0.00018917901 -0.092290308 7.2214579e-05)
(2.9798393e-05 -0.092709485 7.2524029e-05)
(-1.6954144e-05 -0.09244487 7.2432568e-05)
(5.601744e-05 -0.092659969 7.2518632e-05)
(-5.0244574e-05 -0.092557935 7.2476933e-05)
(5.0241672e-05 -0.092557952 7.2477066e-05)
(-5.6025935e-05 -0.092659953 7.2518683e-05)
(1.69568e-05 -0.092444873 7.2432547e-05)
(-2.9801239e-05 -0.092709476 7.252391e-05)
(-0.00018917403 -0.092290307 7.2214498e-05)
(-0.00018083499 0.089275831 -7.5716397e-05)
(-3.2792548e-05 0.089732989 -7.6019193e-05)
(1.5015351e-05 0.089429357 -7.5926513e-05)
(-5.1274274e-05 0.089673212 -7.6013874e-05)
(4.3829796e-05 0.089558016 -7.5971779e-05)
(-4.3833007e-05 0.089558035 -7.5971954e-05)
(5.1278276e-05 0.089673197 -7.6013376e-05)
(-1.5020885e-05 0.089429364 -7.5926649e-05)
(3.2797683e-05 0.089732982 -7.6019286e-05)
(0.00018083164 0.089275831 -7.5716577e-05)
(0.0002227109 -0.1040061 7.9211268e-05)
(3.7240416e-05 -0.10448272 7.9552852e-05)
(-2.1166461e-05 -0.10418644 7.9461543e-05)
(6.5737171e-05 -0.10442285 7.9549539e-05)
(-5.8896142e-05 -0.10431052 7.9506819e-05)
(5.8893458e-05 -0.10431054 7.9507021e-05)
(-6.574682e-05 -0.10442284 7.954945e-05)
(2.1169838e-05 -0.10418644 7.9461555e-05)
(-3.7243857e-05 -0.10448271 7.9552768e-05)
(-0.00022270529 -0.1040061 7.9211244e-05)
(-0.00021450669 0.10144068 -8.2801612e-05)
(-4.0125619e-05 0.10196072 -8.313592e-05)
(1.9299098e-05 0.10162226 -8.3043669e-05)
(-6.1026687e-05 0.1018887 -8.3132848e-05)