/*--------------------------------*- C++ -*----------------------------------*\
  =========                 |
  \\      /  F ield         | OpenFOAM: The Open Source CFD Toolbox
   \\    /   O peration     | Website:  https://openfoam.org
    \\  /    A nd           | Version:  8
     \\/     M anipulation  |
\*---------------------------------------------------------------------------*/
FoamFile
{
    version     2.0;
    format      ascii;
    class       volScalarField;
    location    "2.999969291";
    object      epsilon;
}
// * * * * * * * * * * * * * * * * * * * * * * * * * * * * * * * * * * * * * //

dimensions      [0 2 -3 0 0 0 0];

internalField   nonuniform List<scalar> 
6800
(
3601.89
10540.4
9739.08
8117.3
6347.38
4353.1
2613.21
1313.71
702.371
429.922
2832.21
8912.52
8274.5
7180.78
4995.74
2752.07
1354.82
720.698
404.9
274.723
2890.92
6947.87
7042.02
6020.46
3469.64
1672.61
861.186
460.938
269.748
168.097
2995.85
6444.76
6606.07
5112.33
2375.87
1095.93
509.163
283.74
176.593
127.295
3044.74
6176.1
6207.9
3805.44
1547.08
667.434
357.808
220.81
144.532
105.56
3116.2
6200.6
5903.91
2804.29
1082.62
515.979
277.111
163.234
110.461
87.6398
3153.28
6658.38
5361.15
1840.99
743.673
359.94
205.662
137.881
99.6706
81.951
3202.01
7046.69
4433.56
1504.34
625.712
313.556
183.987
118.385
85.2591
72.6707
3227.09
7563.4
3693.24
1092.12
452.993
240.31
146.13
102.161
80.7668
70.057
3259.1
7878.5
2872.62
951.618
410.809
223.381
137.974
97.0513
73.6776
64.5354
98443.3
39637.6
26292.3
21712.4
22466.5
24574
26948.2
28914.9
29939.5
30197.7
92379.9
37827.6
25661.2
22698.6
24886.3
28728.6
32853.6
36444.1
38985.8
39961.8
89001.4
37088.4
24961.8
24853.4
29725
36038.3
41404.2
44798.3
46357.3
46231.5
84027.2
36380.5
26330.4
29919.4
38229
45330.3
48519.2
48202.7
47078
43412.3
18886.5
28355.9
31125.6
41602.7
50900.6
52304.6
50501.6
45536.1
40413.1
30370.5
18640
30791.4
46370.4
59002.9
58105.7
53088.8
44139.7
31310.5
23176.8
13175.8
17432.8
45569.9
67656.2
64008.9
54300.6
36236.3
21983.3
13034.1
9227.87
5504.02
16495.8
65093.1
65414.5
46673.3
25054.4
14819.6
9592.91
6305.09
4764.03
2858.7
15987.2
44944
34087
19096.3
11916.4
8151.68
5673.32
3961.25
2981.19
1698.95
9707.75
22447.6
16667.7
11080.4
7979.48
5776.2
4055.05
2778.56
1600.5
799.822
29224.5
26540.8
23903.7
21541.7
19535
17855.5
16439.7
15233.6
14196.1
13294.8
12504.2
11804.4
11180.3
10619.9
10113.5
9653.39
9233.3
8847.93
8492.9
8164.56
7859.83
7576.08
7311.09
7062.83
6829.7
6610.32
6403.4
6207.74
6022.33
5846.24
5678.71
5519.09
5366.79
5221.32
5082.23
4949.15
4821.69
4699.53
4582.37
4469.93
4361.94
4258.14
4158.3
4062.2
3969.63
3880.43
3794.42
3711.47
3631.42
3554.16
3479.57
3407.55
3337.98
3270.77
3205.82
3143.03
3082.31
3023.57
2966.72
2911.66
2858.31
2806.59
2756.41
2707.7
2660.38
2614.4
2569.68
2526.17
2483.82
2442.57
2402.39
2363.22
2325.04
2287.81
2251.49
2216.07
2181.5
2147.77
2114.85
2082.7
2051.33
2020.69
1990.78
1961.54
1933.01
1905.09
1877.89
1851.18
1825.28
1799.67
1775.07
1750.38
1727.2
1703.13
1681.69
1657.68
1638.57
1613.73
1597.39
1567.47
38886.4
35069.3
31311.5
28083.4
25375.2
23094.9
21172.9
19528.4
18115.8
16893.1
15824.6
14882.7
14045.6
13296.4
12621.6
12010.2
11453.3
10943.5
10474.7
10041.8
9640.61
9267.63
8919.84
8594.43
8289.77
8004.08
7735.18
7481.34
7241.18
7013.49
6797.31
6591.75
6396.06
6209.56
6031.64
5861.74
5699.35
5544.04
5395.35
5252.94
5116.37
4985.29
4859.39
4738.4
4622.07
4510.19
4402.53
4298.91
4199.14
4103.04
4010.46
3921.23
3835.22
3752.28
3672.27
3595.05
3520.51
3448.5
3378.92
3311.63
3246.53
3183.51
3122.48
3063.32
3005.96
2950.3
2896.26
2843.76
2792.75
2743.14
2694.89
2647.94
2602.24
2557.75
2514.43
2472.23
2431.12
2391.07
2352.03
2313.97
2276.87
2240.69
2205.42
2170.98
2137.43
2104.63
2072.73
2041.43
2011.12
1981.18
1952.46
1923.67
1896.67
1868.66
1843.74
1815.85
1793.72
1764.92
1746.09
1711.37
45113.5
41402.2
37250.8
33649.9
30592
27976.8
25738.5
23839.5
22202.1
20773.4
19514.9
18397.7
17399.2
16501
15688.6
14949.3
14272.6
13649.9
13074.4
12540.5
12043.7
11579.9
11145.7
10738.3
10354.6
9992.12
9649.34
9324.74
9017.01
8724.95
8447.39
8183.31
7931.79
7691.98
7463.14
7244.59
7035.67
6835.85
6644.5
6461.35
6285.33
6116.12
5953.56
5797.45
5647.49
5503.41
5364.93
5231.79
5103.74
4980.55
4861.99
4747.85
4637.94
4532.05
4430
4331.6
4236.68
4145.06
4056.59
3971.1
3888.42
3808.49
3731.17
3656.3
3583.75
3513.4
3445.14
3378.88
3314.53
3252.01
3191.24
3132.17
3074.72
3018.84
2964.48
2911.58
2860.09
2809.95
2761.13
2713.57
2667.25
2622.11
2578.15
2535.27
2493.54
2452.76
2413.16
2374.32
2336.76
2299.66
2264.17
2228.54
2195.23
2160.63
2129.98
2095.59
2068.42
2032.99
2009.99
1967.35
41623.9
38485.5
35251.4
32367.9
29882.1
27720.6
25824.3
24150.9
22675.8
21371.5
20211.3
19173.3
18239.5
17394.9
16627.7
15924.8
15276.5
14675.3
14115.5
13592.7
13103
12643
12209.9
11801.1
11414.3
11047.7
10699.3
10367.8
10051.9
9750.49
9462.56
9187.35
8924
8671.89
8430.33
8198.67
7976.35
7762.74
7557.61
7359.95
7170.62
6989.03
6814.41
6646.27
6484.17
6327.85
6176.99
6031.38
5890.79
5755.04
5623.92
5497.25
5374.84
5256.51
5142.09
5031.4
4924.27
4820.54
4720.06
4622.66
4528.24
4436.57
4347.53
4261.04
4176.99
4095.29
4015.87
3938.63
3863.49
3790.39
3719.25
3650
3582.59
3516.93
3453.02
3390.71
3329.97
3270.76
3213.06
3156.81
3102.01
3048.56
2996.51
2945.68
2896.23
2847.85
2800.88
2754.75
2710.2
2666.1
2623.99
2581.59
2542.09
2500.86
2464.53
2423.51
2391.36
2349.14
2321.75
2271.06
27233.8
24111.3
21676.9
19839.8
18458.7
17391.7
16539
15839.6
15245.3
14733.7
14283
13881
13515.3
13182
12871.8
12568.2
12270
11977.7
11693.7
11418.5
11152.3
10895
10646.1
10405.4
10172.3
9946.5
9727.36
9514.63
9307.83
9106.89
8911.25
8721.14
8535.65
8355.21
8179.38
8007.6
7839.63
7675.49
7514.91
7358.24
7204.76
7054.79
6908.33
6765.57
6626.38
6490.87
6358.92
6230.53
6105.64
5984.17
5866.03
5751.16
5639.43
5530.75
5425.01
5322.07
5221.85
5124.21
5029.03
4936.22
4845.71
4757.4
4671.19
4587.01
4504.78
4424.46
4345.97
4269.28
4194.32
4121.06
4049.46
3979.49
3911.09
3844.26
3778.89
3715.08
3652.79
3591.94
3532.48
3474.35
3417.54
3361.95
3307.66
3254.46
3202.57
3151.61
3102.07
3053.19
3005.97
2958.95
2914.14
2868.67
2826.52
2782.03
2743.19
2698.74
2664.26
2618.49
2588.75
2533.86
11504.7
10007.4
8897.17
8071.77
7450.24
6973.42
6603.06
6313.5
6081.49
5900.7
5759.34
5647.53
5562.74
5506.34
5455.72
5448.36
5454.96
5473.98
5510.84
5558.91
5613.69
5671.57
5730.9
5789.33
5844.79
5895.82
5941.02
5979.75
6011.26
6035.48
6052.27
6061.14
6059.93
6054.7
6038.88
6014.12
5982.13
5944.3
5901.45
5854.62
5804.3
5751.29
5695.85
5638.7
5579.9
5520.13
5459.26
5397.94
5336.03
5273.9
5211.54
5149.23
5086.83
5024.44
4962
4899.56
4837.25
4774.9
4712.6
4650.69
4589.07
4527.77
4466.84
4406.32
4346.24
4286.66
4227.6
4169.12
4111.22
4053.97
3997.36
3941.44
3886.21
3831.69
3777.91
3724.81
3672.43
3620.77
3569.88
3519.7
3470.32
3421.63
3373.78
3326.55
3280.25
3234.45
3189.75
3145.29
3102.29
3059.03
3017.88
2975.58
2936.6
2894.77
2858.67
2816.52
2784.26
2740.68
2712.25
2660.14
4955.39
4381.73
3911.66
3531.08
3218.07
2958.37
2740.97
2556.97
2400.96
2267.84
2156.29
2061.19
1981.77
1916.47
1862.09
1820.36
1788.28
1768.23
1754.74
1755.44
1760.89
1774
1797.94
1829.09
1866.96
1910.86
1960.15
2014.76
2072.93
2135.39
2199.94
2268.34
2337.31
2410.37
2487.21
2566.86
2647.75
2729.09
2809.56
2888.54
2964.96
3038.39
3108.04
3173.64
3234.72
3291.14
3342.69
3389.36
3431.1
3468.16
3500.01
3527.62
3549.43
3566.34
3578.37
3586.45
3590.12
3590.19
3586.67
3582.75
3575.28
3565.52
3553.62
3539.85
3524.32
3507.25
3488.71
3468.91
3447.88
3425.83
3402.75
3378.85
3354.04
3328.54
3302.27
3275.4
3247.95
3219.97
3191.58
3162.76
3133.67
3104.24
3074.68
3044.9
3015.18
2985.15
2955.44
2925.27
2895.84
2865.58
2836.72
2806.29
2778.37
2747.51
2721.17
2689.46
2665.49
2632.37
2610.16
2570.24
2591.45
2299.04
2046.12
1833.41
1650.31
1492.72
1354.35
1234.94
1130.82
1040.27
960.955
890.474
828.072
772.972
724.955
682.833
646.531
614.981
588.133
564.796
545.555
529.162
516.631
506.583
500.223
495.856
495.662
497.233
500.484
507.063
516.289
528.252
542.738
560.072
580.074
603.165
629.03
658.189
690.062
725.209
762.951
803.837
847.149
893.311
941.674
992.482
1045.22
1099.86
1156.12
1213.57
1272.34
1331.51
1392.08
1453.64
1515.41
1577.19
1638.08
1697.91
1755.92
1812.13
1865.95
1917.34
1965.86
2011.6
2054.18
2093.81
2130.2
2163.65
2193.93
2221.32
2245.7
2267.32
2285.8
2301.67
2314.84
2325.78
2334.46
2341.21
2346.13
2349.34
2351.15
2351.27
2350.43
2348.62
2345.22
2340.9
2335.61
2329.42
2322.58
2314.72
2306.65
2297.27
2288.28
2277.39
2267.93
2255.57
2245.94
2232.09
2221.89
2204.13
1528.95
1340.82
1173.92
1029.32
904.892
798.151
706.724
628.93
562.138
505.317
456.113
414.952
380.17
350.354
324.647
302.259
282.722
265.501
250.348
236.873
224.953
214.287
204.827
196.337
188.811
182.072
176.126
170.833
166.237
162.176
158.779
155.839
153.575
151.699
150.566
149.758
149.897
150.365
151.615
153.16
155.587
158.988
162.922
167.985
173.705
180.712
188.514
197.778
207.973
219.813
232.78
247.608
263.676
281.847
301.301
323.003
345.961
371.261
397.742
426.552
456.415
488.5
521.429
556.387
591.902
629.182
666.671
705.616
744.373
784.278
823.596
863.741
903.272
943.443
982.49
1021.78
1059.47
1097.09
1132.71
1168.05
1201.04
1233.64
1263.6
1293.21
1319.95
1346.41
1369.84
1393.18
1413.34
1433.68
1450.68
1468.2
1482.21
1497.15
1508
1520.59
1528.81
1539.37
1544.05
1555.47
688.344
586.675
506.534
443.447
392.946
351.686
317.387
288.454
263.751
242.464
223.946
207.714
193.41
180.738
169.453
159.367
150.309
142.155
134.779
128.095
122.011
116.472
111.401
106.766
102.5
98.5901
94.9718
91.6499
88.5569
85.7198
83.0598
80.6298
78.3308
76.249
74.2603
72.4675
70.7644
69.2306
67.7634
66.4901
65.2797
64.2446
63.2675
62.4458
61.6828
61.0639
60.5166
60.1306
59.8299
59.8284
59.9894
60.1295
60.8745
61.3383
62.2849
63.3385
64.6347
66.6348
68.459
71.4832
74.0601
78.1571
81.6881
86.9479
91.5681
98.1416
103.985
112.027
119.222
128.885
137.571
148.999
159.284
172.597
184.552
199.822
213.459
230.699
245.959
265.121
281.877
302.856
320.913
343.549
362.645
386.739
406.555
431.873
452.041
478.334
498.456
525.486
545.14
572.725
591.708
619.66
637.452
665.336
683.792
714.842
273.943
256.484
239.429
223.067
207.535
193.031
179.662
167.449
156.354
146.306
137.22
129.004
121.571
114.836
108.724
103.167
98.1021
93.4772
89.2349
85.3418
81.7548
78.4508
75.3918
72.5641
69.9328
67.4928
65.2101
63.0881
61.0917
59.233
57.4736
55.8347
54.2734
52.8198
51.4253
50.1291
48.8763
47.7144
46.5838
45.5382
44.5134
43.57
42.6379
41.7854
40.935
40.1642
39.3865
38.6903
37.9785
37.3524
36.7036
36.1464
35.5562
35.0659
34.5342
34.1091
33.6383
33.2801
32.8796
32.5919
32.2727
32.0591
31.8324
31.7017
31.5866
31.5518
31.5738
31.6581
31.7795
32.0832
32.3256
32.8692
33.2607
34.1058
34.6761
35.8938
36.6934
38.367
39.4253
41.6618
43.0408
45.9354
47.7042
51.3704
53.5785
58.1413
60.8484
66.4378
69.7098
76.4385
80.3115
88.289
92.8104
102.152
107.367
117.773
124.015
135.102
143.856
158.077
170.5
159.818
149.626
140.02
131.198
123.14
115.817
109.161
103.12
97.6226
92.6196
88.0481
83.8704
80.0344
76.5129
73.2642
70.2683
67.4928
64.9289
62.5491
60.3408
58.2821
56.3633
54.567
52.8852
51.3047
49.8183
48.4166
47.0926
45.8404
44.6528
43.5268
42.4549
41.4365
40.4633
39.5375
38.6492
37.8039
36.9894
36.2144
35.4645
34.7514
34.0584
33.4
32.7574
32.1476
31.5497
30.983
30.4251
29.8968
29.3748
28.881
28.3914
27.9289
27.4681
27.0342
26.5993
26.192
25.7807
25.3985
25.0093
24.6547
24.2891
23.9615
23.6192
23.318
22.9968
22.7228
22.4246
22.1777
21.9036
21.6848
21.4352
21.2442
21.0207
20.8591
20.6611
20.5275
20.3582
20.2518
20.1165
20.0403
19.9439
19.8951
19.8583
19.8741
19.896
19.9748
20.0429
20.214
20.3171
20.5903
20.825
21.2153
21.5609
22.0277
22.836
23.1152
23.4105
25.6335
114.714
109.222
103.947
98.9064
94.1407
89.6539
85.4593
81.5372
77.8881
74.4845
71.3236
68.3757
65.6379
63.0806
60.7026
58.4757
56.4012
54.4523
52.6329
50.9174
49.3124
47.7937
46.3698
45.0178
43.7479
42.538
41.3997
40.3116
39.2865
38.3033
37.3758
36.4831
35.6402
34.8263
34.057
33.3117
32.6069
31.9218
31.2737
30.6416
30.0437
29.4586
28.9051
28.3617
27.8479
27.3417
26.8634
26.3905
25.9441
25.5009
25.0833
24.6669
24.2753
23.8831
23.5152
23.1449
22.7985
22.448
22.1215
21.7891
21.4807
21.1647
20.8731
20.5721
20.296
20.0088
19.7471
19.4726
19.2245
18.9615
18.7262
18.474
18.2508
18.0085
17.7967
17.5637
17.3627
17.1383
16.9476
16.7314
16.5506
16.342
16.1718
15.971
15.8117
15.6185
15.4702
15.285
15.1478
14.9703
14.8447
14.6748
14.5624
14.401
14.3011
14.1488
14.0675
13.9216
13.8422
13.7088
82.6622
79.5501
76.4718
73.4339
70.4814
67.6355
64.9244
62.3473
59.9177
57.6241
55.4737
53.4493
51.5557
49.7735
48.1074
46.5371
45.0684
43.6808
42.3818
41.1506
39.9966
38.8991
37.8689
36.8854
35.9612
35.0755
34.2421
33.4403
32.6853
31.9557
31.2683
30.6012
29.9726
29.3598
28.7823
28.2169
27.6844
27.1606
26.6677
26.1805
25.7228
25.2682
24.8418
24.4161
24.0177
23.6179
23.2448
22.8681
22.5177
22.1619
21.8323
21.4953
21.1846
20.8648
20.5713
20.2671
19.9896
19.6996
19.4368
19.1598
18.9107
18.6456
18.4092
18.1551
17.9305
17.6864
17.4729
17.238
17.035
16.8085
16.6153
16.3966
16.2128
16.0012
15.8263
15.6215
15.4551
15.2564
15.0981
14.9052
14.7548
14.5672
14.4242
14.2416
14.1058
13.9277
13.7987
13.6248
13.5024
13.3322
13.2162
13.0494
12.9398
12.7765
12.6733
12.5127
12.4168
12.2601
12.1908
11.9541
63.6788
61.7991
59.9052
57.999
56.1174
54.2763
52.5011
50.7913
49.1616
47.6041
46.1291
44.7243
43.3981
42.136
40.9457
39.812
38.7429
37.7225
36.7597
35.8382
34.968
34.1326
33.3429
32.5822
31.8626
31.1668
30.5082
29.8691
29.2639
28.6743
28.116
27.5699
27.0529
26.5452
26.0649
25.5914
25.1438
24.7006
24.2824
23.8665
23.4746
23.0831
22.7152
22.3458
21.9996
21.6502
21.3238
20.9926
20.6844
20.3698
20.0783
19.7789
19.5028
19.2174
18.9556
18.6831
18.4346
18.1738
17.9377
17.6878
17.4632
17.2234
17.0097
16.7792
16.5756
16.3538
16.1598
15.9459
15.761
15.5545
15.3782
15.1786
15.0105
14.8173
14.6569
14.4696
14.3166
14.1348
13.9889
13.8123
13.6732
13.5012
13.3687
13.2011
13.0748
12.9113
12.7911
12.6314
12.5171
12.3607
12.2521
12.099
11.996
11.8455
11.7481
11.6005
11.5065
11.3625
11.2987
11.0791
52.2629
51.0317
49.7732
48.4826
47.1898
45.9043
44.6493
43.423
42.2413
41.0971
40.0031
38.9489
37.9453
36.98
36.063
35.1809
34.3438
33.5374
32.7723
32.0338
31.3331
30.655
30.0114
29.3868
28.7939
28.2166
27.6687
27.1334
26.6254
26.1274
25.655
25.1902
24.7497
24.3146
23.9027
23.4943
23.1082
22.7238
22.361
21.9983
21.6568
21.3137
20.9915
20.6664
20.3619
20.0531
19.7649
19.471
19.1979
18.9177
18.6585
18.3911
18.1448
17.889
17.6548
17.4098
17.1869
16.9519
16.7396
16.5138
16.3113
16.0941
15.901
15.6917
15.5073
15.3054
15.1294
14.9344
14.7662
14.5775
14.4168
14.2341
14.0805
13.9033
13.7566
13.5846
13.4443
13.2771
13.1431
12.9803
12.8523
12.6937
12.5715
12.4168
12.3002
12.149
12.0379
11.89
11.7841
11.6392
11.5385
11.3965
11.3008
11.161
11.07
10.9336
10.8493
10.7152
10.6243
10.4742
45.3115
44.4227
43.5076
42.5572
41.596
40.6291
39.6772
38.737
37.8238
36.9305
36.0702
35.233
34.4308
33.6521
32.9081
32.186
31.4974
30.8285
30.1911
29.5709
28.9803
28.4044
27.8562
27.3202
26.8102
26.3102
25.8347
25.367
24.9225
24.4841
24.0677
23.6555
23.2645
22.8762
22.5083
22.1415
21.7947
21.4476
21.12
20.7909
20.481
20.1683
19.8748
19.5772
19.2987
19.0149
18.7504
18.4795
18.228
17.9689
17.7295
17.4814
17.2533
17.0154
16.7979
16.5695
16.3619
16.1423
15.9442
15.7327
15.5435
15.3397
15.1588
14.9621
14.7892
14.5992
14.4338
14.25
14.0918
13.9139
13.7625
13.59
13.4452
13.2777
13.1392
12.9765
12.844
12.6857
12.559
12.4048
12.2837
12.1334
12.0177
11.8709
11.7605
11.617
11.5117
11.3713
11.2709
11.1333
11.0377
10.9028
10.8119
10.6791
10.5927
10.4629
10.3829
10.2557
10.1688
10.026
40.9307
40.2249
39.4972
38.736
37.9623
37.1781
36.4018
35.6289
34.874
34.1296
33.409
32.7023
32.0221
31.3569
30.7189
30.0954
29.4988
28.9155
28.3581
27.8125
27.2918
26.7811
26.2941
25.8153
25.3591
24.9096
24.4816
24.0586
23.6565
23.2577
22.8791
22.5025
22.1453
21.7889
21.4515
21.1136
20.7943
20.4733
20.1708
19.8654
19.5784
19.2874
19.0147
18.737
18.4776
18.2123
17.9653
17.7114
17.4761
17.2327
17.0083
16.7749
16.5607
16.3364
16.1319
15.9162
15.7207
15.513
15.3261
15.1259
14.9472
14.754
14.5829
14.3962
14.2325
14.052
13.8952
13.7204
13.5703
13.4008
13.2571
13.0926
12.955
12.7953
12.6635
12.5082
12.382
12.2308
12.11
11.9627
11.8472
11.7034
11.593
11.4526
11.347
11.2097
11.109
10.9746
10.8785
10.7467
10.6552
10.5259
10.4388
10.3116
10.229
10.1042
10.024
9.9023
9.84825
9.66144
38.0234
37.4204
36.7992
36.1482
35.4855
34.8112
34.1418
33.4721
32.816
32.1657
31.5341
30.9117
30.3108
29.7202
29.1523
28.5946
28.0598
27.5346
27.0318
26.5373
26.0647
25.5992
25.1548
24.7161
24.2978
23.8838
23.4897
23.0984
22.7264
22.3561
22.0045
21.6534
21.3207
20.9872
20.672
20.3548
20.0556
19.7535
19.4693
19.1811
18.9108
18.6355
18.3782
18.1149
17.8697
17.6175
17.3836
17.1418
16.9186
16.6865
16.4733
16.2502
16.0464
15.8318
15.637
15.4303
15.2438
15.0445
14.8661
14.6738
14.503
14.3171
14.1535
13.9738
13.8171
13.6431
13.4929
13.3243
13.1804
13.0169
12.879
12.7202
12.5881
12.4337
12.3071
12.1569
12.0357
11.8894
11.7734
11.6307
11.5196
11.3804
11.2742
11.1381
11.0366
10.9034
10.8065
10.6761
10.5837
10.4558
10.3677
10.2423
10.1584
10.0348
9.95498
9.83431
9.76021
9.64187
9.56156
9.4285
36.0017
35.4602
34.9033
34.3204
33.7273
33.1229
32.5222
31.9198
31.3283
30.7404
30.1682
29.6025
29.0552
28.5156
27.9956
27.4835
26.9914
26.5067
26.0419
25.5836
25.1449
24.7116
24.2975
23.8875
23.4963
23.108
22.7381
22.37
22.0198
21.6703
21.3384
21.0061
20.6913
20.3749
20.0758
19.7742
19.4898
19.2018
18.9311
18.6559
18.398
18.1346
17.8887
17.6363
17.4016
17.1595
16.9354
16.7029
16.4887
16.2652
16.0604
15.8454
15.6495
15.4423
15.2548
15.0551
14.8756
14.6828
14.5108
14.3246
14.1599
13.9798
13.8219
13.6476
13.4963
13.3274
13.1824
13.0186
12.8795
12.7206
12.5872
12.4328
12.305
12.1548
12.0323
11.8861
11.7687
11.6262
11.5139
11.3749
11.2673
11.1315
11.0286
10.8959
10.7975
10.6677
10.5736
10.4465
10.3567
10.2321
10.1464
10.0242
9.94255
9.82227
9.74478
9.62668
9.55137
9.43634
9.38525
9.20889
34.5515
34.0475
33.531
32.9918
32.4442
31.8863
31.3315
30.7745
30.2272
29.6821
29.1509
28.6247
28.1149
27.6112
27.1252
26.6455
26.184
25.7285
25.2912
24.8591
24.445
24.0353
23.6432
23.2545
22.8831
22.514
22.162
21.8111
21.4772
21.1432
20.8261
20.5079
20.2065
19.903
19.6161
19.3262
19.053
18.7758
18.5154
18.25
18.0016
17.7471
17.51
17.2659
17.0394
16.8049
16.5884
16.3629
16.1559
15.9389
15.7408
15.5317
15.3421
15.1405
14.959
14.7644
14.5905
14.4025
14.2359
14.054
13.8944
13.7184
13.5654
13.3948
13.2482
13.0828
12.9423
12.7816
12.647
12.4909
12.3619
12.21
12.0865
11.9386
11.8203
11.6761
11.5629
11.4222
11.3139
11.1765
11.073
10.9386
10.8397
10.7081
10.6138
10.4848
10.3949
10.2684
10.1828
10.0585
9.97715
9.8549
9.7776
9.65691
9.58441
9.46654
9.39803
9.28463
9.20828
9.08024
33.4763
32.9965
32.506
31.9958
31.4789
30.9527
30.4297
29.9044
29.3879
28.8732
28.3712
27.8734
27.3905
26.913
26.4516
25.9959
25.5567
25.1229
24.7059
24.2935
23.8978
23.5059
23.1304
22.7579
22.4016
22.0471
21.7088
21.3713
21.0497
20.728
20.4222
20.1152
19.824
19.5307
19.2533
18.9728
18.7082
18.4396
18.1871
17.9297
17.6886
17.4416
17.2111
16.9739
16.7535
16.5254
16.3146
16.0951
15.8934
15.682
15.4888
15.2849
15.0999
14.9032
14.7259
14.5359
14.366
14.1823
14.0194
13.8416
13.6855
13.5133
13.3636
13.1967
13.0532
12.8912
12.7536
12.5962
12.4644
12.3114
12.185
12.0361
11.915
11.7699
11.6539
11.5125
11.4015
11.2634
11.1572
11.0222
10.9207
10.7887
10.6917
10.5624
10.4698
10.3431
10.2548
10.1305
10.0464
9.92421
9.84435
9.72416
9.64823
9.52956
9.45833
9.34245
9.27509
9.16364
9.08847
8.96265
32.6581
32.1938
31.7208
31.2302
30.7348
30.231
29.7308
29.2282
28.7344
28.242
27.7616
27.2849
26.8224
26.3645
25.9219
25.4843
25.0625
24.6453
24.2441
23.8469
23.4656
23.0876
22.7252
22.3654
22.021
21.6782
21.3507
21.0238
20.7121
20.4001
20.1032
19.8052
19.5222
19.2371
18.9671
18.6942
18.4364
18.1748
17.9286
17.6776
17.4422
17.2012
16.9761
16.7444
16.5289
16.306
16.0997
15.8851
15.6875
15.4806
15.2912
15.0916
14.9102
14.7174
14.5435
14.3572
14.1904
14.0102
13.8502
13.6758
13.5223
13.3533
13.2061
13.0422
12.901
12.7419
12.6065
12.4518
12.322
12.1716
12.0471
11.9007
11.7814
11.6387
11.5244
11.3852
11.2758
11.1399
11.0352
10.9023
10.8022
10.6722
10.5766
10.4492
10.3579
10.2331
10.146
10.0235
9.94057
9.8201
9.74132
9.62281
9.54792
9.43088
9.36063
9.2463
9.17994
9.06988
8.99592
8.87161
32.0242
31.57
31.1088
30.632
30.1521
29.6645
29.1813
28.6957
28.2191
27.7434
27.2798
26.8192
26.3726
25.9299
25.5022
25.0788
24.6707
24.2666
23.878
23.4929
23.1232
22.7562
22.4045
22.0547
21.72
21.3864
21.0677
20.7492
20.4456
20.1413
19.8518
19.5608
19.2846
19.0059
18.7421
18.4751
18.223
17.9669
17.7258
17.4799
17.2492
17.0128
16.7921
16.5647
16.3533
16.1343
15.9317
15.7208
15.5266
15.3231
15.137
14.9406
14.7621
14.5723
14.4011
14.2176
14.0534
13.8758
13.7182
13.5463
13.395
13.2283
13.0832
12.9215
12.7823
12.6252
12.4917
12.339
12.2109
12.0624
11.9395
11.7949
11.6771
11.5361
11.4233
11.2857
11.1777
11.0433
10.9399
10.8086
10.7096
10.5811
10.4866
10.3606
10.2704
10.1469
10.0609
9.93959
9.85769
9.73846
9.66062
9.5433
9.46931
9.35341
9.28399
9.17081
9.10524
8.99622
8.92321
8.80001
31.534
31.0861
30.6329
30.1657
29.6972
29.2216
28.7513
28.2787
27.8153
27.3527
26.9022
26.4544
26.0203
25.5897
25.1739
24.7616
24.3646
23.9709
23.5925
23.2169
22.8565
22.4982
22.155
21.8132
21.4862
21.1598
20.8482
20.5363
20.239
19.9407
19.657
19.3714
19.1004
18.8267
18.5676
18.3051
18.0574
17.8054
17.5682
17.3261
17.099
16.8661
16.6486
16.4244
16.216
16
15.8002
15.592
15.4004
15.1995
15.0156
14.8216
14.6453
14.4578
14.2886
14.1072
13.9448
13.7692
13.6133
13.4433
13.2936
13.1287
12.9851
12.8251
12.6872
12.5318
12.3995
12.2484
12.1215
11.9744
11.8527
11.7095
11.5928
11.4531
11.3413
11.205
11.0979
10.9648
10.8623
10.7322
10.6341
10.5067
10.413
10.2882
10.1987
10.0763
9.99098
9.87075
9.78952
9.67133
9.59408
9.47774
9.40454
9.28989
9.21997
9.10719
9.04331
8.93036
8.88143
8.71715
31.1728
30.7281
30.2795
29.8185
29.3577
28.8906
28.4294
27.9661
27.5124
27.0593
26.6185
26.1799
25.7551
25.3332
24.9261
24.522
24.1329
23.7466
23.3755
23.0066
22.6528
22.3006
21.9633
21.6269
21.3052
20.9837
20.6768
20.3693
20.0763
19.7819
19.5019
19.2199
18.9523
18.6818
18.4258
18.1662
17.9212
17.6719
17.4373
17.1976
16.9729
16.7423
16.5269
16.3049
16.0984
15.8844
15.6864
15.4801
15.2901
15.091
14.9087
14.7164
14.5415
14.3557
14.1877
14.008
13.8468
13.6728
13.518
13.3495
13.2009
13.0375
12.8948
12.7362
12.5993
12.4453
12.3139
12.1641
12.038
11.8924
11.7714
11.6295
11.5135
11.3752
11.264
11.129
11.0225
10.8907
10.7887
10.6598
10.5622
10.4362
10.3429
10.2193
10.1303
10.0091
9.92413
9.80512
9.72423
9.60723
9.53031
9.41513
9.34225
9.22874
9.15916
9.04747
8.98392
8.87197
8.82347
8.66046
30.9127
30.4687
30.0216
29.5637
29.1068
28.6446
28.1886
27.7309
27.2829
26.8355
26.4002
25.9671
25.5474
25.1305
24.728
24.3283
23.9434
23.561
23.1936
22.828
22.4774
22.128
21.7935
21.4595
21.1402
20.8208
20.516
20.2104
19.9193
19.6267
19.3486
19.0682
18.8024
18.5336
18.2794
18.0214
17.7782
17.5305
17.2977
17.0596
16.8367
16.6077
16.394
16.1736
15.9686
15.7563
15.5597
15.355
15.1664
14.9689
14.788
14.5974
14.4238
14.2397
14.073
13.8951
13.7351
13.5629
13.4093
13.2426
13.0951
12.9336
12.7919
12.6353
12.4992
12.3472
12.2165
12.0689
11.9434
11.7999
11.6794
11.5398
11.424
11.2881
11.177
11.0445
10.9379
10.8087
10.7065
10.5803
10.4823
10.359
10.2651
10.1445
10.0546
9.93646
9.85047
9.7347
9.65252
9.53893
9.46049
9.34896
9.27418
9.16426
9.093
8.98559
8.91944
8.81411
8.74221
8.62365
30.6984
30.2542
29.8075
29.3509
28.8958
28.4357
27.9814
27.5254
27.0783
26.6319
26.1967
25.7639
25.3438
24.9269
24.5238
24.1241
23.7386
23.3566
22.9886
22.6221
22.2704
21.92
21.5847
21.2503
20.931
20.612
20.3082
20.0038
19.7145
19.4239
19.1483
18.8705
18.6077
18.3419
18.0911
17.8364
17.5968
17.3526
17.1235
16.889
16.6698
16.4443
16.2346
16.0178
15.817
15.6082
15.4157
15.2145
15.03
14.8359
14.6588
14.4713
14.3014
14.1202
13.9571
13.7818
13.6251
13.4554
13.3049
13.1405
12.9959
12.8365
12.6976
12.5428
12.4094
12.2591
12.1309
11.9848
11.8617
11.7196
11.6013
11.4629
11.3494
11.2145
11.1055
10.974
10.8694
10.7411
10.6407
10.5153
10.4192
10.2965
10.2044
10.0844
9.99618
9.87867
9.79424
9.67905
9.59833
9.48531
9.40821
9.29725
9.22367
9.11444
9.04448
8.93719
8.86908
8.76451
8.71808
8.558
30.5428
30.0911
29.6339
29.1632
28.6928
28.2155
27.7446
27.2718
26.8103
26.3505
25.9051
25.4634
25.0381
24.6171
24.2134
23.8138
23.4317
23.0529
22.6916
22.3344
21.9937
21.6555
21.3331
21.0118
20.7057
20.3996
20.1083
19.8159
19.538
19.2582
18.9928
18.7245
18.4707
18.2131
17.9701
17.7226
17.4897
17.2516
17.0283
16.799
16.5849
16.3639
16.1584
15.9453
15.748
15.5423
15.3529
15.1543
14.9724
14.7804
14.6056
14.42
14.2521
14.0724
13.9111
13.7371
13.5821
13.4135
13.2645
13.101
12.9579
12.7991
12.6616
12.5074
12.3754
12.2254
12.0986
11.9527
11.8309
11.6889
11.572
11.4335
11.3214
11.1863
11.0787
10.9469
10.8438
10.715
10.6162
10.4902
10.3956
10.2722
10.1818
10.0609
9.97447
9.85583
9.7734
9.65687
9.57832
9.46375
9.38904
9.27628
9.20521
9.09379
9.02705
8.91813
8.85496
8.75005
8.67973
8.56132
30.0096
29.5374
29.073
28.6078
28.1523
27.698
27.2554
26.8152
26.3881
25.964
25.5539
25.1471
24.7545
24.365
23.9899
23.6173
23.2591
22.9027
22.5605
22.2195
21.8927
21.5662
21.2538
20.941
20.6422
20.3423
20.0563
19.7686
19.4947
19.2184
18.956
18.6904
18.4389
18.1835
17.9424
17.6965
17.4652
17.2284
17.0065
16.7783
16.5652
16.3452
16.1406
15.9283
15.7318
15.5268
15.3381
15.1401
14.9587
14.7673
14.5931
14.4078
14.2404
14.0611
13.9003
13.7266
13.572
13.4036
13.255
13.0917
12.9489
12.7904
12.6532
12.4992
12.3674
12.2176
12.091
11.9453
11.8237
11.6818
11.5651
11.4267
11.3148
11.1798
11.0724
10.9406
10.8377
10.7089
10.6103
10.4843
10.3899
10.2666
10.1763
10.0554
9.96914
9.85054
9.76822
9.65174
9.57329
9.45878
9.38415
9.27147
9.20047
9.08917
9.02251
8.91385
8.85086
8.74638
8.67609
8.55757
54.5463
58.5286
61.5229
66.7296
73.5011
80.4919
95.1751
112.964
147.814
281.824
48.7848
50.0725
53.0433
55.787
60.6519
66.6709
73.5425
87.2532
100.557
179.123
44.6388
45.9801
46.7923
49.3851
51.1438
56.3572
59.7588
69.6836
76.4934
119.146
42.281
43.1465
43.5757
45.1579
46.0754
49.1756
51.1591
57.401
61.4635
84.9603
40.317
40.8847
41.1425
42.1838
42.7268
44.6039
45.7515
49.4461
51.8593
64.9007
38.87
39.1816
39.3199
39.9766
40.3035
41.4832
42.1605
44.3559
45.7566
53.0103
37.7367
37.8712
37.9303
38.3068
38.4948
39.2233
39.6275
40.9562
41.7698
45.8445
36.8412
36.85
36.8454
37.0246
37.1117
37.5327
37.7618
38.5605
39.0321
41.3731
36.145
36.0541
35.9991
36.0291
36.0424
36.2416
36.3508
36.7981
37.059
38.433
35.592
35.446
35.3199
35.2537
35.2129
35.253
35.2765
35.479
35.599
36.406
35.1419
34.9624
34.7786
34.6581
34.539
34.479
34.4424
34.4756
34.5007
34.948
34.7959
34.56
34.36
34.1698
34.0198
33.8754
33.7736
33.6918
33.6501
33.8564
34.5115
34.2556
34.0122
33.8035
33.5867
33.4257
33.2279
33.1225
32.9367
33.0283
34.2784
34.0269
33.7309
33.5229
33.2442
33.0736
32.8074
32.6723
32.3771
32.3886
34.097
33.8508
33.5131
33.3045
32.9798
32.7988
32.4825
32.3236
31.9919
31.8958
33.9578
33.7241
33.3479
33.1439
32.7814
32.5934
32.2407
32.0595
31.7187
31.5347
33.8638
33.6114
33.2373
33.004
32.6494
32.4206
32.0795
31.8462
31.5169
31.2766
33.7943
33.5055
33.1492
32.8768
32.5387
32.2699
31.9407
31.6683
31.343
31.0652
33.7625
33.451
33.0998
32.8035
32.4681
32.1753
31.8456
31.5493
31.2194
30.9172
33.5447
33.1818
32.8081
32.4653
32.1053
31.7737
31.4191
31.0923
30.7379
30.4125
54.0001
59.8187
69.2088
85.3677
115.379
175.523
330.556
885.106
5106.87
3142.18
54.4241
60.2299
70.5263
86.4044
115.436
178.422
348.685
917.691
5459.32
3196.54
54.4763
60.0144
71.2038
89.5577
123.732
192.343
377.082
986.574
5850.33
3244.18
55.0919
60.6359
71.6195
89.4606
123.825
195.663
395.651
1041.19
6274.56
3282.14
55.0207
60.5364
73.1556
94.0604
134.214
215.997
444.977
1129.72
6686.59
3312.29
56.3461
62.1664
73.2596
94.0332
135.621
219.166
463.634
1233.1
7150.71
3331.01
56.5954
62.7661
76.8762
101.131
150.23
250.179
544.6
1346.35
7570.02
3321.5
58.7375
65.3419
77.7031
102.223
153.111
254.811
568.594
1532.09
7981.25
3305.01
59.5569
66.8848
84.2503
114.016
177.258
304.725
691.55
1800.07
8135.53
3296.1
63.0514
70.9091
86.0374
117.196
183.193
320.149
742.329
2319.93
8054.96
3274.5
56.552
62.2017
73.3459
85.1968
92.5248
183.788
219.307
896.462
3454.4
2798.65
55.1851
61.2055
70.881
79.7578
106.768
122.401
302.259
599.898
3145.77
2671.16
55.357
60.9439
70.3035
80.9972
106.075
131.783
280.419
615.391
3147.25
2643.4
55.3758
60.1103
70.028
81.0064
104.377
138.764
270.039
663.538
3275.44
2678.37
55.3068
59.9023
69.4106
81.5752
104.899
143.3
272.087
701.432
3458.19
2713.18
55.0214
59.8999
68.9216
81.78
105.382
149.559
277.598
738.387
3636.48
2787.72
54.6954
59.6306
69.1743
81.5594
105.37
154.3
284.973
757.347
3910.94
2845.09
54.2747
59.5023
68.7065
83.3737
106.836
156.584
292.874
790.596
4126.51
2932.28
53.8191
59.1864
68.5057
83.1388
109.617
163.5
300.757
811.52
4463.87
2988.89
53.7098
59.3228
68.6883
84.1774
110.02
165.683
315.085
840.386
4737.36
3071.8
13886.2
10422.4
8079.86
6429.74
5227.73
4327.31
3636.69
3096.2
2665.77
2317.75
2032.58
1796.15
1598.05
1430.51
1287.59
1164.76
1058.43
965.819
884.671
813.19
749.909
693.632
643.369
598.3
557.738
521.107
487.918
457.756
430.267
405.146
382.131
360.995
341.539
323.592
307.002
291.637
277.38
264.129
251.789
240.283
229.534
219.48
210.061
201.227
192.929
185.126
177.778
170.853
164.315
158.142
152.301
146.774
141.535
136.568
131.85
127.37
123.107
119.053
115.188
111.508
107.993
104.642
101.436
98.3757
95.4434
92.642
89.9531
87.3821
84.9102
82.5455
80.2679
78.0885
75.9853
73.9729
72.0272
70.1661
68.3633
66.6399
64.9676
63.3705
61.8185
60.3386
58.8988
57.5297
56.1969
54.9357
53.709
52.5575
51.4423
50.4117
49.4229
48.5423
47.7432
47.0925
46.5745
46.2959
46.3528
47.2929
48.8566
52.2516
13884.6
10419.5
8076.64
6426.51
5224.66
4324.45
3634.07
3093.81
2663.59
2315.76
2030.77
1794.49
1596.53
1429.1
1286.3