/*--------------------------------*- C++ -*----------------------------------*\
  =========                 |
  \\      /  F ield         | OpenFOAM: The Open Source CFD Toolbox
   \\    /   O peration     | Website:  https://openfoam.org
    \\  /    A nd           | Version:  8
     \\/     M anipulation  |
\*---------------------------------------------------------------------------*/
FoamFile
{
    version     2.0;
    format      ascii;
    class       surfaceScalarField;
    location    "2.999969291";
    object      phi;
}
// * * * * * * * * * * * * * * * * * * * * * * * * * * * * * * * * * * * * * //

dimensions      [1 0 -1 0 0 0 0];

internalField   nonuniform List<scalar> 
13330
(
0.600657
-0.757723
0.155909
1.17987
-2.17721
1.59763
1.67115
-2.67012
2.17874
2.10115
-2.93728
2.50734
2.47925
-3.08714
2.70913
2.81577
-3.16752
2.83108
3.12131
-3.20869
2.90323
3.40463
-3.22715
2.94387
3.67428
-3.23349
2.96387
-3.23429
2.96889
3.93969
0.640429
-1.39847
1.20366
-2.74058
1.65631
-3.12285
2.04386
-3.32483
2.3788
-3.42205
2.67507
-3.46375
2.94337
-3.47697
3.19168
-3.47543
3.42546
-3.46725
-3.4564
3.64758
0.629799
-2.02842
1.16392
-3.27481
1.57331
-3.53228
1.91884
-3.67036
2.2142
-3.71739
2.47427
-3.72379
2.70964
-3.71231
2.92768
-3.69344
3.13312
-3.67267
-3.65193
3.32866
0.596182
-2.62463
1.08282
-3.76148
1.445
-3.89449
1.75014
-3.9755
2.00795
-3.97519
2.23528
-3.9511
2.44196
-3.91897
2.63455
-3.886
2.81703
-3.85514
-3.82619
2.9913
0.547243
-3.17186
0.975797
-4.19005
1.29046
-4.20916
1.55551
-4.24055
1.7783
-4.19796
1.97623
-4.14901
2.15715
-4.09987
2.32636
-4.0552
2.48701
-4.01577
-3.97961
2.64044
0.489485
-3.66133
0.85469
-4.55525
1.12238
-4.47685
1.34861
-4.46678
1.53838
-4.38772
1.70832
-4.31894
1.86416
-4.2557
2.01025
-4.20127
2.14914
-4.15465
-4.11214
2.28169
0.42707
-4.08837
0.727828
-4.856
0.951144
-4.70015
1.13861
-4.65424
1.29643
-4.54552
1.43879
-4.4613
1.56945
-4.38634
1.69189
-4.32371
1.80811
-4.27085
-4.22238
1.91835
0.363399
-4.45175
0.601222
-5.09381
0.781754
-4.88068
0.930898
-4.80338
1.05756
-4.67217
1.17168
-4.57541
1.27606
-4.4907
1.37353
-4.42117
1.46572
-4.36303
-4.30913
1.55249
0.300352
-4.75208
0.478011
-5.27146
0.61765
-5.02031
0.728675
-4.91439
0.823939
-4.76743
0.908726
-4.66018
0.985707
-4.56767
1.05698
-4.49244
1.12391
-4.42994
-4.37122
1.18601
0.239107
-4.99118
0.360058
-5.3924
0.45969
-5.11993
0.53288
-4.98757
0.596447
-4.83098
0.650859
-4.71458
0.699264
-4.61607
0.743076
-4.53624
0.783422
-4.47028
0.819783
-4.40757
-0.270151
0.269696
-0.46123
0.190833
-0.619548
0.15808
-0.74307
0.12341
-0.828178
0.0850021
-0.870518
0.0422901
-0.865791
-0.00479771
-0.81274
-0.0530725
-0.71782
-0.0949403
-0.123025
-0.59482
-0.204232
0.473177
-0.382128
0.368042
-0.5108
0.286424
-0.598104
0.210439
-0.640338
0.127037
-0.630895
0.032658
-0.568159
-0.0676771
-0.455913
-0.165405
-0.305088
-0.245869
-0.300691
-0.127455
-0.149375
0.622195
-0.266065
0.484684
-0.335057
0.355264
-0.352071
0.227283
-0.301791
0.0765771
-0.18273
-0.0866079
-0.0100591
-0.240504
0.197232
-0.372825
0.426123
-0.474783
-0.543839
0.6692
-0.0861588
0.708992
-0.135028
0.533765
-0.1189
0.339227
-0.015352
0.123655
0.179243
-0.118132
0.430714
-0.338237
0.708836
-0.518741
0.998993
-0.663027
1.29954
-0.775419
-0.853339
1.60904
-0.0300794
0.739505
0.0013476
0.502771
0.14419
0.196637
0.405779
-0.137875
0.732738
-0.445119
1.08454
-0.690118
1.44769
-0.881949
1.81515
-1.03056
2.18356
-1.14381
-1.22353
2.55372
0.0070055
0.733016
0.151457
0.358903
0.459477
-0.111129
0.856114
-0.534395
1.27344
-0.862408
1.69623
-1.11292
2.1174
-1.30314
2.53303
-1.4462
2.93973
-1.55055
-1.62285
3.33905
0.0350403
0.698661
0.354437
0.0397103
0.806797
-0.563276
1.28018
-1.00765
1.751
-1.33315
2.20976
-1.57166
2.65115
-1.74452
3.07293
-1.868
3.47644
-1.95405
-2.01246
3.86605
0.127111
0.57112
0.597009
-0.430006
1.12328
-1.08944
1.63866
-1.52288
2.1264
-1.82078
2.58152
-2.02673
3.00556
-2.16853
3.40261
-2.26502
3.77807
-2.32953
-2.37085
4.13647
0.282615
0.288144
0.842
-0.989466
1.39485
-1.64224
1.90584
-2.03375
2.3712
-2.28605
2.79501
-2.45045
3.18351
-2.55698
3.54314
-2.62464
3.87994
-2.66631
-2.69037
4.19947
0.443934
1.05208
1.58862
2.06226
2.48538
2.86605
3.21232
3.53157
3.82913
4.10765
-0.343155
-0.251698
-0.113987
-0.229226
0.0923869
-0.206429
0.275518
-0.183174
0.438668
-0.16318
0.586432
-0.147786
0.721958
-0.13554
0.847416
-0.125469
0.964366
-0.116959
1.07398
-0.109617
1.17715
-0.103183
1.27461
-0.0974668
1.36694
-0.0923311
1.45461
-0.0876749
1.53802
-0.0834167
1.6175
-0.079489
1.69334
-0.0758406
1.76577
-0.0724341
1.83501
-0.0692414
1.90124
-0.0662402
1.96465
-0.063412
2.02539
-0.0607417
2.08361
-0.0582161
2.13943
-0.0558233
2.19299
-0.0535529
2.24438
-0.0513959
2.29373
-0.0493449
2.34113
-0.0473925
2.38666
-0.0455324
2.43042
-0.0437596
2.47249
-0.0420694
2.51295
-0.0404576
2.55187
-0.0389195
2.58932
-0.0374507
2.62537
-0.036047
2.66008
-0.0347044
2.6935
-0.0334197
2.72569
-0.0321899
2.7567
-0.0310125
2.78659
-0.0298847
2.81539
-0.0288044
2.84316
-0.0277696
2.86994
-0.0267781
2.89576
-0.025828
2.92068
-0.0249172
2.94472
-0.024044
2.96793
-0.0232067
2.99033
-0.0224039
3.01197
-0.0216342
3.03286
-0.0208962
3.05305
-0.0201884
3.07256
-0.0195095
3.09142
-0.0188584
3.10965
-0.0182336
3.12728
-0.0176341
3.14434
-0.0170586
3.16085
-0.0165061
3.17682
-0.0159754
3.19229
-0.0154657
3.20726
-0.0149759
3.22177
-0.0145052
3.23582
-0.0140524
3.24943
-0.0136169
3.26263
-0.0131976
3.27543
-0.0127938
3.28783
-0.0124049
3.29986
-0.0120301
3.31153
-0.0116688
3.32285
-0.0113205
3.33383
-0.0109845
3.34449
-0.0106605
3.35484
-0.010348
3.36489
-0.0100464
3.37464
-0.0097554
3.38412
-0.00947456
3.39332
-0.00920348
3.40226
-0.00894182
3.41095
-0.00868926
3.4194
-0.00844548
3.4276
-0.00821018
3.43559
-0.00798299
3.44335
-0.00776361
3.4509
-0.00755168
3.45825
-0.00734691
3.4654
-0.0071489
3.47235
-0.00695737
3.47913
-0.00677183
3.48572
-0.00659199
3.49213
-0.00641713
3.49838
-0.00624688
3.50446
-0.00608001
3.51038
-0.00591586
3.51613
-0.00575226
3.52171
-0.00558762
3.52713
-0.00541788
3.53237
-0.00523927
3.53741
-0.00504375
3.54224
-0.00482739
3.54682
-0.00457922
-0.004073
0.0910713
-0.470348
0.2789
-0.417195
0.446286
-0.373936
0.599876
-0.336857
0.741489
-0.30486
0.872093
-0.278439
0.99325
-0.256733
1.1063
-0.238548
1.2123
-0.222979
1.31209
-0.209423
1.40634
-0.197456
1.49562
-0.186755
1.58036
-0.177088
1.66096
-0.168283
1.73773
-0.160199
1.81094
-0.152718
1.88084
-0.14575
1.94763
-0.139231
2.0115
-0.133112
2.07261
-0.127355
2.13112
-0.121926
2.18717
-0.116798
2.24091
-0.111947
2.29243
-0.107352
2.34188
-0.102992
2.38933
-0.0988508
2.43491
-0.0949141
2.47868
-0.0911671
2.52075
-0.0875975
2.56119
-0.0841948
2.60008
-0.0809492
2.63747
-0.0778514
2.67345
-0.0748928
2.70807
-0.0720654
2.74138
-0.0693609
2.77345
-0.0667725
2.80433
-0.0642942
2.83406
-0.0619212
2.8627
-0.0596486
2.89028
-0.0574723
2.91687
-0.0553882
2.94249
-0.053392
2.96719
-0.0514795
2.99101
-0.0496467
3.01398
-0.0478902
3.03614
-0.0462064
3.05752
-0.0445924
3.07816
-0.0430453
3.09809
-0.0415625
3.11733
-0.0401413
3.13592
-0.0387789
3.15388
-0.0374728
3.17124
-0.0362202
3.18803
-0.0350187
3.20426
-0.0338658
3.21996
-0.0327592
3.23515
-0.0316967
3.24985
-0.0306764
3.26408
-0.0296965
3.27785
-0.0287552
3.2912
-0.0278503
3.30413
-0.0269803
3.31665
-0.0261432
3.32879
-0.0253378
3.34056
-0.0245624
3.35197
-0.0238157
3.36303
-0.0230964
3.37377
-0.0224034
3.38418
-0.0217355
3.39429
-0.0210918
3.4041
-0.0204712
3.41362
-0.0198728
3.42287
-0.0192956
3.43186
-0.0187388
3.44058
-0.0182016
3.44906
-0.0176832
3.4573
-0.0171829
3.46531
-0.0167001
3.4731
-0.0162342
3.48067
-0.0157844
3.48804
-0.0153503
3.49521
-0.014931
3.50218
-0.0145261
3.50897
-0.0141349
3.51557
-0.0137566
3.52201
-0.0133907
3.52827
-0.0130364
3.53437
-0.012693
3.54031
-0.0123592
3.5461
-0.0120343
3.55173
-0.0117159
3.55722
-0.0114028
3.56256
-0.0110908
3.56775
-0.0107767
3.57278
-0.0104529
3.57765
-0.0101121
3.58235
-0.00973844
3.58684
-0.00931837
3.59105
-0.00879354
-0.00812617
0.802746
-0.603953
0.924768
-0.539304
1.04321
-0.492458
1.15801
-0.451728
1.26781
-0.414709
1.3719
-0.382568
1.47038
-0.355243
1.56362
-0.331811
1.65199
-0.311369
1.73585
-0.293298
1.81553
-0.277152
1.89133
-0.262569
1.96351
-0.249286
2.03232
-0.237105
2.09797
-0.225855
2.16064
-0.215396
2.2205
-0.20562
2.27772
-0.196454
2.33244
-0.187841
2.38481
-0.17973
2.43496
-0.172076
2.48301
-0.164842
2.52906
-0.157997
2.57322
-0.15151
2.61558
-0.145354
2.65624
-0.139505
2.69527
-0.133941
2.73275
-0.128645
2.76875
-0.123596
2.80334
-0.118781
2.83658
-0.114185
2.86852
-0.109797
2.89924
-0.105604
2.92877
-0.101595
2.95717
-0.0977592
2.98448
-0.0940869
3.01076
-0.0905712
3.03605
-0.0872054
3.06038
-0.083983
3.08381
-0.080898
3.10636
-0.0779442
3.12809
-0.0751158
3.14901
-0.0724074
3.16918
-0.069814
3.18862
-0.0673306
3.20736
-0.0649523
3.22544
-0.0626742
3.24289
-0.0604919
3.25973
-0.058402
3.27598
-0.0564
3.29169
-0.0544821
3.30686
-0.0526441
3.32152
-0.0508818
3.33569
-0.0491915
3.34939
-0.0475698
3.36264
-0.0460132
3.37546
-0.0445187
3.38787
-0.0430836
3.39988
-0.0417057
3.4115
-0.0403823
3.42276
-0.0391104
3.43367
-0.0378877
3.44424
-0.036712
3.45448
-0.0355809
3.46441
-0.0344926
3.47404
-0.0334451
3.48338
-0.0324366
3.49244
-0.0314655
3.50124
-0.0305301
3.50977
-0.0296289
3.51806
-0.0287605
3.52611
-0.0279234
3.53393
-0.0271164
3.54153
-0.0263382
3.54892
-0.0255876
3.5561
-0.0248636
3.56308
-0.0241652
3.56987
-0.0234914
3.57647
-0.0228413
3.5829
-0.022214
3.58916
-0.0216086
3.59525
-0.0210243
3.60119
-0.02046
3.60696
-0.0199152
3.6126
-0.0193886
3.61808
-0.0188796
3.62343
-0.0183868
3.62865
-0.0179096
3.63374
-0.017446
3.6387
-0.0169951
3.64353
-0.0165534
3.64825
-0.0161195
3.65284
-0.0156871
3.65732
-0.0152521
3.66167
-0.0148036
3.66589
-0.0143313
3.66996
-0.0138127
3.67387
-0.0132285
3.67758
-0.0124988
-0.0116254
1.66856
-0.663531
1.73161
-0.602406
1.80064
-0.561542
1.87338
-0.524511
1.9471
-0.488466
2.02001
-0.455516
2.09119
-0.426442
2.16012
-0.400766
2.22654
-0.377807
2.29033
-0.357112
2.35151
-0.338342
2.4101
-0.321171
2.46618
-0.305374
2.51981
-0.290753
2.5711
-0.277148
2.62014
-0.264441
2.66704
-0.252532
2.71194
-0.24135
2.75492
-0.23083
2.7961
-0.220909
2.83555
-0.211532
2.87337
-0.202659
2.90963
-0.194252
2.94439
-0.186273
2.97773
-0.178693
3.00971
-0.171482
3.04039
-0.164617
3.06982
-0.158075
3.09806
-0.151835
3.12516
-0.145879
3.15117
-0.140192
3.17614
-0.134759
3.2001
-0.129566
3.22311
-0.124601
3.2452
-0.11985
3.26641
-0.115303
3.2868
-0.110954
3.30639
-0.106794
3.32522
-0.102815
3.34333
-0.0990092
3.36075
-0.0953684
3.37752
-0.0918857
3.39367
-0.0885541
3.40922
-0.0853669
3.42421
-0.0823172
3.43865
-0.0793987
3.45258
-0.0766045
3.46602
-0.0739292
3.47898
-0.0713685
3.4915
-0.0689159
3.50358
-0.0665667
3.51525
-0.0643153
3.52652
-0.0621561
3.53741
-0.0600849
3.54794
-0.0580976
3.55812
-0.0561903
3.56796
-0.054359
3.57747
-0.0526009
3.58668
-0.050914
3.59559
-0.0492944
3.60422
-0.0477387
3.61258
-0.0462439
3.62067
-0.0448072
3.62851
-0.0434262
3.63612
-0.0420982
3.6435
-0.040821
3.65065
-0.0395923
3.65759
-0.03841
3.66434
-0.037272
3.67088
-0.0361766
3.67724
-0.0351216
3.68343
-0.0341055
3.68943
-0.0331265
3.69528
-0.0321831
3.70096
-0.0312736
3.7065
-0.0303966
3.71188
-0.0295511
3.71713
-0.0287359
3.72223
-0.02795
3.72721
-0.0271923
3.73206
-0.0264616
3.73679
-0.025757
3.74141
-0.0250773
3.74592
-0.0244216
3.75032
-0.0237884
3.75461
-0.0231771
3.75881
-0.0225859
3.76291
-0.0220142
3.76693
-0.0214593
3.77085
-0.0209204
3.77469
-0.0203932
3.77845
-0.0198758
3.78212
-0.0193608
3.78571
-0.0188433
3.78922
-0.0183098
3.79263
-0.0177483
3.79595
-0.0171304
3.79916
-0.0164339
3.80222
-0.0155618
-0.0145284
2.56967
-0.679494
2.59697
-0.629721
2.63167
-0.596262
2.67089
-0.563756
2.71303
-0.530628
2.75664
-0.499153
2.80057
-0.470388
2.84403
-0.444249
2.88659
-0.420379
2.92796
-0.398505
2.968
-0.378397
3.00663
-0.359808
3.04382
-0.342571
3.07958
-0.326522
3.11396
-0.311535
3.14702
-0.29751
3.17882
-0.284337
3.2094
-0.271935
3.2388
-0.26023
3.26705
-0.249156
3.29418
-0.238663
3.32023
-0.228711
3.34524
-0.219261
3.36924
-0.210275
3.39227
-0.20172
3.41436
-0.193572
3.43555
-0.185805
3.45587
-0.178394
3.47536
-0.17132
3.49404
-0.164562
3.51195
-0.158102
3.52911
-0.15192
3.54555
-0.146005
3.56131
-0.140353
3.57641
-0.134952
3.5909
-0.129791
3.60481
-0.124861
3.61816
-0.120151
3.631
-0.115651
3.64334
-0.111351
3.65521
-0.107241
3.66664
-0.103313
3.67764
-0.0995566
3.68824
-0.095964
3.69845
-0.0925269
3.70829
-0.0892379
3.71777
-0.086089
3.72691
-0.0830736
3.73573
-0.0801867
3.74423
-0.0774205
3.75244
-0.0747701
3.76035
-0.0722287
3.76798
-0.0697908
3.77535
-0.0674525
3.78246
-0.06521
3.78933
-0.0630595
3.79596
-0.060995
3.80238
-0.0590151
3.80858
-0.0571181
3.81458
-0.0552977
3.8204
-0.0535502
3.82602
-0.0518725
3.83148
-0.0502617
3.83677
-0.0487148
3.8419
-0.0472287
3.84688
-0.0458008
3.85171
-0.0444283
3.85641
-0.0431089
3.86098
-0.0418404
3.86542
-0.0406204
3.86974
-0.0394466
3.87396
-0.0383171
3.87806
-0.0372296
3.88206
-0.0361827
3.88596
-0.0351743
3.88976
-0.0342027
3.89348
-0.0332672
3.89711
-0.0323661
3.90066
-0.0314985
3.90413
-0.0306632
3.90752
-0.0298586
3.91085
-0.0290837
3.91411
-0.0283375
3.9173
-0.0276187
3.92044
-0.0269257
3.92352
-0.0262579
3.92655
-0.0256131
3.92952
-0.0249909
3.93245
-0.0243881
3.93533
-0.0238039
3.93817
-0.0232335
3.94097
-0.022675
3.94373
-0.0221201
3.94645
-0.0215637
3.94913
-0.0209907
3.95177
-0.0203884
3.95437
-0.0197245
3.95691
-0.0189747
3.95937
-0.0180304
-0.0169052
3.33522
-0.675668
3.34629
-0.6408
3.36469
-0.614662
3.38678
-0.585858
3.41167
-0.555533
3.43849
-0.525983
3.4662
-0.498111
3.494
-0.472066
3.52138
-0.44778
3.54802
-0.425159
3.57372
-0.404109
3.59837
-0.384473
3.62193
-0.366139
3.64439
-0.348991
3.66576
-0.332914
3.68608
-0.317829
3.70537
-0.303631
3.72366
-0.290236
3.74102
-0.277584
3.75748
-0.265617
3.77309
-0.254281
3.78792
-0.243534
3.80199
-0.233335
3.81536
-0.223643
3.82807
-0.214426
3.84015
-0.20566
3.85166
-0.197312
3.86263
-0.189357
3.87308
-0.181773
3.88306
-0.174541
3.8926
-0.167639
3.90173
-0.161052
3.91049
-0.154767
3.91891
-0.148772
3.92701
-0.143047
3.93479
-0.137576
3.94228
-0.132349
3.94948
-0.127352
3.9564
-0.122575
3.96306
-0.118008
3.96946
-0.113641
3.97561
-0.109463
3.98152
-0.105468
3.9872
-0.101646
3.99266
-0.0979892
3.99791
-0.0944899
4.00296
-0.0911402
4.00782
-0.0879318
4.01249
-0.084859
4.01698
-0.0819122
4.0213
-0.0790877
4.02545
-0.0763812
4.02945
-0.0737887
4.0333
-0.0713067
4.03702
-0.0689304
4.04062
-0.066656
4.0441
-0.0644763
4.04747
-0.0623887
4.05074
-0.0603899
4.05392
-0.0584731
4.057
-0.0566355
4.06
-0.0548737
4.06292
-0.0531839
4.06577
-0.0515629
4.06855
-0.0500071
4.07126
-0.0485136
4.07391
-0.0470792
4.0765
-0.0457016
4.07904
-0.0443779
4.08153
-0.0431056
4.08396
-0.0418822
4.08635
-0.0407059
4.08869
-0.0395743
4.091
-0.0384865
4.09326
-0.0374404
4.09549
-0.0364345
4.09769
-0.0354678
4.09986
-0.0345381
4.10201
-0.0336445
4.10413
-0.0327858
4.10623
-0.0319602
4.10831
-0.031167
4.11038
-0.0304052
4.11243
-0.0296731
4.11448
-0.0289687
4.11651
-0.0282919
4.11854
-0.0276402
4.12056
-0.0270131
4.12258
-0.0264072
4.12459
-0.0258219
4.12661
-0.0252517
4.12863
-0.0246954
4.13066
-0.0241442
4.13268
-0.0235937
4.13472
-0.0230281
4.13677
-0.0224356
4.13883
-0.0217828
4.14089
-0.0210424
4.14297
-0.0201049
-0.0189717
3.84525
-0.65487
3.84081
-0.636345
3.84553
-0.619381
3.85556
-0.595888
3.86968
-0.569658
3.88706
-0.543374
3.9067
-0.517757
3.92767
-0.493047
3.9493
-0.469431
3.97113
-0.446995
3.99278
-0.425773
4.01401
-0.405715
4.03462
-0.386765
4.05449
-0.368862
4.0735
-0.351937
4.09159
-0.335927
4.10872
-0.320765
4.12487
-0.30639
4.14003
-0.292748
4.15421
-0.279795
4.16741
-0.267481
4.17965
-0.255773
4.19095
-0.244638
4.20135
-0.234043
4.21088
-0.223959
4.21958
-0.214363
4.2275
-0.205226
4.23467
-0.196528
4.24115
-0.188252
4.24698
-0.18038
4.25224
-0.172894
4.25696
-0.165775
4.2612
-0.159003
4.26499
-0.152566
4.26839
-0.146442
4.27142
-0.140613
4.27414
-0.135066
4.27657
-0.129785
4.27876
-0.124757
4.28072
-0.119968
4.28248
-0.115406
4.28408
-0.11106
4.28553
-0.106918
4.28685
-0.10297
4.28806
-0.0992037
4.28918
-0.0956109
4.29023
-0.0921821
4.2912
-0.0889078
4.29212
-0.085781
4.293
-0.0827944
4.29386
-0.0799423
4.2947
-0.0772176
4.29552
-0.0746139
4.29634
-0.0721234
4.29715
-0.06974
4.29795
-0.0674603
4.29875
-0.0652768
4.29955
-0.0631851
4.30034
-0.0611832
4.30113
-0.0592655
4.30192
-0.0574282
4.30272
-0.0556679
4.30351
-0.0539811
4.30431
-0.0523644
4.30512
-0.0508147
4.30593
-0.049329
4.30676
-0.0479039
4.30759
-0.0465365
4.30844
-0.0452234
4.30929
-0.0439624
4.31016
-0.042752
4.31105
-0.041591
4.31195
-0.0404776
4.31287
-0.0394105
4.31382
-0.0383876
4.31479
-0.037407
4.31579
-0.0364675
4.31682
-0.0355669
4.31788
-0.0347039
4.31897
-0.0338773
4.32009
-0.0330851
4.32125
-0.0323263
4.32245
-0.0315996
4.32368
-0.0309038
4.32494
-0.0302368
4.32625
-0.0295983
4.32759
-0.0289856
4.32898
-0.0283982
4.3304
-0.0278329
4.33187
-0.0272887
4.33338
-0.0267606
4.33493
-0.0262479
4.33653
-0.0257419
4.33817
-0.0252399
4.33987
-0.0247273
4.34163
-0.0241943
4.34346
-0.0236108
4.34537
-0.0229483
4.34737
-0.0221053
-0.0210623
4.10288
-0.621277
4.08396
-0.617416
4.0752
-0.610608
4.07353
-0.594218
4.07739
-0.573523
4.08564
-0.551632
4.09727
-0.529406
4.11143
-0.507218
4.1274
-0.485413
4.14463
-0.464242
4.1627
-0.443859
4.18129
-0.424321
4.20016
-0.405645
4.21911
-0.387821
4.23799
-0.370821
4.25666
-0.354612
4.27505
-0.339156
4.29306
-0.324412
4.31065
-0.310339
4.32775
-0.296901
4.34433
-0.284062
4.36035
-0.271793
4.37578
-0.260068
4.39059
-0.248859
4.40477
-0.238138
4.41829
-0.227889
4.43116
-0.21809
4.44335
-0.208719
4.45485
-0.199757
4.46566
-0.191189
4.47576
-0.182998
4.48515
-0.175166
4.49383
-0.16768
4.50179
-0.160532
4.50906
-0.153707
4.51564
-0.147193
4.52155
-0.140977
4.52681
-0.135048
4.53145
-0.129395
4.53549
-0.124009
4.53896
-0.118878
4.5419
-0.113994
4.54433
-0.109347
4.54628
-0.104927
4.54781
-0.100726
4.54893
-0.0967361
4.5497
-0.092947
4.55014
-0.0893514
4.5503
-0.0859435
4.55022
-0.0827153
4.54994
-0.0796585
4.54948
-0.0767637
4.54889
-0.0740224
4.54819
-0.0714251
4.54741
-0.068962
4.54658
-0.0666279
4.54572
-0.0644126
4.54484
-0.06231
4.54397
-0.0603158
4.54313
-0.0584215
4.54232
-0.0566206
4.54156
-0.0549071
4.54085
-0.0532756
4.54021
-0.0517211
4.53963
-0.0502389
4.53913
-0.0488248
4.5387
-0.0474747
4.53834
-0.0461851
4.53807
-0.0449529
4.53789
-0.0437753
4.53778
-0.0426495
4.53776
-0.0415732
4.53783
-0.0405436
4.53798
-0.0395588
4.5382
-0.0386166
4.53851
-0.0377155
4.5389
-0.0368542
4.53936
-0.0360311
4.5399
-0.035245
4.54052
-0.0344949
4.54121
-0.0337785
4.54198
-0.0330952
4.54282
-0.0324436
4.54374
-0.0318229
4.54474
-0.031231
4.54581
-0.0306677
4.54695
-0.0301303
4.54817
-0.0296183
4.54946
-0.029128
4.55083
-0.0286596
4.55228
-0.0282081
4.55381
-0.0277736
4.55541
-0.0273487
4.55711
-0.026933
4.55889
-0.0265141
4.56079
-0.0260877
4.56281
-0.0256294
4.56497
-0.0251142
4.56734
-0.024469
-0.0236635
4.1599
-0.581689
4.13293
-0.590429
4.11551
-0.593177
4.10644
-0.585145
4.10403
-0.571108
4.10665
-0.554257
4.11314
-0.535913
4.12266
-0.516743
4.13449
-0.497256
4.14808
-0.477842
4.16298
-0.45877
4.17885
-0.440207
4.19544
-0.422244
4.21254
-0.404924
4.22997
-0.388267
4.24762
-0.372269
4.26538
-0.356919
4.28315
-0.342194
4.30088
-0.328072
4.31851
-0.314534
4.33599
-0.301548
4.35329
-0.289093
4.37036
-0.277148
4.38719
-0.265691
4.40375
-0.254703
4.42003
-0.244166
4.436
-0.234062
4.45165
-0.224372
4.46697
-0.215079
4.48195
-0.206169
4.49658
-0.197628
4.51085
-0.189439
4.52476
-0.181589
4.5383
-0.174066
4.55145
-0.166858
4.5642
-0.159952
4.57657
-0.153338
4.58852
-0.147004
4.60007
-0.140939
4.61119
-0.135134
4.62189
-0.12958
4.63216
-0.124266
4.642
-0.119183
4.6514
-0.114322
4.66034
-0.109676
4.66884
-0.105235
4.67689
-0.100993
4.68448
-0.0969412
4.69161
-0.093073
4.69827
-0.0893807
4.70447
-0.0858582
4.71021
-0.0824997
4.71549
-0.0793003
4.72032
-0.0762539
4.72471
-0.0733554
4.72868
-0.0706005
4.73225
-0.0679825
4.73544
-0.065496
4.73826
-0.0631377
4.74074
-0.0609031
4.74291
-0.0587869
4.74478
-0.0567844
4.7464
-0.054891
4.74778
-0.0531026
4.74895
-0.0514145
4.74995
-0.0498225
4.7508
-0.0483231
4.75153
-0.0469124
4.75216
-0.0455857
4.75272
-0.0443392
4.75324
-0.0431688
4.75374
-0.0420701
4.75423
-0.0410386
4.75474
-0.0400706
4.75529
-0.039162
4.75588
-0.0383092
4.75653
-0.0375082
4.75726
-0.0367562
4.75806
-0.0360497
4.75895
-0.0353866
4.75994
-0.0347632
4.76102
-0.0341779
4.7622
-0.0336277
4.76349
-0.0331109
4.76488
-0.0326243
4.76638
-0.0321672
4.76799
-0.0317366
4.7697
-0.0313322
4.77153
-0.0309505
4.77346
-0.0305916
4.7755
-0.0302512
4.77766
-0.0299293
4.77993
-0.0296201
4.78232
-0.0293235
4.78484
-0.0290325
4.7875
-0.028747
4.79033
-0.0284586
4.79336
-0.0281515
4.79669
-0.0277929
-0.0273651
4.0639
-0.537922
4.02936
-0.555868
4.00288
-0.566683
3.98597
-0.568237
3.97736
-0.562501
3.97521
-0.552111
3.97809
-0.538806
3.98496
-0.523619
3.99495
-0.507257
4.00736
-0.490265
4.02162
-0.473051
4.03731
-0.455905
4.05407
-0.439016
4.07164
-0.422505
4.08981
-0.406447
4.10841
-0.390881
4.12732
-0.37583
4.14641
-0.361301
4.16563
-0.347289
4.18487
-0.333788
4.2041
-0.320785
4.22328
-0.308269
4.24235
-0.296223
4.26129
-0.284634
4.28007
-0.273488
4.29867
-0.262769
4.31707
-0.252466
4.33526
-0.242563
4.35323
-0.233046
4.37096
-0.223904
4.38846
-0.215122
4.4057
-0.206689
4.42271
-0.198591
4.43946
-0.190818
4.45596
-0.183359
4.47221
-0.176203
4.48821
-0.16934
4.50397
-0.162758
4.51948
-0.156447
4.53474
-0.150398
4.54976
-0.144601
4.56454
-0.139047
4.57909
-0.133727
4.5934
-0.128631
4.60747
-0.123751
4.62132
-0.11908
4.63493
-0.114608
4.64832
-0.110327
4.66148
-0.106231
4.67441
-0.102312
4.68711
-0.0985615
4.69958
-0.094974
4.71183
-0.0915423
4.72383
-0.0882615
4.7356
-0.0851251
4.74713
-0.0821275
4.75841
-0.0792621
4.76944
-0.0765245
4.78021
-0.0739098
4.79072
-0.0714133
4.80096
-0.0690301
4.81093
-0.0667559
4.82063
-0.0645863
4.83004
-0.0625175
4.83917
-0.0605453
4.84802
-0.0586669
4.85657
-0.056878
4.86483
-0.0551753
4.8728
-0.0535554
4.88048
-0.0520166
4.88786
-0.0505555
4.89496
-0.0491699
4.90178
-0.0478571
4.90833
-0.0466154
4.9146
-0.0454416
4.92063
-0.0443344
4.92641
-0.043291
4.93196
-0.0423103
4.9373
-0.0413895
4.94244
-0.0405279
4.9474
-0.0397222
4.9522
-0.0389722
4.95684
-0.0382743
4.96136
-0.0376285
4.96577
-0.0370311
4.97008
-0.0364814
4.97432
-0.0359762
4.9785
-0.0355153
4.98265
-0.0350948
4.98677
-0.0347149
4.99089
-0.0343707
4.99502
-0.0340627
4.99919
-0.0337843
5.0034
-0.0335382
5.00769
-0.0333176
5.01207
-0.0331301
5.01659
-0.0329762
5.02131
-0.0328743
5.02639
-0.032871
-0.0331236
5.11392
-0.483907
-5.16792
5.05908
-0.501011
5.00818
-0.515766
4.96227
-0.52233
4.92185
-0.522073
4.88678
-0.517045
4.85668
-0.508705
4.83106
-0.498005
4.80944
-0.485639
4.79132
-0.472159
4.77627
-0.458007
4.76387
-0.44351
4.75376
-0.428907
4.74561
-0.414362
4.73915
-0.399993
4.73414
-0.385879
4.73038
-0.372074
4.72769
-0.358613
4.72591
-0.345517
4.72492
-0.332799
4.72459
-0.320467
4.72484
-0.308521
4.72558
-0.296961
4.72672
-0.285782
4.72821
-0.27498
4.72999
-0.26455
4.73201
-0.254484
4.73422
-0.244775
4.73658
-0.235415
4.73907
-0.226395
4.74166
-0.217707
4.74431
-0.209342
4.74701
-0.201292
4.74974
-0.193548
4.75248
-0.1861
4.75522
-0.178942
4.75794
-0.172063
4.76064
-0.165455
4.76331
-0.15911
4.76593
-0.153019
4.7685
-0.147174
4.77102
-0.141566
4.77348
-0.136187
4.77588
-0.13103
4.77822
-0.126085
4.78048
-0.121347
4.78268
-0.116806
4.78481
-0.112455
4.78687
-0.108287
4.78885
-0.104296
4.79076
-0.100474
4.7926
-0.0968146
4.79437
-0.0933115
4.79607
-0.0899589
4.7977
-0.0867507
4.79925
-0.0836813
4.80073
-0.0807449
4.80215
-0.0779363
4.80349
-0.0752505
4.80475
-0.0726826
4.80595
-0.0702279
4.80708
-0.0678816
4.80813
-0.0656395
4.80911
-0.0634971
4.81002
-0.0614505
4.81084
-0.0594959
4.81159
-0.0576291
4.81227
-0.0558471
4.81286
-0.0541462
4.81336
-0.0525235
4.81378
-0.0509751
4.81411
-0.0494991
4.81435
-0.0480922
4.81448
-0.0467522
4.81452
-0.0454762
4.81444
-0.0442624
4.81426
-0.043108
4.81396
-0.0420118
4.81354
-0.0409708
4.813
-0.0399843
4.81233
-0.0390494
4.81152
-0.0381658
4.81058
-0.0373304
4.80949
-0.0365434
4.80826
-0.035801
4.80688
-0.0351048
4.80536
-0.0344504
4.80368
-0.03384
4.80186
-0.0332685
4.79988
-0.0327389
4.79776
-0.032246
4.79549
-0.0317935
4.79308
-0.0313761
4.79054
-0.0310004
4.78789
-0.0306624
4.78513
-0.0303768
4.78231
-0.0301481
4.77944
-0.0300139
4.77664
-0.0300684
-0.0306439
5.15145
-0.428521
-5.20682
5.1002
-0.449751
5.05217
-0.467724
5.00895
-0.479099
4.97079
-0.483909
4.93741
-0.483667
4.90842
-0.47972
4.88342
-0.473006
4.86199
-0.464219
4.84375
-0.453927
4.82833
-0.442589
4.81538
-0.430564
4.80459
-0.418122
4.79568
-0.405463
4.78842
-0.392736
4.78258
-0.380049
4.77798
-0.367483
4.77446
-0.355097
4.77187
-0.342932
4.77009
-0.33102
4.769
-0.319382
4.76851
-0.308034
4.76853
-0.296988
4.76899
-0.286248
4.76983
-0.275821
4.77099
-0.265708
4.77241
-0.255908
4.77405
-0.246421
4.77588
-0.237244
4.77786
-0.228373
4.77995
-0.219804
4.78214
-0.211533
4.78441
-0.203553
4.78672
-0.195859
4.78906
-0.188445
4.79142
-0.181304
4.79379
-0.17443
4.79615
-0.167817
4.7985
-0.161456
4.80082
-0.155341
4.80311
-0.149464
4.80537
-0.143819
4.80758
-0.138399
4.80974
-0.133196
4.81186
-0.128202
4.81393
-0.123411
4.81594
-0.118817
4.8179
-0.114411
4.8198
-0.110187
4.82164
-0.106139
4.82342
-0.10226
4.82515
-0.0985435
4.82683
-0.0949838
4.82844
-0.091575
4.83
-0.0883114
4.83151
-0.0851873
4.83296
-0.0821972
4.83436
-0.0793359
4.83571
-0.0765985
4.83701
-0.0739801
4.83825
-0.0714761
4.83945
-0.0690818
4.84061
-0.0667927
4.84171
-0.0646047
4.84278
-0.0625138
4.8438
-0.060516
4.84478
-0.0586075
4.84571
-0.0567847
4.84661
-0.0550444
4.84747
-0.0533832
4.84829
-0.0517978
4.84908
-0.0502855
4.84983
-0.0488435
4.85055
-0.0474689
4.85123
-0.0461595
4.85188
-0.0449126
4.8525
-0.0437259
4.85308
-0.0425974
4.85364
-0.0415249
4.85416
-0.0405065
4.85465
-0.0395404
4.85511
-0.0386248
4.85553
-0.0377579
4.85593
-0.0369383
4.85629
-0.0361638
4.85662
-0.0354342
4.85692
-0.0347465
4.85718
-0.0341011
4.8574
-0.0334952
4.8576
-0.0329293
4.85775
-0.032401
4.85787
-0.0319117
4.85795
-0.0314596
4.858
-0.0310487
4.85802
-0.0306805
4.85801
-0.0303652
4.85797
-0.0301142
4.85792
-0.0299612
4.8578
-0.029951
-0.0302207
5.17698
-0.374685
-5.2308
5.12824
-0.400996
5.08307
-0.422542
5.04197
-0.437998
5.00524
-0.447173
4.97275
-0.451167
4.94422
-0.451189
4.91936
-0.448146
4.89786
-0.442717
4.87939
-0.43546
4.86364
-0.426838
4.85029
-0.417225
4.83908
-0.406911
4.82974
-0.396122
4.82203
-0.385033
4.81575
-0.373778
4.81073
-0.36246
4.80679
-0.351159
4.80379
-0.339938
4.80161
-0.328845
4.80014
-0.317916
4.79928
-0.30718
4.79895
-0.29666
4.79907
-0.286373
4.79958
-0.276332
4.80042
-0.266547
4.80154
-0.257026
4.80288
-0.247772
4.80443
-0.238789
4.80613
-0.230077
4.80796
-0.221638
4.8099
-0.213469
4.81191
-0.205569
4.81399
-0.197934
4.81611
-0.190562
4.81825
-0.183448
4.82041
-0.176588
4.82257
-0.169976
4.82472
-0.163607
4.82686
-0.157475
4.82897
-0.151575
4.83105
-0.145901
4.8331
-0.140445
4.8351
-0.135203
4.83707
-0.130167
4.83899
-0.125331
4.84086
-0.120689
4.84269
-0.116234
4.84446
-0.11196
4.84618
-0.10786
4.84785
-0.10393
4.84947
-0.100162
4.85104
-0.0965511
4.85255
-0.0930913
4.85402
-0.0897772
4.85544
-0.0866034
4.8568
-0.0835646
4.85812
-0.0806556
4.8594
-0.0778715
4.86063
-0.0752076
4.86181
-0.0726592
4.86295
-0.0702217
4.86405
-0.0678908
4.8651
-0.0656623
4.86612
-0.0635322
4.8671
-0.0614966
4.86805
-0.0595516
4.86896
-0.0576939
4.86983
-0.0559198
4.87067
-0.0542263
4.87149
-0.05261
4.87227
-0.0510681
4.87302
-0.0495977
4.87375
-0.0481962
4.87445
-0.046861
4.87513
-0.0455896
4.87578
-0.0443798
4.87641
-0.0432292
4.87703
-0.042136
4.87762
-0.041098
4.87819
-0.0401135
4.87875
-0.0391806
4.87929
-0.0382977
4.87981
-0.0374631
4.88032
-0.0366754
4.88082
-0.0359332
4.88131
-0.0352351
4.88179
-0.0345801
4.88226
-0.0339669
4.88273
-0.033395
4.88319
-0.0328636
4.88365
-0.032373
4.88412
-0.0319236
4.88458
-0.031518
4.88506
-0.0311598
4.88556
-0.0308567
4.88606
-0.0306199
4.88657
-0.0304702
4.88705
-0.0304287
-0.0305146
5.19162
-0.323365
-5.24293
5.14529
-0.354654
5.10271
-0.379948
5.06384
-0.399113
5.02888
-0.412205
4.99779
-0.420074
4.97036
-0.423762
4.94634
-0.424123
4.92545
-0.421822
4.9074
-0.417408
4.8919
-0.411343
4.87868
-0.404012
4.8675
-0.395724
4.85809
-0.386725
4.85027
-0.377212
4.84383
-0.36734
4.8386
-0.357233
4.83443
-0.346992
4.83118
-0.336696
4.82874
-0.326407
4.82699
-0.316177
4.82586
-0.306047
4.82525
-0.296051
4.82509
-0.286216
4.82531
-0.276562
4.82587
-0.267109
4.82671
-0.257869
4.82779
-0.248853
4.82907
-0.240068
4.83051
-0.231522
4.83209
-0.223218
4.83378
-0.215158
4.83555
-0.207344
4.8374
-0.199776
4.83929
-0.192452
4.84121
-0.185372
4.84315
-0.178531
4.84511
-0.171928
4.84706
-0.165558
4.849
-0.159417
4.85092
-0.1535
4.85283
-0.147802
4.8547
-0.142318
4.85654
-0.137043
4.85834
-0.131971
4.86011
-0.127095
4.86183
-0.122411
4.86351
-0.117913
4.86515
-0.113595
4.86674
-0.10945
4.86828
-0.105473
4.86978
-0.101659
4.87123
-0.0980016
4.87264
-0.0944957
4.87399
-0.0911359
4.87531
-0.0879169
4.87658
-0.0848337
4.8778
-0.0818811
4.87899
-0.0790543
4.88013
-0.0763486
4.88123
-0.0737595
4.88229
-0.0712825
4.88331
-0.0689132
4.8843
-0.0666475
4.88525
-0.0644814
4.88616
-0.062411
4.88704
-0.0604326
4.88789
-0.0585426
4.88871
-0.0567376
4.8895
-0.0550144
4.89026
-0.0533697
4.89099
-0.0518007
4.8917
-0.0503045
4.89238
-0.0488784
4.89304
-0.0475198
4.89367
-0.0462263
4.89429
-0.0449956
4.89489
-0.0438254
4.89546
-0.0427137
4.89602
-0.0416585
4.89657
-0.0406579
4.8971
-0.0397103
4.89761
-0.0388138
4.89812
-0.0379669
4.89861
-0.0371683
4.89909
-0.0364165
4.89957
-0.0357104
4.90004
-0.0350489
4.9005
-0.0344312
4.90096
-0.0338565
4.90143
-0.0333247
4.90189
-0.032836
4.90236
-0.0323915
4.90283
-0.0319934
4.90332
-0.0316456
4.90381
-0.031354
4.90432
-0.0311276
4.90483
-0.0309776
4.90531
-0.0309115
-0.0309186
5.19938
-0.275464
-5.24727
5.156
-0.311263
5.11625
-0.340181
5.07988
-0.362734
5.04698
-0.379301