/*--------------------------------*- C++ -*----------------------------------*\
  =========                 |
  \\      /  F ield         | OpenFOAM: The Open Source CFD Toolbox
   \\    /   O peration     | Website:  https://openfoam.org
    \\  /    A nd           | Version:  8
     \\/     M anipulation  |
\*---------------------------------------------------------------------------*/
FoamFile
{
    version     2.0;
    format      ascii;
    class       volVectorField;
    location    "2.999969291";
    object      U;
}
// * * * * * * * * * * * * * * * * * * * * * * * * * * * * * * * * * * * * * //

dimensions      [0 1 -1 0 0 0 0];

internalField   nonuniform List<vector> 
6800
(
(26.6353 4.69992 -4.75101e-15)
(70.9629 -19.4324 0)
(96.1161 -19.7609 1.17153e-15)
(111.132 -18.3666 -1.98283e-15)
(120.517 -16.7447 -4.30486e-19)
(126.531 -15.0442 4.55436e-19)
(130.392 -13.4653 -1.56013e-15)
(132.86 -12.0733 1.49127e-15)
(134.465 -10.8215 0)
(135.491 -9.72604 -6.90148e-16)
(47.1809 -2.68406 6.07995e-15)
(87.949 -26.2499 -6.63973e-16)
(110.442 -21.9587 0)
(122.547 -19.1448 0)
(129.54 -16.6867 0)
(133.706 -14.4436 8.02073e-16)
(136.139 -12.5645 -7.68994e-16)
(137.515 -11.0445 1.47872e-15)
(138.275 -9.81205 7.16365e-16)
(138.624 -8.92908 -6.93435e-16)
(67.9718 -7.94791 -2.15829e-15)
(104.435 -32.085 -1.15877e-15)
(123.39 -23.0724 0)
(132.404 -19.3304 -1.7556e-15)
(137.103 -16.1719 -8.25715e-16)
(139.57 -13.5106 -8.68212e-19)
(140.747 -11.4219 1.52906e-15)
(141.202 -9.80304 -1.4833e-15)
(141.272 -8.53107 1.44707e-15)
(141.092 -7.5983 -1.40913e-15)
(89.2565 -10.3889 1.70094e-15)
(120.489 -36.1081 5.94054e-18)
(135.258 -22.7024 0)
(141.138 -18.714 8.52196e-16)
(143.668 -15.0205 5.51908e-19)
(144.599 -12.1118 7.88509e-16)
(144.693 -9.90972 0)
(144.383 -8.23002 1.50279e-15)
(143.897 -6.92453 9.26128e-19)
(143.297 -5.94259 0)
(109.976 -9.67283 6.979e-16)
(135.808 -37.8534 4.81933e-16)
(146.094 -20.6338 4.39109e-16)
(148.989 -17.1299 8.3478e-16)
(149.524 -13.0545 -4.04948e-16)
(149.092 -10.0991 3.97957e-16)
(148.25 -7.88536 -7.77403e-16)
(147.286 -6.20829 1.14658e-15)
(146.322 -4.91638 -1.50214e-15)
(145.353 -3.93035 -1.84751e-15)
(129.272 -5.8419 -1.22121e-15)
(150.057 -37.0791 4.43545e-16)
(155.823 -16.7865 -4.2709e-16)
(156.042 -14.4401 4.11196e-16)
(154.784 -10.1226 -1.22035e-15)
(153.159 -7.34975 8.01175e-16)
(151.5 -5.23939 0)
(149.957 -3.65012 -7.81725e-16)
(148.562 -2.44376 3.85725e-16)
(147.248 -1.51036 3.81269e-16)
(146.429 0.807963 0)
(162.881 -33.732 4.24572e-16)
(164.287 -11.219 4.18384e-16)
(162.235 -10.5665 7.1175e-19)
(159.41 -6.15312 -4.08369e-16)
(156.764 -3.80351 4.07462e-16)
(154.388 -1.91095 4.04347e-16)
(152.329 -0.51016 4.02196e-16)
(150.542 0.518395 -1.59505e-15)
(148.901 1.34247 1.18438e-15)
(160.901 9.82235 2.46488e-16)
(173.925 -27.9 -4.11423e-16)
(171.283 -4.12181 -4.13543e-16)
(167.423 -5.51434 -6.20441e-16)
(163.27 -1.1602 1.24359e-15)
(159.773 0.535269 -4.14388e-16)
(156.785 2.09529 -4.15993e-16)
(154.277 3.19667 4.15528e-16)
(152.146 3.94956 -8.27563e-16)
(150.207 4.61547 -6.19975e-16)
(172.301 20.6459 -1.14897e-16)
(182.849 -19.813 9.97795e-17)
(176.6 4.21152 0)
(171.407 0.639861 2.07455e-16)
(166.185 4.72895 0)
(162.018 5.58391 -3.19785e-16)
(158.529 6.70593 3.21532e-16)
(155.654 7.40065 0)
(153.248 7.7875 -1.08002e-16)
(151.052 8.25977 3.24496e-16)
(180.403 32.6662 0)
(189.355 -9.80793 -9.87316e-17)
(180.064 13.3992 -5.16149e-17)
(174.008 7.73823 5.22981e-17)
(167.971 11.3125 1.91668e-31)
(163.324 11.2111 -1.1028e-16)
(159.469 11.7948 1.10967e-16)
(156.327 11.9877 1.1284e-16)
(153.732 11.9388 1.13894e-16)
(151.329 12.1857 -3.43093e-16)
(-9.73891 4.49283 0)
(-14.2701 3.07953 -1.8089e-16)
(-19.3905 2.10807 0)
(-22.5521 1.33299 0)
(-24.1432 0.614587 0)
(-24.3497 -0.108967 1.48064e-16)
(-23.3107 -0.853708 -1.46708e-16)
(-21.1441 -1.59118 -1.44938e-16)
(-18.1381 -2.19977 2.89853e-16)
(-14.4791 -2.55901 8.36148e-20)
(-9.50785 12.1171 3.69032e-16)
(-12.5996 8.36354 2.40392e-16)
(-16.7836 5.9763 0)
(-18.9852 3.83394 4.04067e-16)
(-19.4643 1.71008 0)
(-18.4369 -0.483408 -2.0298e-16)
(-15.9772 -2.73388 2.02191e-16)
(-12.4814 -4.85946 0)
(-8.33873 -6.55319 -2.01936e-16)
(-3.6488 -7.48714 6.82076e-16)
(-9.68526 17.4919 -6.98891e-16)
(-10.9758 13.0473 -9.93762e-16)
(-12.9148 9.01234 9.10607e-16)
(-12.9847 5.50548 -1.36602e-15)
(-11.038 2.03968 -9.59193e-16)
(-7.04081 -1.57126 1.0041e-15)
(-1.78548 -5.12387 7.4029e-19)
(4.05994 -8.26552 -1.92592e-15)
(9.63199 -10.4582 3.42939e-15)
(15.5614 -11.453 -1.24625e-15)
(-10.1148 21.2329 0)
(-9.24007 16.0022 1.06447e-15)
(-8.20782 10.7301 -1.04897e-15)
(-4.80672 5.92178 2.29963e-15)
(1.89685 0.743083 -1.18268e-15)
(10.1505 -4.10702 1.03111e-15)
(18.0584 -8.01077 8.78904e-16)
(25.3485 -10.9435 7.71204e-16)
(31.909 -13.0048 1.06579e-18)
(38.8139 -13.699 -6.74183e-16)
(-10.8131 22.9402 3.53028e-19)
(-7.43113 16.9059 -1.19458e-15)
(-2.02083 10.1717 1.22974e-15)
(7.39736 3.7144 -1.20142e-15)
(19.2969 -2.40774 1.00643e-15)
(30.2044 -7.14476 -1.66133e-15)
(39.8781 -10.5704 0)
(48.3635 -12.9008 -1.28847e-15)
(55.6869 -14.4177 5.91827e-16)
(63.1774 -14.6199 2.83443e-15)
(-12.2424 22.5403 1.56069e-15)
(-4.7722 15.4336 4.09343e-15)
(7.35518 6.9438 -1.34399e-15)
(23.9207 -0.751229 -2.11265e-15)
(38.6543 -6.39726 4.10838e-15)
(51.195 -10.2545 -2.07821e-15)
(61.807 -12.7779 0)
(70.7772 -14.2911 -5.60697e-16)
(78.1705 -15.0454 -3.98198e-19)
(85.2942 -14.6519 -4.85185e-16)
(-14.2308 21.5873 4.32416e-15)
(0.53228 11.1467 3.40314e-19)
(22.9854 0.572177 0)
(42.5662 -6.13176 1.73229e-15)
(58.6432 -10.3344 2.79455e-15)
(71.7027 -12.8924 -1.21001e-15)
(82.1928 -14.2857 0)
(90.5434 -14.8743 -1.96846e-15)
(97.0539 -14.9372 3.60856e-15)
(102.934 -14.1173 0)
(-13.3179 18.9857 -4.87887e-15)
(14.5701 1.88832 -7.55017e-15)
(41.1152 -6.71193 1.98154e-15)
(61.9429 -11.1859 4.34405e-19)
(78.0068 -13.5249 -2.4415e-15)
(90.2109 -14.6074 0)
(99.3736 -14.9222 -9.53258e-16)
(106.253 -14.7305 0)
(111.383 -14.2506 -1.62117e-15)
(115.781 -13.1836 1.52875e-15)
(-7.16483 14.6113 2.31295e-15)
(32.237 -5.33321 0)
(60.3903 -12.4133 0)
(80.686 -14.822 0)
(95.1645 -15.5028 0)
(105.43 -15.3636 9.45139e-16)
(112.74 -14.8025 2.58865e-15)
(117.972 -14.0342 -1.60338e-15)
(121.695 -13.199 -2.26687e-15)
(124.723 -12.0325 2.16307e-15)
(2.65701 11.9383 -5.70059e-15)
(51.885 -12.3066 0)
(79.4413 -16.6466 -1.35195e-15)
(97.3641 -17.0331 2.2006e-15)
(109.304 -16.4129 3.8784e-19)
(117.361 -15.3851 -1.7369e-15)
(122.837 -14.2309 1.61577e-15)
(126.556 -13.0901 -1.52591e-15)
(129.061 -12.0087 0)
(130.88 -10.812 -7.02126e-16)
(-10.0319 -2.55148 -1.40523e-16)
(-4.82375 -2.33169 0)
(-0.0493565 -2.08801 0)
(4.20829 -1.83501 0)
(7.92768 -1.62254 0)
(11.3095 -1.46251 0)
(14.3979 -1.33785 -4.64286e-18)
(17.2486 -1.23671 1.4568e-16)
(19.9029 -1.15208 -1.38438e-16)
(22.39 -1.07966 0)
(24.732 -1.01662 4.31294e-18)
(26.946 -0.960901 4.24394e-18)
(29.046 -0.91105 4.17938e-18)
(31.0432 -0.866003 4.11878e-18)
(32.9468 -0.82491 4.06174e-18)
(34.7647 -0.787083 0)
(36.5031 -0.752008 -1.22677e-16)
(38.1677 -0.719314 3.90488e-18)
(39.7631 -0.688718 1.2751e-16)
(41.2936 -0.659994 3.8211e-18)
(42.7631 -0.632959 0)
(44.175 -0.607461 3.74212e-18)
(45.5325 -0.58337 -1.14877e-16)
(46.8385 -0.560565 1.21151e-16)
(48.0957 -0.538934 3.63847e-18)
(49.3065 -0.518392 -1.11831e-16)
(50.4733 -0.498872 1.14504e-16)
(51.5981 -0.480308 3.55041e-18)
(52.6829 -0.462633 3.52409e-18)
(53.7297 -0.445795 -1.08472e-16)
(54.7402 -0.42976 1.14696e-16)
(55.716 -0.414489 3.45313e-18)
(56.6587 -0.399939 3.43181e-18)
(57.5698 -0.386066 -1.05754e-16)
(58.4507 -0.372828 1.08551e-16)
(59.3026 -0.360186 -1.11328e-16)
(60.1269 -0.348104 1.07394e-16)
(60.9247 -0.336553 0)
(61.6971 -0.325505 0)
(62.4451 -0.314933 1.05835e-16)
(63.1697 -0.304815 -1.05364e-16)
(63.872 -0.295129 -1.08182e-16)
(64.5528 -0.285854 1.0447e-16)
(65.2131 -0.276971 -1.04045e-16)
(65.8537 -0.268462 1.00405e-16)
(66.4753 -0.26031 0)
(67.0789 -0.252499 -3.21489e-18)
(67.665 -0.245017 0)
(68.2345 -0.23785 -3.19264e-18)
(68.788 -0.230982 0)
(69.3262 -0.2244 0)
(69.8497 -0.218091 0)
(70.359 -0.212043 -3.15234e-18)
(70.8549 -0.206243 0)
(71.3378 -0.200681 4.70089e-17)
(71.8082 -0.195345 -5.00039e-17)
(72.2667 -0.190225 0)
(72.7136 -0.185311 -3.10836e-18)
(73.1496 -0.180593 0)
(73.5749 -0.176063 -3.09245e-18)
(73.9901 -0.171711 0)
(74.3955 -0.167529 0)
(74.7915 -0.163507 0)
(75.1784 -0.159639 -4.9011e-17)
(75.5567 -0.155916 4.89034e-17)
(75.9265 -0.152332 -3.04983e-18)
(76.2883 -0.14888 0)
(76.6423 -0.145555 0)
(76.9889 -0.142352 -3.03119e-18)
(77.3282 -0.139265 -4.8405e-17)
(77.6606 -0.136289 4.52955e-17)
(77.9863 -0.133421 4.82263e-17)
(78.3055 -0.130655 -5.11505e-17)
(78.6185 -0.127989 0)
(78.9255 -0.125418 0)
(79.2267 -0.122938 0)
(79.5224 -0.120547 -2.98896e-18)
(79.8126 -0.118241 2.38745e-17)
(80.0977 -0.116017 -2.38388e-17)
(80.3777 -0.113873 2.38033e-17)
(80.6529 -0.111806 -2.07983e-17)
(80.9235 -0.109811 0)
(81.1895 -0.107887 -2.37032e-17)
(81.4512 -0.106029 4.73428e-17)
(81.7088 -0.104235 -2.06855e-17)
(81.9622 -0.102501 0)
(82.2118 -0.100823 0)
(82.4575 -0.0991985 0)
(82.6996 -0.0976201 0)
(82.9381 -0.0960844 2.93674e-18)
(83.1732 -0.0945797 0)
(83.4048 -0.0930993 -1.17195e-17)
(83.633 -0.0916221 1.0996e-22)
(83.8579 -0.0901328 8.76983e-18)
(84.0792 -0.0885926 0)
(84.2969 -0.0869649 -5.83372e-18)
(84.5106 -0.0851743 2.91419e-18)
(84.7195 -0.0831818 5.82146e-18)
(84.923 -0.0808282 0)
(85.1707 -0.0761206 0)
(0.756373 -7.13458 6.47303e-18)
(4.8626 -6.35487 -1.35024e-17)
(8.6516 -5.69632 -8.43391e-16)
(12.1174 -5.08968 8.02982e-16)
(15.2923 -4.56598 0)
(18.2336 -4.14939 0)
(20.9655 -3.81518 1.73495e-17)
(23.5148 -3.53899 0)
(25.9067 -3.30509 -5.52056e-18)
(28.1611 -3.1032 1.08078e-17)
(30.2937 -2.92629 -5.29659e-18)
(32.3172 -2.76914 -5.19669e-18)
(34.2419 -2.628 -5.1037e-18)
(36.0764 -2.5001 -5.01688e-18)
(37.8279 -2.38319 4.93538e-18)
(39.5027 -2.27542 0)
(41.1059 -2.17534 6.08146e-16)
(42.642 -2.08193 -5.99641e-16)
(44.1152 -1.99442 -4.65903e-18)
(45.5291 -1.9122 -4.60008e-18)
(46.8871 -1.83478 0)
(48.1923 -1.76174 4.49215e-18)
(49.4476 -1.69271 -5.73132e-16)
(50.6557 -1.62735 1.12106e-15)
(51.8189 -1.56542 -5.61464e-16)
(52.9396 -1.50663 -1.29327e-17)
(54.0199 -1.45075 0)
(55.0617 -1.39758 -4.23475e-18)
(56.0668 -1.34698 -4.19971e-18)
(57.037 -1.29878 5.37473e-16)
(57.9738 -1.25281 -5.33441e-16)
(58.8787 -1.20896 -2.66836e-16)
(59.753 -1.16709 5.25917e-16)
(60.5982 -1.1271 -4.06196e-18)
(61.4154 -1.08887 -2.57552e-16)
(62.2057 -1.05229 3.99966e-18)
(62.9703 -1.0173 0)
(63.7103 -0.983797 0)
(64.4266 -0.951727 2.51689e-16)
(65.1202 -0.921023 -2.50401e-16)
(65.7921 -0.891631 -2.49146e-16)
(66.4432 -0.86349 4.99794e-16)
(67.0744 -0.836536 -1.08087e-20)
(67.6864 -0.810709 -2.45729e-16)
(68.2801 -0.785955 3.82304e-18)
(68.8562 -0.762226 0)
(69.4155 -0.739477 2.46488e-16)
(69.9586 -0.717666 -2.49332e-16)
(70.4863 -0.69676 -2.37109e-16)
(70.9991 -0.676722 2.4002e-16)
(71.4977 -0.657516 0)
(71.9827 -0.639106 -2.3838e-16)
(72.4547 -0.621456 2.41328e-16)
(72.9142 -0.60453 -2.36861e-16)
(73.3616 -0.588295 2.39836e-16)
(73.7976 -0.57272 0)
(74.2225 -0.557773 -2.34766e-16)
(74.6368 -0.543427 4.71889e-16)
(75.0408 -0.529656 -2.33486e-16)
(75.4352 -0.516433 3.63859e-18)
(75.8201 -0.503729 0)
(76.1959 -0.491518 0)
(76.5631 -0.479777 0)
(76.9219 -0.468482 0)
(77.2727 -0.457614 0)
(77.6158 -0.447152 3.58719e-18)
(77.9514 -0.437076 0)
(78.2799 -0.427371 1.14309e-16)
(78.6015 -0.418021 -1.10518e-16)
(78.9165 -0.409012 -1.1386e-16)
(79.2251 -0.400332 3.55346e-18)
(79.5275 -0.391965 1.13442e-16)
(79.8241 -0.3839 1.16778e-16)
(80.1149 -0.376125 -1.75466e-21)
(80.4003 -0.368628 -1.12858e-16)
(80.6803 -0.361398 0)
(80.9553 -0.354425 1.16011e-16)
(81.2253 -0.347701 -1.52451e-21)
(81.4906 -0.341216 -1.05147e-16)
(81.7513 -0.334963 -1.18992e-16)
(82.0076 -0.328931 1.0834e-16)
(82.2597 -0.323113 -6.28193e-17)
(82.5076 -0.317497 4.87943e-17)
(82.7516 -0.312078 -6.2652e-17)
(82.9917 -0.306843 -3.4756e-18)
(83.2282 -0.301784 4.86061e-17)
(83.461 -0.296889 6.9352e-18)
(83.6905 -0.292149 4.84875e-17)
(83.9165 -0.287544 -5.53505e-17)
(84.1394 -0.283065 -5.87408e-17)
(84.359 -0.278676 5.5225e-17)
(84.5756 -0.27436 2.06857e-17)
(84.789 -0.270054 -2.60531e-22)
(84.9994 -0.265715 -3.09623e-17)
(85.2066 -0.261228 6.87378e-18)
(85.4106 -0.256486 -6.86639e-18)
(85.6107 -0.251265 1.37205e-17)
(85.8065 -0.245389 -2.39859e-17)
(85.9986 -0.2382 6.84896e-18)
(86.2301 -0.227193 -7.34714e-18)
(18.7525 -10.547 -1.44387e-15)
(21.0383 -9.38352 3.39476e-17)
(23.498 -8.48953 3.33869e-17)
(25.9554 -7.71474 1.4021e-15)
(28.3238 -7.02799 -1.35673e-15)
(30.5897 -6.4485 -1.33515e-15)
(32.7523 -5.96776 1.34378e-15)
(34.813 -5.56305 2.05036e-17)
(36.7764 -5.21442 1.31234e-15)
(38.6479 -4.90927 -1.26239e-15)
(40.4332 -4.63897 1.95909e-17)
(42.1378 -4.39672 1.93133e-17)
(43.7672 -4.17751 1.23827e-15)
(45.3258 -3.97761 -1.20289e-15)
(46.818 -3.79389 1.19693e-15)
(48.2474 -3.62379 8.51753e-20)
(49.6174 -3.46532 -1.14113e-15)
(50.9313 -3.3171 -8.95514e-18)
(52.1923 -3.17809 0)
(53.4034 -3.04739 0)
(54.5672 -2.92424 0)
(55.6862 -2.80801 8.59739e-18)
(56.7629 -2.69814 -5.45235e-16)
(57.7994 -2.59411 5.57367e-16)
(58.7976 -2.49546 -1.67478e-17)
(59.7596 -2.40181 8.30657e-18)
(60.6868 -2.31284 5.43978e-16)
(61.5811 -2.22818 -5.23597e-16)
(62.4439 -2.14751 -5.03592e-16)
(63.2765 -2.07063 -8.0454e-18)
(64.0802 -1.99733 5.1287e-16)
(64.8564 -1.92742 5.09592e-16)
(65.6061 -1.86068 -1.02092e-15)
(66.3304 -1.79691 5.03555e-16)
(67.0305 -1.73591 5.16362e-16)
(67.7073 -1.67752 -1.01165e-15)
(68.3617 -1.62163 4.95495e-16)
(68.9946 -1.56811 -5.0844e-16)
(69.6071 -1.51688 5.06064e-16)
(70.1999 -1.46781 -1.52655e-17)
(70.7739 -1.4208 0)
(71.3299 -1.37578 0)
(71.8686 -1.33267 0)
(72.3908 -1.29139 0)
(72.8973 -1.25186 0)
(73.3886 -1.214 0)
(73.8656 -1.17774 -1.48551e-17)
(74.3287 -1.14301 2.22086e-17)
(74.7787 -1.10976 4.57498e-16)
(75.216 -1.0779 -4.70811e-16)
(75.6413 -1.04738 -4.69385e-16)
(76.055 -1.01814 4.68042e-16)
(76.4576 -0.990108 -4.66712e-16)
(76.8497 -0.963234 4.65457e-16)
(77.2316 -0.937461 0)
(77.6036 -0.912737 0)
(77.9664 -0.88901 0)
(78.3201 -0.866237 0)
(78.6651 -0.84438 -1.43648e-17)
(79.0019 -0.823393 0)
(79.3307 -0.803233 2.28801e-16)
(79.6518 -0.783862 -2.28314e-16)
(79.9656 -0.765241 0)
(80.2723 -0.747333 0)
(80.5722 -0.730104 0)
(80.8656 -0.713527 0)
(81.1528 -0.697574 0)
(81.4339 -0.682214 2.1156e-16)
(81.7093 -0.667422 -4.1894e-21)
(81.979 -0.653175 -4.63839e-16)
(82.2435 -0.639448 2.38557e-16)
(82.5028 -0.626222 0)
(82.7571 -0.613475 -1.39884e-17)
(83.0067 -0.601188 0)
(83.2517 -0.589343 2.23145e-16)
(83.4923 -0.577924 -2.22828e-16)
(83.7286 -0.566915 -1.39071e-17)
(83.9608 -0.5563 -9.72161e-17)
(84.1891 -0.546066 9.01532e-17)
(84.4135 -0.536197 2.07773e-17)
(84.6343 -0.526678 -1.24505e-16)
(84.8516 -0.517495 1.17443e-16)
(85.0654 -0.508634 2.06999e-17)
(85.276 -0.500082 6.89176e-18)
(85.4834 -0.491821 0)
(85.6878 -0.483841 -6.8759e-18)
(85.8892 -0.476119 6.86829e-18)
(86.0878 -0.468646 1.16632e-16)
(86.2836 -0.461387 -1.23363e-16)
(86.4768 -0.45433 -5.4769e-17)
(86.6673 -0.447417 4.10359e-17)
(86.8554 -0.440623 -4.78247e-17)
(87.0409 -0.433848 6.82568e-17)
(87.224 -0.427023 -6.81862e-18)
(87.4045 -0.419969 6.81254e-18)
(87.5823 -0.412519 -2.0417e-17)
(87.757 -0.404304 1.36005e-17)
(87.9282 -0.395004 1.3587e-17)
(88.0968 -0.383325 -6.78995e-18)
(88.2997 -0.368965 1.45351e-17)
(40.9124 -12.3774 -1.24279e-15)
(41.6811 -11.1317 -2.18151e-17)
(42.7608 -10.2529 1.26688e-15)
(44.1405 -9.49526 0)
(45.6142 -8.7885 -5.62182e-21)
(47.0979 -8.15797 1.23298e-15)
(48.5732 -7.61259 -1.87518e-17)
(50.0288 -7.14025 -1.24079e-15)
(51.451 -6.72532 1.18789e-15)
(52.8319 -6.35617 -1.2098e-15)
(54.1667 -6.02454 -1.83845e-17)
(55.4543 -5.72359 1.14413e-15)
(56.6945 -5.44831 -2.31466e-15)
(57.8879 -5.19474 1.13499e-15)
(59.0348 -4.95954 -1.75396e-17)
(60.1366 -4.74034 -1.09331e-15)
(61.1953 -4.53525 1.0822e-15)
(62.213 -4.34294 0)
(63.1917 -4.16225 -1.07873e-15)
(64.1335 -3.99208 1.06912e-15)
(65.0399 -3.83151 1.06001e-15)
(65.9125 -3.67978 -1.06775e-15)
(66.753 -3.53621 0)
(67.5626 -3.40018 -1.61747e-17)
(68.3428 -3.27111 1.60574e-17)
(69.0946 -3.14851 1.59453e-17)
(69.8193 -3.03192 -1.58393e-17)
(70.518 -2.92094 0)
(71.1917 -2.81522 -1.56415e-17)
(71.8414 -2.71438 0)
(72.4682 -2.61813 9.89563e-16)
(73.0729 -2.52624 -9.84276e-16)
(73.6564 -2.43845 0)
(74.2196 -2.35457 -9.59098e-16)
(74.7634 -2.27434 9.54616e-16)
(75.2885 -2.19755 1.50839e-17)
(75.7957 -2.12406 0)
(76.286 -2.05374 1.49567e-17)
(76.76 -1.98643 -1.32117e-22)
(77.2185 -1.92203 1.48409e-17)
(77.6623 -1.86043 4.73174e-16)
(78.092 -1.80148 -2.07911e-20)
(78.5083 -1.74504 -4.69994e-16)
(78.9118 -1.69101 -4.53838e-16)
(79.3031 -1.63928 4.67066e-16)
(79.6828 -1.58976 0)
(80.0513 -1.54234 1.4511e-17)
(80.4091 -1.49694 -1.4471e-17)
(80.7569 -1.45349 1.44324e-17)
(81.0949 -1.41188 4.46237e-16)
(81.4236 -1.37204 -1.62095e-20)
(81.7433 -1.33387 -4.72694e-16)
(82.0546 -1.29728 0)
(82.3575 -1.26219 1.42568e-17)
(82.6526 -1.22854 -4.55189e-16)
(82.9401 -1.19626 4.54209e-16)
(83.2202 -1.16528 4.5323e-16)
(83.4934 -1.13554 -4.52305e-16)
(83.7599 -1.10702 2.82118e-17)
(84.0199 -1.07963 0)
(84.2738 -1.05333 0)
(84.5217 -1.02806 0)
(84.764 -1.00378 -1.39999e-17)
(85.0009 -0.980447 -4.33229e-16)
(85.2325 -0.958011 4.46448e-16)
(85.4592 -0.936432 -1.39281e-17)
(85.6811 -0.915669 4.4497e-16)
(85.8985 -0.895695 -8.74653e-16)
(86.1114 -0.876475 6.51512e-16)
(86.3202 -0.857978 -3.91947e-21)
(86.5249 -0.840169 -2.34954e-16)
(86.7258 -0.823019 2.07012e-16)
(86.9229 -0.806498 -1.92946e-16)
(87.1165 -0.790582 2.20206e-16)
(87.3066 -0.775242 -4.39832e-16)
(87.4935 -0.76045 3.1606e-21)
(87.6772 -0.746191 1.37127e-17)
(87.8578 -0.732447 1.91699e-16)
(88.0355 -0.7192 2.00469e-23)
(88.2105 -0.706434 -2.732e-17)
(88.3827 -0.694126 1.82247e-23)
(88.5523 -0.68226 0)
(88.7195 -0.670815 1.90592e-16)
(88.8842 -0.659776 -1.22393e-16)
(89.0467 -0.649118 -1.22263e-16)
(89.2071 -0.638829 1.35705e-17)
(89.3653 -0.628879 -2.71135e-17)
(89.5215 -0.619257 -1.3543e-17)
(89.6757 -0.609919 1.08239e-16)
(89.8282 -0.600848 -1.08133e-16)
(89.9788 -0.59197 1.08032e-16)
(90.1276 -0.583255 -1.75383e-16)
(90.2748 -0.574572 -2.69578e-17)
(90.4202 -0.565833 1.21195e-16)
(90.5639 -0.556806 -2.69107e-17)
(90.7058 -0.547276 -8.06536e-17)
(90.8457 -0.536759 2.68645e-17)
(90.9831 -0.524857 -6.62937e-23)
(91.1188 -0.509893 -1.34135e-17)
(91.2828 -0.492203 -2.86278e-17)
(64.7113 -13.1075 -4.64785e-15)
(64.6176 -12.0043 2.37871e-15)
(64.7057 -11.2454 1.21274e-15)
(65.2162 -10.5643 -1.17301e-15)
(65.9141 -9.90079 -1.85663e-17)
(66.6677 -9.2826 1.20018e-15)
(67.4531 -8.72686 -2.34558e-15)
(68.2624 -8.23077 1.16273e-15)
(69.0816 -7.78485 0)
(69.8982 -7.38129 0)
(70.7022 -7.01367 0)
(71.4884 -6.6764 1.74921e-17)
(72.2556 -6.3655 1.7321e-17)
(73 -6.07773 1.71553e-17)
(73.7232 -5.8104 1.69965e-17)
(74.424 -5.56057 -1.07827e-15)
(75.1033 -5.32627 1.66319e-17)
(75.7614 -5.10585 1.07659e-15)
(76.3984 -4.89797 1.64281e-17)
(77.0145 -4.70145 1.62981e-17)
(77.6101 -4.51536 1.61727e-17)
(78.1855 -4.33894 0)
(78.7413 -4.1715 1.03583e-15)
(79.2779 -4.01234 -9.96946e-16)
(79.7958 -3.86088 1.57172e-17)
(80.2955 -3.71664 -4.49557e-22)
(80.7776 -3.57916 -9.77582e-16)
(81.2425 -3.44799 9.87153e-16)
(81.691 -3.32278 1.53346e-17)
(82.1234 -3.20318 1.52497e-17)
(82.5405 -3.08884 -9.55605e-16)
(82.9424 -2.97943 1.51326e-17)
(83.3298 -2.87471 1.92243e-15)
(83.703 -2.77457 -9.56835e-16)
(84.0628 -2.67885 -9.37748e-16)
(84.4101 -2.58741 4.31415e-20)
(84.7455 -2.5001 9.59688e-16)
(85.0696 -2.41672 0)
(85.3829 -2.33709 -1.46538e-17)
(85.6861 -2.26102 1.4602e-17)
(85.9795 -2.18833 9.31337e-16)
(86.2638 -2.1189 -9.13819e-16)
(86.5393 -2.05256 0)
(86.8064 -1.98916 -1.31856e-22)
(87.0655 -1.92856 0)
(87.3169 -1.87061 1.43307e-17)
(87.5608 -1.81516 0)
(87.7978 -1.7621 -8.97884e-16)
(88.0278 -1.71131 9.09785e-16)
(88.2513 -1.66267 1.4179e-17)
(88.4685 -1.61609 4.66741e-16)
(88.6796 -1.57145 -4.37419e-16)
(88.8848 -1.52864 1.40772e-17)
(89.0843 -1.48758 -1.40455e-17)
(89.2785 -1.44816 1.40146e-17)
(89.4674 -1.41034 0)
(89.6514 -1.374 1.39559e-17)
(89.8306 -1.33911 0)
(90.0054 -1.30565 -1.39008e-17)
(90.1759 -1.27352 4.5785e-16)
(90.3422 -1.24266 -8.86329e-16)
(90.5047 -1.21302 4.56201e-16)
(90.6635 -1.18453 1.38001e-17)
(90.8187 -1.15717 4.40851e-16)
(90.9706 -1.13087 -4.40137e-16)
(91.1192 -1.10559 -4.11959e-16)
(91.2648 -1.08129 4.38749e-16)
(91.4074 -1.05792 -4.24386e-16)
(91.5473 -1.03545 4.51108e-16)
(91.6845 -1.01383 1.36502e-17)
(91.8192 -0.99303 -4.22558e-16)
(91.9515 -0.973011 8.84801e-16)
(92.0815 -0.95374 -4.35017e-16)
(92.2092 -0.935184 0)
(92.3349 -0.917315 1.35591e-17)
(92.4586 -0.900105 0)
(92.5803 -0.883531 1.35259e-17)
(92.7003 -0.867566 1.35099e-17)
(92.8185 -0.85219 1.34943e-17)
(92.935 -0.837385 1.3479e-17)
(93.05 -0.823122 -2.0196e-16)
(93.1635 -0.809385 2.15193e-16)
(93.2756 -0.796152 -2.01527e-16)
(93.3863 -0.783403 1.34235e-17)
(93.4958 -0.771107 1.34098e-17)
(93.6041 -0.759253 2.3101e-21)
(93.7113 -0.747804 2.27471e-16)
(93.8174 -0.736749 -9.35704e-17)
(93.9225 -0.726035 1.20192e-16)
(94.0268 -0.715645 0)
(94.1301 -0.705492 1.33293e-17)
(94.2326 -0.695542 1.33163e-17)
(94.3343 -0.685645 1.33047e-17)
(94.4352 -0.675705 0)
(94.5353 -0.66545 1.32807e-17)
(94.6347 -0.654642 0)
(94.7331 -0.642706 1.32575e-17)
(94.8305 -0.629198 -2.64885e-17)
(94.9273 -0.612168 2.64766e-17)
(95.0453 -0.592038 2.81407e-17)
(86.5451 -13.1829 0)
(86.0823 -12.3535 1.70551e-17)
(85.6531 -11.7527 -2.21371e-15)
(85.6546 -11.1509 4.36953e-15)
(85.8815 -10.5428 1.89657e-17)
(86.1792 -9.96087 -2.24e-15)
(86.5138 -9.41895 2.20437e-15)
(86.8826 -8.919 -2.19841e-15)
(87.2767 -8.45836 2.19285e-15)
(87.682 -8.03432 7.14681e-19)
(88.0885 -7.644 5.91965e-19)
(88.4901 -7.2823 -4.33124e-15)
(88.8827 -6.94671 -4.04581e-19)
(89.2638 -6.63391 4.27162e-15)
(89.6325 -6.34132 -2.1324e-15)
(89.9878 -6.06818 -1.65689e-17)
(90.3296 -5.81183 -1.85971e-21)
(90.6568 -5.57097 -1.63757e-17)
(90.9702 -5.34428 -1.45121e-21)
(91.2697 -5.13029 -1.28438e-21)
(91.5561 -4.92795 -1.13748e-21)
(91.8298 -4.73634 0)
(92.0914 -4.55463 -8.95668e-22)
(92.3414 -4.38204 -1.57971e-17)
(92.5804 -4.21796 -1.03653e-15)
(92.809 -4.06183 9.83814e-16)
(93.028 -3.91309 -9.93839e-16)
(93.2377 -3.77125 9.8847e-16)
(93.4387 -3.63589 9.52466e-16)
(93.6317 -3.50658 -1.97156e-15)
(93.817 -3.38309 9.73246e-16)
(93.9953 -3.26514 -1.51339e-17)
(94.1675 -3.15239 -1.50636e-17)
(94.3339 -3.04456 9.44815e-16)
(94.4948 -2.94118 -9.55804e-16)
(94.6505 -2.84205 0)
(94.8011 -2.74713 9.47948e-16)
(94.9469 -2.65621 -9.44253e-16)
(95.0878 -2.56912 1.46969e-17)
(95.2241 -2.48573 -1.4642e-17)
(95.3559 -2.40588 1.45884e-17)
(95.4833 -2.32942 -1.45366e-17)
(95.6064 -2.2562 1.44861e-17)
(95.7253 -2.1861 -1.44372e-17)
(95.8403 -2.11896 1.43895e-17)
(95.9514 -2.0547 -9.32296e-16)
(96.0588 -1.99313 9.29428e-16)
(96.1626 -1.93416 -1.42547e-17)
(96.2631 -1.87771 1.42123e-17)
(96.3601 -1.82355 9.06961e-16)
(96.4539 -1.77166 -9.18605e-16)
(96.5445 -1.72194 1.40943e-17)
(96.6322 -1.67432 -1.4058e-17)
(96.7172 -1.62874 1.40226e-17)
(96.7996 -1.58514 -1.39885e-17)
(96.8797 -1.54342 -8.79179e-16)
(96.9576 -1.50349 -1.3898e-17)
(97.0336 -1.46528 1.39163e-17)
(97.1076 -1.4287 4.43589e-16)
(97.1799 -1.39366 1.12747e-20)
(97.2504 -1.3601 4.41723e-16)
(97.3195 -1.32793 -6.75694e-23)
(97.387 -1.29708 0)
(97.4532 -1.2675 -2.74453e-17)
(97.518 -1.2391 0)
(97.5817 -1.21184 4.37506e-16)
(97.6443 -1.18565 -4.3674e-16)
(97.7057 -1.16048 -2.72487e-17)
(97.7662 -1.13629 0)
(97.8257 -1.11303 -4.20941e-16)
(97.8843 -1.09066 -1.35497e-17)
(97.942 -1.06914 4.1961e-16)
(97.9989 -1.04841 -1.3515e-17)
(98.0551 -1.02847 -4.18331e-16)
(98.1105 -1.00925 4.17728e-16)
(98.1654 -0.990748 4.44032e-16)
(98.2197 -0.972928 -4.43416e-16)
(98.2735 -0.955769 -4.15963e-16)
(98.3268 -0.939247 4.28809e-16)
(98.3798 -0.923346 0)
(98.4324 -0.90804 2.27209e-16)
(98.4847 -0.893316 -2.00226e-16)
(98.5367 -0.879153 -1.99975e-16)
(98.5886 -0.865531 4.39407e-16)
(98.6403 -0.852415 -2.12792e-16)
(98.6919 -0.839795 1.32835e-17)
(98.7435 -0.82763 2.25557e-16)
(98.7951 -0.815911 -1.98789e-16)
(98.8466 -0.804578 -2.11801e-16)
(98.8983 -0.793616 1.98335e-16)
(98.95 -0.78293 0)
(99.002 -0.772491 0)
(99.054 -0.762134 0)
(99.1063 -0.75177 -1.31633e-17)
(99.1589 -0.741107 1.31501e-17)
(99.2118 -0.729908 1.31346e-17)
(99.265 -0.717553 0)
(99.3186 -0.703547 -1.31065e-17)
(99.373 -0.685811 3.94732e-23)
(99.4407 -0.664607 2.76983e-17)
(103.761 -12.8897 -1.56443e-17)
(102.971 -12.3828 -1.58738e-17)
(102.134 -11.9559 0)
(101.713 -11.4391 1.0528e-20)
(101.567 -10.8914 2.05084e-15)
(101.541 -10.3577 3.38842e-17)
(101.586 -9.84734 -2.07787e-15)
(101.692 -9.36178 0)
(101.851 -8.90306 -2.1001e-15)
(102.047 -8.47185 2.08327e-15)
(102.266 -8.06783 1.6271e-17)
(102.501 -7.68951 -1.62647e-17)
(102.742 -7.33499 2.06326e-15)
(102.985 -7.00285 1.65863e-17)
(103.225 -6.6911 -1.59027e-17)
(103.458 -6.39795 1.64099e-17)
(103.681 -6.12209 -1.59483e-17)
(103.894 -5.86167 -4.12325e-15)
(104.093 -5.61542 2.05693e-15)
(104.279 -5.38247 2.03619e-15)
(104.451 -5.16168 5.2828e-20)
(104.607 -4.95251 -2.04136e-15)
(104.749 -4.75418 -1.59041e-17)
(104.876 -4.5659 1.58572e-17)
(104.989 -4.38706 1.58109e-17)
(105.087 -4.21716 -2.03325e-15)
(105.171 -4.05566 3.00107e-15)
(105.243 -3.90211 -2.67546e-20)
(105.302 -3.75615 -9.6786e-16)
(105.349 -3.61736 0)
(105.386 -3.48526 9.61264e-16)
(105.414 -3.35937 -1.97749e-15)
(105.433 -3.23959 1.98541e-15)
(105.444 -3.12586 -1.97771e-15)
(105.448 -3.01786 9.62113e-16)
(105.447 -2.91519 1.52107e-17)
(105.439 -2.81749 -1.5151e-17)
(105.427 -2.72447 0)
(105.411 -2.63583 -9.77027e-16)
(105.391 -2.55132 9.58262e-16)
(105.368 -2.47068 -2.58345e-22)
(105.343 -2.3937 0)
(105.315 -2.32016 -9.47234e-16)
(105.286 -2.24986 9.58464e-16)
(105.255 -2.18262 -1.46911e-17)
(105.224 -2.11823 9.51421e-16)
(105.191 -2.05657 -1.46213e-17)
(105.158 -1.99742 -9.30182e-16)
(105.125 -1.94071 -1.36973e-22)
(105.092 -1.88635 9.23817e-16)
(105.059 -1.83421 -9.06451e-16)
(105.026 -1.78411 9.03553e-16)
(104.994 -1.73591 -9.15084e-16)
(104.963 -1.68954 9.12277e-16)
(104.932 -1.64494 -9.0958e-16)
(104.901 -1.60209 -9.21059e-16)
(104.872 -1.5608 9.04309e-16)
(104.843 -1.52112 -1.40887e-17)
(104.814 -1.4831 1.40495e-17)
(104.786 -1.44653 -1.40115e-17)
(104.759 -1.4114 0)
(104.732 -1.37765 -7.34607e-23)
(104.706 -1.34526 8.89747e-16)
(104.68 -1.31418 -1.33131e-15)
(104.655 -1.28435 8.85374e-16)
(104.631 -1.25574 -1.38099e-17)
(104.607 -1.2283 -8.67435e-16)
(104.584 -1.20197 4.53337e-16)
(104.562 -1.17669 4.38619e-16)
(104.54 -1.15242 -4.51355e-16)
(104.519 -1.12913 0)
(104.499 -1.1068 -4.3586e-16)
(104.479 -1.0854 4.35003e-16)
(104.46 -1.0649 -4.72812e-23)
(104.442 -1.04526 0)
(104.425 -1.02643 -1.3516e-17)
(104.408 -1.00842 0)
(104.393 -0.99115 -1.3467e-17)
(104.378 -0.974615 1.34433e-17)
(104.365 -0.958773 0)
(104.352 -0.943573 -1.33974e-17)
(104.341 -0.928996 -2.85238e-23)
(104.33 -0.915013 -2.27002e-16)
(104.321 -0.901607 1.8664e-16)
(104.312 -0.888738 -1.33102e-17)
(104.305 -0.876393 -1.32889e-17)
(104.298 -0.86452 -2.65369e-17)
(104.293 -0.853109 -1.32475e-17)
(104.289 -0.842097 -2.24869e-16)
(104.286 -0.83147 2.11775e-21)
(104.284 -0.821131 2.11006e-16)
(104.283 -0.811058 -1.05338e-16)
(104.283 -0.801089 9.20419e-17)
(104.285 -0.791152 1.31282e-17)
(104.287 -0.780965 -2.6221e-17)
(104.292 -0.770314 -1.30898e-17)
(104.298 -0.758601 -1.30732e-17)
(104.306 -0.745323 3.91561e-17)
(104.316 -0.728406 -3.91164e-17)
(104.332 -0.70773 -2.7386e-17)
(116.098 -12.2514 1.93399e-15)
(115.041 -12.0353 -1.97096e-15)
(113.874 -11.7902 1.53999e-17)
(113.063 -11.3873 1.55234e-17)
(112.546 -10.9286 -2.01557e-15)
(112.197 -10.4723 1.99325e-15)
(111.957 -10.0276 2.01919e-15)
(111.806 -9.59458 -1.46814e-17)
(111.733 -9.17548 1.68427e-17)
(111.723 -8.77299 -1.50875e-17)
(111.762 -8.38861 -1.52503e-17)
(111.84 -8.02239 -2.05826e-15)
(111.947 -7.67382 0)
(112.076 -7.34206 -3.19703e-17)
(112.222 -7.02646 -2.0469e-15)
(112.379 -6.72622 -3.22564e-17)
(112.545 -6.44044 -2.22723e-19)
(112.716 -6.16836 2.0455e-15)
(112.889 -5.90921 -3.1943e-17)
(113.061 -5.66226 0)
(113.232 -5.42681 -3.18891e-17)
(113.398 -5.20216 0)
(113.56 -4.98786 -2.05216e-15)
(113.714 -4.78337 -1.58989e-17)
(113.862 -4.58817 2.01484e-15)
(114 -4.40201 1.58417e-17)
(114.129 -4.22439 -2.04039e-15)
(114.248 -4.05483 4.04265e-15)
(114.356 -3.89308 -3.15787e-17)
(114.453 -3.7389 -2.0142e-15)
(114.539 -3.59204 2.02611e-15)
(114.612 -3.45221 -2.02227e-15)
(114.672 -3.31904 0)
(114.719 -3.19219 7.65538e-22)
(114.753 -3.07136 0)
(114.774 -2.95624 -3.10809e-17)
(114.782 -2.8466 -9.76742e-16)
(114.778 -2.74222 9.74406e-16)
(114.761 -2.64288 0)
(114.732 -2.54838 1.00022e-15)
(114.692 -2.4585 -1.9799e-15)
(114.641 -2.37304 9.94946e-16)
(114.58 -2.29184 -3.05291e-17)
(114.51 -2.2147 -1.52215e-17)
(114.431 -2.14143 -1.51776e-17)
(114.343 -2.07187 -1.51331e-17)
(114.249 -2.00584 0)
(114.147 -1.94317 0)
(114.041 -1.88368 9.29666e-16)
(113.929 -1.82714 -1.91316e-15)
(113.814 -1.7735 9.23636e-16)
(113.695 -1.72264 0)
(113.574 -1.67451 9.46859e-16)
(113.451 -1.62889 -9.58337e-16)
(113.327 -1.5856 0)
(113.203 -1.54449 -1.46407e-17)
(113.078 -1.50542 0)
(112.954 -1.4682 -9.30505e-16)
(112.83 -1.43272 1.84017e-15)
(112.708 -1.39889 -9.38624e-16)
(112.587 -1.36659 0)
(112.468 -1.3357 8.89314e-16)
(112.35 -1.30613 -9.15028e-16)
(112.235 -1.27778 8.12489e-23)
(112.122 -1.25056 0)
(112.011 -1.22442 1.41614e-17)
(111.902 -1.19926 -9.31789e-16)
(111.796 -1.17507 9.00836e-16)
(111.692 -1.1518 -1.40341e-17)
(111.591 -1.12939 0)
(111.492 -1.10778 -1.39544e-17)
(111.395 -1.08694 4.5922e-16)
(111.301 -1.06682 -4.57992e-16)
(111.209 -1.04741 -4.5676e-16)
(111.12 -1.02872 8.83541e-16)
(111.033 -1.01071 -8.81245e-16)
(110.948 -0.993379 8.79018e-16)
(110.866 -0.97672 -4.38402e-16)
(110.785 -0.960712 -4.13159e-23)
(110.707 -0.945362 0)
(110.631 -0.930639 -4.3521e-16)
(110.557 -0.916546 8.54771e-16)
(110.485 -0.903081 -8.6634e-16)
(110.415 -0.890198 4.45674e-16)
(110.347 -0.87787 -2.02123e-16)
(110.281 -0.866114 2.15108e-16)
(110.218 -0.854883 1.34149e-17)
(110.156 -0.844168 2.14157e-16)