/*--------------------------------*- C++ -*----------------------------------*\
  =========                 |
  \\      /  F ield         | OpenFOAM: The Open Source CFD Toolbox
   \\    /   O peration     | Website:  https://openfoam.org
    \\  /    A nd           | Version:  8
     \\/     M anipulation  |
\*---------------------------------------------------------------------------*/
FoamFile
{
    version     2.0;
    format      ascii;
    class       surfaceScalarField;
    location    "0.2";
    object      phi;
}
// * * * * * * * * * * * * * * * * * * * * * * * * * * * * * * * * * * * * * //

dimensions      [1 0 -1 0 0 0 0];

internalField   nonuniform List<scalar> 
2080
(
-2.8859515e-07
-0.00018515858
-9.1050623e-07
-6.8500459e-08
-0.00018566278
-9.113449e-07
-4.8765925e-08
-0.00018546308
-9.1159436e-07
-2.3881065e-08
-0.00018546801
-9.1157066e-07
-1.6621053e-08
-0.00018545061
-9.115828e-07
-1.133752e-08
-0.00018544848
-9.1158462e-07
-7.2797217e-09
-0.00018544734
-9.1158619e-07
-4.8623994e-09
-0.0001854456
-9.1158814e-07
-2.1478449e-09
-0.00018544595
-9.1158851e-07
1.3440209e-15
-0.00018544535
-9.1158919e-07
2.1478487e-09
-0.00018544535
-9.1158919e-07
4.8624032e-09
-0.00018544595
-9.1158852e-07
7.2797233e-09
-0.0001854456
-9.1158813e-07
1.1337521e-08
-0.00018544734
-9.1158619e-07
1.6621052e-08
-0.00018544848
-9.1158462e-07
2.3881068e-08
-0.00018545061
-9.115828e-07
4.8765932e-08
-0.00018546801
-9.1157066e-07
6.8500465e-08
-0.00018546308
-9.1159436e-07
2.8859516e-07
-0.00018566278
-9.113449e-07
-0.00018515858
-9.1050622e-07
2.5166177e-08
-0.00018251606
1.3692125e-07
-2.8098391e-08
-0.00018294352
1.3717194e-07
-2.0760235e-08
-0.00018280449
1.3713035e-07
-1.7440005e-08
-0.00018280516
1.3715026e-07
-1.1595173e-08
-0.0001827905
1.3714348e-07
-9.2484684e-09
-0.0001827847
1.3714823e-07
-5.5732723e-09
-0.00018278499
1.3714632e-07
-4.0693037e-09
-0.00018278094
1.3714842e-07
-1.6817634e-09
-0.00018278222
1.3714774e-07
1.9384555e-15
-0.00018278087
1.3714839e-07
1.6817677e-09
-0.00018278087
1.3714839e-07
4.0693062e-09
-0.00018278222
1.3714774e-07
5.5732739e-09
-0.00018278094
1.3714842e-07
9.2484702e-09
-0.00018278499
1.3714632e-07
1.1595171e-08
-0.0001827847
1.3714823e-07
1.7440009e-08
-0.0001827905
1.3714347e-07
2.076024e-08
-0.00018280516
1.3715026e-07
2.8098402e-08
-0.00018280449
1.3713035e-07
-2.5166162e-08
-0.00018294352
1.3717194e-07
-0.00018251606
1.3692125e-07
-3.3506873e-08
-0.00018063037
-1.9562686e-08
-6.9901284e-08
-0.00018105699
-1.9788907e-08
-5.3532102e-08
-0.00018097112
-1.9808461e-08
-3.8191908e-08
-0.00018097051
-1.979603e-08
-2.8367935e-08
-0.00018095059
-1.9793582e-08
-2.0007801e-08
-0.00018094316
-1.978539e-08
-1.3724529e-08
-0.00018094149
-1.9787286e-08
-8.7839079e-09
-0.000180936
-1.9782406e-08
-4.140629e-09
-0.00018093704
-1.9784104e-08
3.6931092e-15
-0.00018093515
-1.9782503e-08
4.1406357e-09
-0.00018093515
-1.9782502e-08
8.7839137e-09
-0.00018093704
-1.9784105e-08
1.3724528e-08
-0.000180936
-1.9782419e-08
2.0007799e-08
-0.00018094149
-1.9787287e-08
2.8367935e-08
-0.00018094316
-1.9785381e-08
3.8191913e-08
-0.00018095059
-1.9793591e-08
5.3532107e-08
-0.00018097051
-1.9796025e-08
6.9901294e-08
-0.00018097112
-1.9808453e-08
3.3506883e-08
-0.00018105699
-1.978891e-08
-0.00018063037
-1.9562682e-08
6.1021693e-08
-0.00017504202
1.5744593e-07
1.7977285e-08
-0.00017536254
1.5779844e-07
1.9105093e-08
-0.0001753211
1.5781632e-07
3.6351122e-09
-0.0001753036
1.57824e-07
6.1012326e-09
-0.00017530189
1.5781523e-07
6.5908809e-10
-0.00017528634
1.5781546e-07
1.8925855e-09
-0.00017529154
1.5781208e-07
7.4575681e-11
-0.00017528283
1.5781194e-07
3.9852229e-10
-0.00017528607
1.578116e-07
3.2676466e-15
-0.00017528338
1.578114e-07
-3.9851711e-10
-0.00017528338
1.578114e-07
-7.4571661e-11
-0.00017528607
1.578116e-07
-1.8925822e-09
-0.00017528283
1.5781194e-07
-6.5909149e-10
-0.00017529154
1.5781208e-07
-6.1012302e-09
-0.00017528634
1.5781545e-07
-3.6351054e-09
-0.00017530189
1.5781524e-07
-1.910509e-08
-0.0001753036
1.57824e-07
-1.7977281e-08
-0.0001753211
1.5781631e-07
-6.1021688e-08
-0.00017536254
1.5779844e-07
-0.00017504202
1.5744593e-07
-7.0311222e-08
-0.00017586252
-1.3083767e-07
-8.4593741e-08
-0.00017623919
-1.3073193e-07
-7.3803246e-08
-0.0001762231
-1.3079005e-07
-6.0378386e-08
-0.00017620805
-1.3075818e-07
-4.9427478e-08
-0.00017620409
-1.3076258e-07
-3.6122003e-08
-0.00017619084
-1.3075105e-07
-2.6843375e-08
-0.00017619217
-1.3075458e-07
-1.6739142e-08
-0.00017618426
-1.3074873e-07
-8.4506274e-09
-0.00017618571
-1.3075072e-07
5.1260331e-15
-0.00017618316
-1.3074893e-07
8.450636e-09
-0.00017618316
-1.3074893e-07
1.6739146e-08
-0.00017618571
-1.3075072e-07
2.6843376e-08
-0.00017618426
-1.3074873e-07
3.6122007e-08
-0.00017619217
-1.3075458e-07
4.9427485e-08
-0.00017619084
-1.3075106e-07
6.0378395e-08
-0.00017620409
-1.3076258e-07
7.380325e-08
-0.00017620805
-1.3075818e-07
8.4593743e-08
-0.0001762231
-1.3079004e-07
7.0311233e-08
-0.00017623919
-1.3073192e-07
-0.00017586252
-1.3083767e-07
1.3578005e-07
-0.00016372817
2.5334509e-07
7.8587775e-08
-0.00016391137
2.5336892e-07
8.761503e-08
-0.00016396191
2.5346792e-07
4.6652648e-08
-0.00016389622
2.5342916e-07
4.877025e-08
-0.0001639358
2.5343447e-07
2.5900684e-08
-0.00016389706
2.534263e-07
2.4038311e-08
-0.00016391985
2.5342656e-07
1.1577369e-08
-0.00016390104
2.5342392e-07
7.2125996e-09
-0.00016391084
2.5342379e-07
4.8101938e-15
-0.00016390533
2.5342318e-07
-7.212592e-09
-0.00016390533
2.5342319e-07
-1.1577371e-08
-0.00016391084
2.534238e-07
-2.4038313e-08
-0.00016390104
2.5342392e-07
-2.5900689e-08
-0.00016391985
2.5342657e-07
-4.8770259e-08
-0.00016389706
2.5342629e-07
-4.6652657e-08
-0.0001639358
2.5343447e-07
-8.7615034e-08
-0.00016389622
2.5342917e-07
-7.8587777e-08
-0.00016396191
2.5346794e-07
-1.3578005e-07
-0.00016391137
2.5336891e-07
-0.00016372817
2.533451e-07
-1.4207633e-07
-0.00017439708
-2.492664e-07
-1.2265764e-07
-0.00017474196
-2.4930532e-07
-1.2701871e-07
-0.00017476859
-2.4942034e-07
-9.7213658e-08
-0.00017473734
-2.4938721e-07
-9.0545117e-08
-0.00017475367
-2.4940685e-07
-6.4071974e-08
-0.00017473494
-2.49392e-07
-5.2294284e-08
-0.00017474286
-2.49398e-07
-3.129603e-08
-0.00017473345
-2.4939253e-07
-1.6943111e-08
-0.00017473654
-2.493941e-07
1.2189634e-14
-0.00017473372
-2.4939281e-07
1.6943129e-08
-0.00017473372
-2.4939282e-07
3.1296038e-08
-0.00017473654
-2.4939412e-07
5.2294287e-08
-0.00017473345
-2.4939254e-07
6.4071979e-08
-0.00017474286
-2.4939799e-07
9.054512e-08
-0.00017473494
-2.49392e-07
9.7213663e-08
-0.00017475367
-2.4940686e-07
1.2701872e-07
-0.00017473734
-2.493872e-07
1.2265765e-07
-0.00017476859
-2.4942034e-07
1.4207634e-07
-0.00017474196
-2.4930532e-07
-0.00017439708
-2.492664e-07
4.0159187e-07
-0.00014324355
6.1091429e-07
1.6528354e-07
-0.00014294952
6.114921e-07
2.1462504e-07
-0.0001432636
6.1157994e-07
1.1795093e-07
-0.00014308428
6.1158507e-07
1.2198179e-07
-0.00014320304
6.1156544e-07
7.4109997e-08
-0.00014313077
6.1158736e-07
6.3975534e-08
-0.00014317766
6.1156702e-07
3.5482619e-08
-0.00014314889
6.1158258e-07
2.0021575e-08
-0.00014316567
6.115715e-07
-2.1883022e-15
-0.00014315797
6.1157688e-07
-2.0021583e-08
-0.00014315797
6.1157688e-07
-3.5482631e-08
-0.00014316567
6.1157147e-07
-6.3975547e-08
-0.00014314889
6.1158257e-07
-7.4110006e-08
-0.00014317766
6.1156702e-07
-1.219818e-07
-0.00014313077
6.1158736e-07
-1.1795093e-07
-0.00014320304
6.1156541e-07
-2.1462505e-07
-0.00014308428
6.1158509e-07
-1.6528357e-07
-0.0001432636
6.1157996e-07
-4.0159188e-07
-0.00014294952
6.1149207e-07
-0.00014324355
6.109143e-07
-4.1887556e-07
-0.0001807066
-6.3159024e-07
-2.1100932e-07
-0.00018104047
-6.322349e-07
-2.6548191e-07
-0.00018109037
-6.3242049e-07
-1.6745226e-07
-0.00018106557
-6.3237996e-07
-1.7136827e-07
-0.00018108072
-6.3236352e-07
-1.1345815e-07
-0.00018107187
-6.3239037e-07
-9.7357557e-08
-0.00018107578
-6.3236523e-07
-5.6743184e-08
-0.00018107258
-6.3238655e-07
-3.1633797e-08
-0.00018107325
-6.3237217e-07
8.0310468e-15
-0.00018107243
-6.3237968e-07
3.1633828e-08
-0.00018107243
-6.3237965e-07
5.6743214e-08
-0.00018107325
-6.3237217e-07
9.7357582e-08
-0.00018107258
-6.3238655e-07
1.1345816e-07
-0.00018107578
-6.3236524e-07
1.7136828e-07
-0.00018107187
-6.3239037e-07
1.6745228e-07
-0.00018108072
-6.323635e-07
2.6548192e-07
-0.00018106557
-6.3237995e-07
2.1100933e-07
-0.00018109037
-6.3242049e-07
4.1887557e-07
-0.00018104047
-6.322349e-07
-0.0001807066
-6.3159023e-07
3.2226692e-07
7.7514148e-07
3.2160799e-07
7.81665e-07
2.5998308e-07
7.7819325e-07
2.3498561e-07
7.7898884e-07
1.8510665e-07
7.7866258e-07
1.5237054e-07
7.788144e-07
1.0948819e-07
7.7871451e-07
7.4635272e-08
7.7878176e-07
3.6112227e-08
7.7873914e-07
6.0931238e-15
7.7875998e-07
-3.6112244e-08
7.7875997e-07
-7.4635308e-08
7.7873914e-07
-1.0948824e-07
7.7878181e-07
-1.5237058e-07
7.7871454e-07
-1.8510668e-07
7.7881441e-07
-2.3498563e-07
7.7866261e-07
-2.5998311e-07
7.7898884e-07
-3.2160798e-07
7.7819329e-07
-3.222669e-07
7.8166498e-07
7.7514145e-07
-2.9002028e-07
-0.00018697139
2.8190018e-14
-6.8755011e-08
-0.00018748178
3.0891781e-14
-4.8961082e-08
-0.00018728147
2.7258339e-14
-2.3983591e-08
-0.00018728638
2.5836954e-14
-1.6692186e-08
-0.00018726895
2.9333188e-14
-1.1386853e-08
-0.00018726682
2.6895215e-14
-7.3121977e-09
-0.00018726568
3.1985619e-14
-4.8833578e-09
-0.00018726393
3.51417e-14
-2.1575356e-09
-0.00018726428
3.0414964e-14
1.0349967e-15
-0.00018726368
2.9735358e-14
2.1575384e-09
-0.00018726368
3.7452403e-14
4.8833623e-09
-0.00018726428
3.2185149e-14
7.3122e-09
-0.00018726393
2.711335e-14
1.1386853e-08
-0.00018726568
3.3904491e-14
1.6692186e-08
-0.00018726682
2.9952222e-14
2.3983596e-08
-0.00018726895
2.621323e-14
4.896109e-08
-0.00018728638
3.2631211e-14
6.8755018e-08
-0.00018728147
2.7473182e-14
2.9002028e-07
-0.00018748178
2.7610748e-14
-0.00018697139
3.5136375e-14
2.5199219e-08
-0.00018405827
5.3171376e-14
-2.8243194e-08
-0.00018448993
5.7854623e-14
-2.0876492e-08
-0.00018435057
5.2872697e-14
-1.752919e-08
-0.0001843512
5.7984955e-14
-1.165668e-08
-0.00018433651
5.9704089e-14
-9.2943663e-09
-0.00018433068
5.6723204e-14
-5.6028387e-09
-0.00018433097
5.2370676e-14
-4.0889859e-09
-0.00018432691
5.596359e-14
-1.6906685e-09
-0.0001843282
5.8006592e-14
1.740736e-15
-0.00018432684
5.5239513e-14
1.690672e-09
-0.00018432684
5.8890933e-14
4.0889888e-09
-0.0001843282
5.6037235e-14
5.6028403e-09
-0.00018432691
5.5675665e-14
9.2943659e-09
-0.00018433097
6.2559241e-14
1.165668e-08
-0.00018433068
5.8804833e-14
1.7529193e-08
-0.00018433651
5.2469435e-14
2.0876497e-08
-0.0001843512
5.8132671e-14
2.8243206e-08
-0.00018435057
5.9458467e-14
-2.5199204e-08
-0.00018448993
5.4548859e-14
-0.00018405827
4.4721584e-14
-3.3871916e-08
-0.00018221393
4.4376784e-14
-7.0206041e-08
-0.00018264303
3.7070722e-14
-5.3761297e-08
-0.00018255689
3.7880856e-14
-3.8352455e-08
-0.0001825562
3.4618913e-14
-2.8486716e-08
-0.00018253622
3.8798202e-14
-2.0092038e-08
-0.00018252874
3.8327161e-14
-1.3782795e-08
-0.00018252707
3.7159615e-14
-8.8207752e-09
-0.00018252155
4.3586423e-14
-4.1583308e-09
-0.00018252259
4.1107948e-14
3.2537108e-15
-0.0001825207
3.3815049e-14
4.1583359e-09
-0.0001825207
3.2008688e-14
8.8207783e-09
-0.00018252259
3.644768e-14
1.3782796e-08
-0.00018252155
3.6312227e-14
2.009204e-08
-0.00018252707
3.6122925e-14
2.8486716e-08
-0.00018252874
4.046771e-14
3.8352459e-08
-0.00018253622
3.8055563e-14
5.3761302e-08
-0.0001825562
3.5095956e-14
7.0206052e-08
-0.00018255689
3.7740507e-14
3.3871927e-08
-0.00018264303
4.3113036e-14
-0.00018221393
4.2621128e-14
6.1335386e-08
-0.00017630888
1.6707077e-14
1.8021292e-08
-0.00017663254
1.1942041e-14
1.9130018e-08
-0.00017659105
8.4914479e-15
3.6235823e-09
-0.00017657343
9.2361234e-15
6.0949965e-09
-0.00017657172
2.1259011e-15
6.4926862e-10
-0.00017655611
7.6528407e-15
1.8853432e-09
-0.00017656133
1.7084467e-14
6.8832913e-11
-0.00017655258
2.0484999e-14
3.9570356e-10
-0.00017655583
1.9266321e-14
2.6785988e-15
-0.00017655313
9.8548265e-15
-3.9569935e-10
-0.00017655313
4.5817399e-15
-6.883012e-11
-0.00017655583
1.4574253e-14
-1.8853406e-09
-0.00017655258
1.5196868e-14
-6.4927034e-10
-0.00017656133
1.5643234e-14
-6.0949912e-09
-0.00017655611
5.482387e-15
-3.6235785e-09
-0.00017657172
1.5072566e-14
-1.9130014e-08
-0.00017657343
1.4298757e-14
-1.802129e-08
-0.00017659105
1.2300131e-14
-6.1335386e-08
-0.00017663254
1.7882669e-14
-0.00017630888
1.0861752e-14
-7.0683633e-08
-0.00017739098
2.5465004e-14
-8.4869515e-08
-0.00017777105
8.513782e-15
-7.4100391e-08
-0.0001777549
1.2439974e-14
-6.0611977e-08
-0.00017773976
2.4819083e-14
-4.9622242e-08
-0.00017773579
2.1192492e-14
-3.6265856e-08
-0.00017772247
4.9292356e-15
-2.6949378e-08
-0.0001777238
7.3973607e-15
-1.6806344e-08
-0.00017771586
1.4760283e-14
-8.4840531e-09
-0.00017771731
9.8299508e-15
3.4107541e-15
-0.00017771474
1.4476314e-14
8.4840588e-09
-0.00017771474
8.2158947e-15
1.6806347e-08
-0.00017771731
1.0920175e-14
2.6949381e-08
-0.00017771586
6.386994e-15
3.6265863e-08
-0.0001777238
1.5866474e-14
4.9622246e-08
-0.00017772247
1.1353581e-14
6.061198e-08
-0.00017773579
1.2652661e-14
7.4100404e-08
-0.00017773976
2.1953689e-14
8.4869519e-08
-0.0001777549
2.8803964e-14
7.0683631e-08
-0.00017777105
1.203515e-14
-0.00017739098
4.9184578e-15
1.3635659e-07
-0.00016475048
8.6278872e-15
7.8829538e-08
-0.00016493612
-3.6481051e-15
8.7895659e-08
-0.00016498679
4.9692271e-15
4.6815975e-08
-0.00016492092
5.8576368e-15
4.8919037e-08
-0.00016496058
4.2189692e-15
2.5992771e-08
-0.00016492174
1.5141038e-14
2.4110787e-08
-0.00016494457
1.3703818e-14
1.161878e-08
-0.00016492572
1.4178926e-14
7.2342958e-09
-0.00016493554
1.4393376e-15
2.4662625e-15
-0.00016493001
1.0946993e-15
-7.2342857e-09
-0.00016493001
-6.8523462e-15
-1.1618782e-08
-0.00016493554
-8.5671613e-15
-2.4110794e-08
-0.00016492572
1.2761862e-15
-2.5992775e-08
-0.00016494457
6.7849482e-15
-4.8919043e-08
-0.00016492174
3.3537082e-15
-4.6815984e-08
-0.00016496058
5.5348639e-15
-8.7895661e-08
-0.00016492092
4.6960098e-15
-7.8829541e-08
-0.00016498679
2.7539301e-15
-1.3635659e-07
-0.00016493612
3.0665674e-15
-0.00016475048
1.0291208e-14
-1.4273746e-07
-0.00017591768
1.3764591e-15
-1.2307803e-07
-0.00017626599
1.7030595e-14
-1.2749597e-07
-0.00017629267
6.9986093e-15
-9.7592123e-08
-0.00017626133
-4.3836122e-15
-9.0882406e-08
-0.00017627773
-3.2149649e-15
-6.4326649e-08
-0.00017625891
4.6792269e-15
-5.2490446e-08
-0.00017626686
-3.0685027e-15
-3.1421746e-08
-0.00017625741
5.7711564e-15
-1.7006997e-08
-0.00017626051
-2.94289e-15
8.1527468e-15
-0.00017625767
1.3217731e-14
1.7007009e-08
-0.00017625767
9.3274128e-15
3.1421761e-08
-0.00017626051
-1.7020919e-14
5.249045e-08
-0.00017625741
-9.0446794e-15
6.4326651e-08
-0.00017626686
7.1394925e-15
9.088241e-08
-0.00017625891
-6.1977605e-16
9.7592123e-08
-0.00017627773
4.4844603e-15
1.2749598e-07
-0.00017626133
-7.0809215e-15
1.2307805e-07
-0.00017629267
6.4102992e-15
1.4273747e-07
-0.00017626599
2.2470048e-14
-0.00017591768
7.4237818e-15
4.0317946e-07
-0.00014354424
-9.6352049e-16
1.6592241e-07
-0.00014324995
3.4593422e-14
2.1538132e-07
-0.00014356497
1.5250227e-14
1.1844322e-07
-0.00014338518
-1.0349615e-15
1.2241493e-07
-0.00014350424
1.5958646e-14
7.441871e-08
-0.00014343178
-3.3326722e-15
6.4205041e-08
-0.00014347879
1.0213588e-14
3.5630102e-08
-0.00014344994
-1.9924303e-15
2.009374e-08
-0.00014346676
-9.180947e-15
1.8266126e-15
-0.00014345903
1.5727429e-14
-2.0093748e-08
-0.00014345903
1.5260207e-14
-3.5630122e-08
-0.00014346676
-2.1413222e-14
-6.4205064e-08
-0.00014344994
-2.0267142e-14
-7.441873e-08
-0.00014347879
-7.9956981e-15
-1.2241494e-07
-0.00014343178
-8.732289e-15
-1.1844325e-07
-0.00014350424
-7.9818323e-15
-2.1538133e-07
-0.00014338518
-6.9707838e-15
-1.6592239e-07
-0.00014356497
7.164078e-15
-4.0317946e-07
-0.00014324995
1.2895365e-14
-0.00014354424
1.500531e-14
-4.206188e-07
-0.00018226983
-2.5116206e-15
-2.1185282e-07
-0.00018260737
2.4365268e-15
-2.6644812e-07
-0.00018265756
6.359744e-15
-1.6814846e-07
-0.00018263259
1.3479699e-16
-1.7200285e-07
-0.00018264781
-2.9911239e-15
-1.1393399e-07
-0.00018263892
6.6463709e-15
-9.7722942e-08
-0.00018264284
1.4280241e-14
-5.6981433e-08
-0.00018263962
-7.7251294e-15
-3.1753265e-08
-0.00018264029
-1.4836759e-14
4.6759631e-15
-0.00018263947
-1.4604428e-14
3.1753295e-08
-0.00018263947
-7.1944373e-15
5.6981463e-08
-0.00018264029
-9.7016228e-15
9.772297e-08
-0.00018263962
9.2719703e-16
1.13934e-07
-0.00018264284
6.5679601e-15
1.7200287e-07
-0.00018263892
-5.7486271e-15
1.6814848e-07
-0.00018264781
2.0681818e-14
2.6644813e-07
-0.00018263259
3.3883842e-15
2.1185284e-07
-0.00018265756
1.2859976e-14
4.2061881e-07
-0.00018260737
-2.1307691e-15
-0.00018226983
5.6811123e-15
3.1868052e-07
-1.581596e-14
3.238353e-07
1.5830701e-14
2.6078003e-07
-1.6285758e-14
2.3611334e-07
-1.2214617e-14
1.8584657e-07
-2.8254055e-14
1.5307042e-07
-3.2914737e-14
1.0993117e-07
-1.2397352e-14
7.4973953e-08
-2.2213351e-14
3.6258206e-08
-6.1875947e-15
5.8457393e-15
-1.1022077e-14
-3.6258223e-08
-3.7457412e-15
-7.4973983e-08
-1.622183e-14
-1.0993122e-07
2.0362556e-14
-1.5307047e-07
1.2969846e-14
-1.858466e-07
5.8366563e-15
-2.3611337e-07
1.6418832e-14
-2.6078006e-07
7.1843978e-15
-3.2383531e-07
1.1689927e-14
-3.1868051e-07
6.4848073e-15
-2.3922201e-14
-2.9002028e-07
-0.00018697139
9.1050626e-07
-6.8755012e-08
-0.00018748178
9.1134493e-07
-4.8961082e-08
-0.00018728147
9.1159439e-07
-2.398359e-08
-0.00018728638
9.1157069e-07
-1.6692187e-08
-0.00018726895
9.1158283e-07
-1.1386854e-08
-0.00018726682
9.1158465e-07
-7.3121968e-09
-0.00018726568
9.1158623e-07
-4.883359e-09
-0.00018726393
9.1158817e-07
-2.157536e-09
-0.00018726428
9.1158855e-07
1.7861746e-15
-0.00018726368
9.1158922e-07
2.1575388e-09
-0.00018726368
9.1158922e-07
4.883363e-09
-0.00018726428
9.1158855e-07
7.3121995e-09
-0.00018726393
9.1158817e-07
1.1386854e-08
-0.00018726568
9.1158623e-07
1.6692184e-08
-0.00018726682
9.1158465e-07
2.3983595e-08
-0.00018726895
9.1158283e-07
4.8961088e-08
-0.00018728638
9.1157069e-07
6.875502e-08
-0.00018728147
9.1159439e-07
2.9002029e-07
-0.00018748178
9.1134493e-07
-0.00018697139
9.1050626e-07
2.5199221e-08
-0.00018405827
-1.3692117e-07
-2.8243193e-08
-0.00018448993
-1.3717186e-07
-2.087649e-08
-0.00018435057
-1.3713027e-07
-1.7529189e-08
-0.0001843512
-1.3715018e-07
-1.1656682e-08
-0.00018433651
-1.3714339e-07
-9.2943667e-09
-0.00018433068
-1.3714815e-07
-5.6028377e-09
-0.00018433097
-1.3714623e-07
-4.0889849e-09
-0.00018432691
-1.3714833e-07
-1.6906689e-09
-0.0001843282
-1.3714766e-07
1.4483912e-15
-0.00018432684
-1.371483e-07
1.6906719e-09
-0.00018432684
-1.371483e-07
4.0889892e-09
-0.0001843282
-1.3714766e-07
5.6028417e-09
-0.00018432691
-1.3714834e-07
9.2943643e-09
-0.00018433097
-1.3714623e-07
1.1656679e-08
-0.00018433068
-1.3714815e-07
1.7529194e-08
-0.00018433651
-1.3714339e-07
2.0876498e-08
-0.0001843512
-1.3715017e-07
2.8243203e-08
-0.00018435057
-1.3713027e-07
-2.5199208e-08
-0.00018448993
-1.3717186e-07
-0.00018405827
-1.3692118e-07
-3.3871913e-08
-0.00018221393
1.9562729e-08
-7.0206042e-08
-0.00018264303
1.978895e-08
-5.3761296e-08
-0.00018255689
1.9808506e-08
-3.8352452e-08
-0.0001825562
1.9796068e-08
-2.8486718e-08
-0.00018253622
1.9793628e-08
-2.0092039e-08
-0.00018252874
1.9785431e-08
-1.3782795e-08
-0.00018252707
1.978733e-08
-8.8207746e-09
-0.00018252155
1.9782461e-08
-4.1583297e-09
-0.00018252259
1.978415e-08
3.2166956e-15
-0.0001825207
1.9782542e-08
4.1583341e-09
-0.0001825207
1.9782541e-08
8.8207784e-09
-0.00018252259
1.9784146e-08
1.3782797e-08
-0.00018252155
1.9782452e-08
2.0092038e-08
-0.00018252707
1.9787327e-08
2.8486716e-08
-0.00018252874
1.9785432e-08
3.8352459e-08
-0.00018253622
1.9793632e-08
5.3761304e-08
-0.0001825562
1.9796067e-08
7.0206053e-08
-0.00018255689
1.9808502e-08
3.3871924e-08
-0.00018264303
1.9788951e-08
-0.00018221393
1.9562718e-08
6.133539e-08
-0.00017630888
-1.5744591e-07
1.8021294e-08
-0.00017663254
-1.5779842e-07
1.9130021e-08
-0.00017659105
-1.578163e-07
3.6235849e-09
-0.00017657343
-1.5782398e-07
6.0949916e-09
-0.00017657172
-1.5781522e-07
6.492699e-10
-0.00017655611
-1.5781544e-07
1.8853448e-09
-0.00017656133
-1.5781206e-07
6.8832896e-11
-0.00017655258
-1.5781191e-07
3.9570367e-10
-0.00017655583
-1.5781158e-07
2.709605e-15
-0.00017655313
-1.5781138e-07
-3.956992e-10
-0.00017655313
-1.5781138e-07
-6.8829805e-11
-0.00017655583
-1.5781159e-07
-1.8853418e-09
-0.00017655258
-1.5781192e-07
-6.4927135e-10
-0.00017656133
-1.5781206e-07
-6.0949899e-09
-0.00017655611
-1.5781544e-07
-3.6235791e-09
-0.00017657172
-1.5781522e-07
-1.9130016e-08
-0.00017657343
-1.5782398e-07
-1.802129e-08
-0.00017659105
-1.5781629e-07
-6.1335388e-08
-0.00017663254
-1.5779842e-07
-0.00017630888
-1.5744591e-07
-7.0683624e-08
-0.00017739098
1.3083768e-07
-8.4869517e-08
-0.00017777105
1.3073194e-07
-7.4100399e-08
-0.0001777549
1.3079006e-07
-6.0611972e-08
-0.00017773976
1.3075819e-07
-4.9622233e-08
-0.00017773579
1.307626e-07
-3.6265854e-08
-0.00017772247
1.3075107e-07
-2.6949378e-08
-0.0001777238
1.307546e-07
-1.680634e-08
-0.00017771586
1.3074875e-07
-8.4840513e-09
-0.00017771731
1.3075073e-07
3.5804096e-15
-0.00017771474
1.3074895e-07
8.4840586e-09
-0.00017771474
1.3074894e-07
1.6806345e-08
-0.00017771731
1.3075073e-07
2.6949382e-08
-0.00017771586
1.3074874e-07
3.6265862e-08
-0.0001777238
1.307546e-07
4.9622242e-08
-0.00017772247
1.3075107e-07
6.0611975e-08
-0.00017773579
1.307626e-07
7.4100401e-08
-0.00017773976
1.307582e-07
8.4869524e-08
-0.0001777549
1.3079006e-07
7.0683637e-08
-0.00017777105
1.3073194e-07
-0.00017739098
1.3083767e-07
1.3635659e-07
-0.00016475048
-2.5334507e-07
7.882953e-08
-0.00016493612
-2.5336892e-07
8.7895662e-08
-0.00016498679
-2.5346792e-07
4.6815982e-08
-0.00016492092
-2.5342916e-07
4.8919037e-08
-0.00016496058
-2.5343447e-07
2.5992773e-08
-0.00016492174
-2.5342629e-07
2.411079e-08
-0.00016494457
-2.5342655e-07
1.1618782e-08
-0.00016492572
-2.534239e-07
7.2342915e-09
-0.00016493554
-2.5342379e-07
3.7549557e-15
-0.00016493001
-2.5342318e-07
-7.2342873e-09
-0.00016493001
-2.5342318e-07
-1.1618783e-08
-0.00016493554
-2.5342381e-07
-2.4110788e-08
-0.00016492572
-2.5342392e-07
-2.5992776e-08
-0.00016494457
-2.5342656e-07
-4.8919044e-08
-0.00016492174
-2.5342628e-07
-4.6815986e-08
-0.00016496058
-2.5343446e-07
-8.7895665e-08
-0.00016492092
-2.5342917e-07
-7.8829539e-08
-0.00016498679
-2.5346793e-07
-1.3635659e-07
-0.00016493612
-2.5336891e-07
-0.00016475048
-2.5334509e-07
-1.4273747e-07
-0.00017591768
2.4926641e-07
-1.2307804e-07
-0.00017626599
2.4930534e-07
-1.2749598e-07
-0.00017629267
2.4942036e-07
-9.7592127e-08
-0.00017626133
2.493872e-07
-9.0882406e-08
-0.00017627773
2.4940685e-07
-6.4326654e-08
-0.00017625891
2.49392e-07
-5.249044e-08
-0.00017626686
2.4939799e-07
-3.1421737e-08
-0.00017625741
2.4939253e-07
-1.7006993e-08
-0.00017626051
2.493941e-07
9.3767104e-15
-0.00017625767
2.4939282e-07
1.7007001e-08
-0.00017625767
2.4939282e-07
3.1421758e-08
-0.00017626051
2.4939409e-07
5.2490457e-08
-0.00017625741
2.4939253e-07
6.4326651e-08
-0.00017626686
2.49398e-07
9.0882408e-08
-0.00017625891
2.4939199e-07
9.7592123e-08
-0.00017627773
2.4940687e-07
1.2749598e-07
-0.00017626133
2.493872e-07
1.2307805e-07
-0.00017629267
2.4942037e-07
1.4273747e-07
-0.00017626599
2.4930535e-07
-0.00017591768
2.492664e-07
4.0317945e-07
-0.00014354424
-6.1091429e-07
1.6592241e-07
-0.00014324995
-6.1149208e-07
2.1538133e-07
-0.00014356497
-6.1157993e-07
1.1844322e-07
-0.00014338518
-6.1158508e-07
1.2241493e-07
-0.00014350424
-6.1156542e-07
7.4418712e-08
-0.00014343178
-6.1158735e-07
6.420506e-08
-0.00014347879
-6.1156702e-07
3.5630118e-08
-0.00014344994
-6.1158258e-07
2.0093724e-08
-0.00014346676
-6.1157147e-07
-1.6370684e-14
-0.00014345903
-6.1157687e-07
-2.0093741e-08
-0.00014345903
-6.1157688e-07
-3.5630112e-08
-0.00014346676
-6.1157149e-07
-6.420505e-08
-0.00014344994
-6.1158259e-07
-7.4418716e-08
-0.00014347879
-6.1156702e-07
-1.2241494e-07
-0.00014343178
-6.1158736e-07
-1.1844325e-07
-0.00014350424
-6.1156542e-07
-2.1538135e-07
-0.00014338518
-6.1158507e-07
-1.6592242e-07
-0.00014356497
-6.1157993e-07
-4.0317946e-07
-0.00014324995
-6.1149209e-07
-0.00014354424
-6.1091429e-07
-4.2061881e-07
-0.00018226983
6.3159024e-07
-2.1185283e-07
-0.00018260737
6.3223491e-07
-2.6644812e-07
-0.00018265756
6.324205e-07
-1.6814846e-07
-0.00018263259
6.3237996e-07
-1.7200285e-07
-0.00018264781
6.3236351e-07
-1.1393399e-07
-0.00018263892
6.3239039e-07
-9.7722945e-08
-0.00018264284
6.3236525e-07
-5.6981436e-08
-0.00018263962
6.3238656e-07
-3.1753262e-08
-0.00018264029
6.3237216e-07
1.0843267e-14
-0.00018263947
6.3237965e-07
3.1753296e-08
-0.00018263947
6.3237966e-07
5.6981466e-08
-0.00018264029
6.3237216e-07
9.772297e-08
-0.00018263962
6.3238656e-07
1.13934e-07
-0.00018264284
6.3236525e-07
1.7200287e-07
-0.00018263892
6.3239037e-07
1.6814848e-07
-0.00018264781
6.3236353e-07
2.6644813e-07
-0.00018263259
6.3237997e-07
2.1185284e-07
-0.00018265756
6.3242051e-07
4.2061881e-07
-0.00018260737
6.322349e-07
-0.00018226983
6.3159025e-07
3.1868049e-07
-7.7514149e-07
3.2383531e-07
-7.81665e-07
2.6078007e-07
-7.7819329e-07
2.3611334e-07
-7.7898883e-07
1.8584657e-07
-7.7866263e-07
1.5307042e-07
-7.7881443e-07
1.0993117e-07
-7.7871454e-07
7.4973954e-08
-7.787818e-07
3.6258209e-08
-7.7873915e-07
2.1135535e-15
-7.7876e-07
-3.6258219e-08
-7.7875997e-07
-7.4973982e-08
-7.7873917e-07
-1.0993121e-07
-7.7878176e-07
-1.5307046e-07
-7.7871451e-07
-1.8584659e-07
-7.7881442e-07
-2.3611336e-07
-7.7866258e-07
-2.6078008e-07
-7.7898884e-07
-3.2383532e-07
-7.7819327e-07
-3.1868051e-07
-7.8166499e-07
-7.7514147e-07
-2.8859515e-07
-0.00018515858
-6.8500459e-08
-0.00018566278
-4.8765924e-08
-0.00018546308
-2.3881064e-08
-0.00018546801
-1.6621053e-08
-0.00018545061
-1.133752e-08
-0.00018544848
-7.2797209e-09
-0.00018544734
-4.8624009e-09
-0.0001854456
-2.1478455e-09
-0.00018544595
2.6156969e-15
-0.00018544535
2.147847e-09
-0.00018544535
4.8624035e-09
-0.00018544595
7.2797176e-09
-0.0001854456
1.133752e-08
-0.00018544734
1.6621058e-08
-0.00018544848
2.3881069e-08
-0.00018545061
4.8765932e-08
-0.00018546801
6.8500465e-08
-0.00018546308
2.8859516e-07
-0.00018566278
-0.00018515858
2.5166178e-08
-0.00018251606
-2.8098391e-08
-0.00018294352
-2.0760235e-08
-0.00018280449
-1.7440006e-08
-0.00018280516
-1.1595173e-08
-0.0001827905
-9.2484675e-09
-0.0001827847
-5.5732712e-09
-0.00018278499
-4.069304e-09
-0.00018278094
-1.6817647e-09
-0.00018278222
1.7739465e-15
-0.00018278087
1.6817671e-09
-0.00018278087
4.0693069e-09
-0.00018278222
5.5732747e-09
-0.00018278094
9.2484681e-09
-0.00018278499
1.1595171e-08
-0.0001827847
1.744001e-08
-0.0001827905
2.076024e-08
-0.00018280516
2.80984e-08
-0.00018280449
-2.5166165e-08
-0.00018294352
-0.00018251606
-3.3506873e-08
-0.00018063037
-6.9901285e-08
-0.00018105699
-5.3532101e-08
-0.00018097112
-3.8191907e-08
-0.00018097051
-2.8367936e-08
-0.00018095059
-2.0007799e-08
-0.00018094316
-1.3724526e-08
-0.00018094149
-8.7839108e-09
-0.000180936
-4.1406301e-09
-0.00018093704
2.0319525e-15
-0.00018093515
4.1406344e-09
-0.00018093515
8.7839144e-09
-0.00018093704
1.3724531e-08
-0.000180936
2.0007801e-08
-0.00018094149
2.8367934e-08
-0.00018094316
3.8191913e-08
-0.00018095059
5.3532108e-08
-0.00018097051
6.9901293e-08
-0.00018097112
3.3506881e-08
-0.00018105699
-0.00018063037
6.1021693e-08
-0.00017504202
1.7977284e-08
-0.00017536254
1.9105092e-08
-0.0001753211
3.6351101e-09
-0.0001753036
6.1012327e-09
-0.00017530189
6.5909057e-10
-0.00017528634
1.8925878e-09
-0.00017529154
7.4574912e-11
-0.00017528283
3.9851974e-10
-0.00017528607
1.6726475e-15
-0.00017528338
-3.9851666e-10
-0.00017528338
-7.4571483e-11
-0.00017528607
-1.8925826e-09
-0.00017528283
-6.5909045e-10
-0.00017529154
-6.1012287e-09
-0.00017528634
-3.6351045e-09
-0.00017530189
-1.910509e-08
-0.0001753036
-1.7977283e-08
-0.0001753211
-6.1021689e-08
-0.00017536254
-0.00017504202
-7.0311222e-08
-0.00017586252
-8.4593741e-08
-0.00017623919
-7.3803247e-08
-0.0001762231
-6.0378386e-08
-0.00017620805
-4.9427478e-08
-0.00017620409
-3.6122001e-08
-0.00017619084
-2.6843374e-08
-0.00017619217
-1.6739143e-08
-0.00017618426
-8.4506271e-09
-0.00017618571
4.1759215e-15
-0.00017618316
8.4506357e-09
-0.00017618316
1.6739144e-08
-0.00017618571
2.684338e-08
-0.00017618426
3.6122008e-08
-0.00017619217
4.9427484e-08
-0.00017619084
6.0378397e-08
-0.00017620409
7.380325e-08
-0.00017620805
8.4593742e-08
-0.0001762231
7.031123e-08
-0.00017623919
-0.00017586252
1.3578004e-07
-0.00016372817
7.8587771e-08
-0.00016391137
8.7615029e-08
-0.00016396191
4.6652652e-08
-0.00016389622
4.8770253e-08
-0.0001639358
2.5900684e-08
-0.00016389706
2.403831e-08
-0.00016391985
1.1577366e-08
-0.00016390104
7.2125968e-09
-0.00016391084
3.5096277e-15
-0.00016390533
-7.2125948e-09
-0.00016390533
-1.1577368e-08
-0.00016391084
-2.4038312e-08
-0.00016390104
-2.5900687e-08
-0.00016391985
-4.8770261e-08
-0.00016389706
-4.6652656e-08
-0.0001639358
-8.7615034e-08
-0.00016389622
-7.8587774e-08
-0.00016396191
-1.3578005e-07
-0.00016391137
-0.00016372817
-1.4207633e-07
-0.00017439708
-1.2265764e-07
-0.00017474196
-1.2701872e-07
-0.00017476859
-9.7213659e-08
-0.00017473734
-9.0545116e-08
-0.00017475367
-6.4071974e-08
-0.00017473494
-5.2294283e-08
-0.00017474286
-3.1296027e-08
-0.00017473345
-1.6943109e-08
-0.00017473654
8.3015037e-15
-0.00017473372
1.6943118e-08
-0.00017473372
3.1296042e-08
-0.00017473654
5.2294296e-08
-0.00017473345
6.4071978e-08
-0.00017474286
9.0545122e-08
-0.00017473494
9.7213662e-08
-0.00017475367
1.2701873e-07
-0.00017473734
1.2265765e-07
-0.00017476859
1.4207633e-07
-0.00017474196
-0.00017439708
4.0159187e-07
-0.00014324355
1.6528355e-07
-0.00014294952
2.1462503e-07
-0.0001432636
1.1795091e-07
-0.00014308428
1.2198179e-07
-0.00014320304
7.4109994e-08
-0.00014313077
6.3975537e-08
-0.00014317766
3.5482625e-08
-0.00014314889
2.0021575e-08
-0.00014316567
-1.1928487e-14
-0.00014315797
-2.0021591e-08
-0.00014315797
-3.5482631e-08
-0.00014316567
-6.397554e-08
-0.00014314889
-7.4110003e-08
-0.00014317766
-1.219818e-07
-0.00014313077
-1.1795095e-07
-0.00014320304
-2.1462505e-07
-0.00014308428