/*--------------------------------*- C++ -*----------------------------------*\
  =========                 |
  \\      /  F ield         | OpenFOAM: The Open Source CFD Toolbox
   \\    /   O peration     | Website:  https://openfoam.org
    \\  /    A nd           | Version:  8
     \\/     M anipulation  |
\*---------------------------------------------------------------------------*/
FoamFile
{
    version     2.0;
    format      ascii;
    class       volScalarField;
    location    "0.2";
    object      rdim;
}
// * * * * * * * * * * * * * * * * * * * * * * * * * * * * * * * * * * * * * //

dimensions      [0 1 0 0 0 0 0];

internalField   uniform 1;

boundaryField
{
    left
    {
        type            calculated;
        value           uniform 1;
    }
    right
    {
        type            calculated;
        value           uniform 1;
    }
    walls
    {
        type            calculated;
        value           uniform 1;
    }
    centreline
    {
        type            calculated;
        value           uniform 1;
    }
    frontAndBack
    {
        type            calculated;
        value           uniform 1;
    }
}


// ************************************************************************* //
