/*--------------------------------*- C++ -*----------------------------------*\
  =========                 |
  \\      /  F ield         | OpenFOAM: The Open Source CFD Toolbox
   \\    /   O peration     | Website:  https://openfoam.org
    \\  /    A nd           | Version:  8
     \\/     M anipulation  |
\*---------------------------------------------------------------------------*/
FoamFile
{
    version     2.0;
    format      ascii;
    class       volVectorField;
    location    "0.2";
    object      U;
}
// * * * * * * * * * * * * * * * * * * * * * * * * * * * * * * * * * * * * * //

dimensions      [0 1 -1 0 0 0 0];

internalField   nonuniform List<vector> 
800
(
(-7.7448317e-05 0.085082876 -0.00015154923)
(-7.0062792e-06 0.085127102 -0.00015171057)
(-1.191987e-05 0.085142732 -0.00015173965)
(-2.7385522e-06 0.085143651 -0.00015173963)
(-3.8273668e-06 0.085145076 -0.00015174191)
(-1.2237799e-06 0.085146487 -0.00015174317)
(-1.8766598e-06 0.08514629 -0.00015174341)
(-3.5108132e-07 0.08514727 -0.00015174424)
(-9.7399132e-07 0.085147014 -0.00015174422)
(3.1468257e-07 0.085147354 -0.0001517445)
(-3.1468209e-07 0.085147354 -0.0001517445)
(9.7399179e-07 0.085147014 -0.00015174422)
(3.5108185e-07 0.08514727 -0.00015174424)
(1.8766601e-06 0.08514629 -0.00015174341)
(1.2237798e-06 0.085146487 -0.00015174317)
(3.8273667e-06 0.085145076 -0.00015174191)
(2.7385532e-06 0.085143651 -0.00015173963)
(1.1919871e-05 0.085142732 -0.00015173965)
(7.0062799e-06 0.085127102 -0.00015171057)
(7.7448317e-05 0.085082876 -0.00015154923)
(8.6150288e-06 -0.12748514 1.2706575e-05)
(-2.7050804e-06 -0.12760801 1.2728044e-05)
(-3.8701582e-06 -0.12759772 1.2725053e-05)
(-1.6188136e-06 -0.12759949 1.2726446e-05)
(-2.4476432e-06 -0.12759866 1.2725831e-05)
(-6.4161478e-07 -0.12760003 1.2726271e-05)
(-1.4960215e-06 -0.12759962 1.2726036e-05)
(-2.7365497e-09 -0.12760053 1.2726257e-05)
(-9.3207763e-07 -0.12760027 1.2726158e-05)
(4.7773815e-07 -0.12760059 1.2726228e-05)
(-4.7773764e-07 -0.12760059 1.2726228e-05)
(9.3207812e-07 -0.12760027 1.2726158e-05)
(2.7367967e-09 -0.12760053 1.2726257e-05)
(1.4960218e-06 -0.12759962 1.2726036e-05)
(6.4161466e-07 -0.12760003 1.272627e-05)
(2.447643e-06 -0.12759866 1.2725831e-05)
(1.6188146e-06 -0.12759949 1.2726446e-05)
(3.8701583e-06 -0.12759772 1.2725053e-05)
(2.705083e-06 -0.12760801 1.2728044e-05)
(-8.6150276e-06 -0.12748514 1.2706574e-05)
(-1.4410205e-06 0.12750742 -6.3329213e-06)
(-6.0753145e-06 0.12759399 -6.3553063e-06)
(-8.3053928e-06 0.12760058 -6.356271e-06)
(-3.4926951e-06 0.12760258 -6.3552639e-06)
(-4.3671431e-06 0.12760357 -6.355252e-06)
(-1.8848276e-06 0.12760598 -6.3546557e-06)
(-2.2335794e-06 0.12760544 -6.3548417e-06)
(-7.9325062e-07 0.12760708 -6.3545112e-06)
(-1.0148166e-06 0.12760659 -6.3546414e-06)
(1.0127773e-07 0.12760716 -6.3545358e-06)
(-1.0127695e-07 0.12760716 -6.3545357e-06)
(1.0148173e-06 0.12760659 -6.3546417e-06)
(7.9325104e-07 0.12760708 -6.3545119e-06)
(2.2335789e-06 0.12760544 -6.3548412e-06)
(1.8848276e-06 0.12760598 -6.3546553e-06)
(4.3671431e-06 0.12760357 -6.3552524e-06)
(3.4926962e-06 0.12760258 -6.3552635e-06)
(8.305393e-06 0.12760058 -6.3562704e-06)
(6.0753162e-06 0.12759399 -6.3553063e-06)
(1.4410211e-06 0.12750742 -6.3329208e-06)
(9.9936108e-06 -0.18099438 1.4088888e-05)
(9.4132282e-07 -0.18116242 1.4118318e-05)
(2.5647928e-06 -0.18115671 1.4118746e-05)
(6.7520442e-07 -0.18115898 1.4119046e-05)
(1.3324168e-07 -0.181157 1.4118509e-05)
(8.1569593e-07 -0.1811587 1.4118531e-05)
(-6.3508516e-07 -0.18115779 1.4118313e-05)
(8.9880404e-07 -0.18115889 1.4118331e-05)
(-8.6746568e-07 -0.18115846 1.4118287e-05)
(9.1719467e-07 -0.18115884 1.4118288e-05)
(-9.1719415e-07 -0.18115884 1.4118288e-05)
(8.6746601e-07 -0.18115846 1.4118287e-05)
(-8.9880364e-07 -0.18115889 1.411833e-05)
(6.350853e-07 -0.18115779 1.4118313e-05)
(-8.1569684e-07 -0.1811587 1.4118531e-05)
(-1.3324039e-07 -0.181157 1.4118509e-05)
(-6.7520433e-07 -0.18115898 1.4119046e-05)
(-2.5647922e-06 -0.18115671 1.4118746e-05)
(-9.4132267e-07 -0.18116242 1.4118318e-05)
(-9.9936102e-06 -0.18099438 1.4088888e-05)
(-5.6160285e-06 0.19413554 -1.1769276e-05)
(-5.5991459e-06 0.19429206 -1.1777714e-05)
(-7.3720485e-06 0.19429057 -1.1780017e-05)
(-4.4046838e-06 0.19429545 -1.1778441e-05)
(-4.8952765e-06 0.19429332 -1.1778695e-05)
(-2.9500082e-06 0.19429731 -1.1778091e-05)
(-2.6436716e-06 0.19429556 -1.1778268e-05)
(-1.5990413e-06 0.19429798 -1.1777986e-05)
(-1.0026234e-06 0.19429706 -1.1778074e-05)
(-3.2979748e-07 0.19429785 -1.1777992e-05)
(3.297983e-07 0.19429785 -1.1777992e-05)
(1.0026239e-06 0.19429706 -1.1778074e-05)
(1.5990414e-06 0.19429798 -1.1777986e-05)
(2.6436717e-06 0.19429556 -1.1778268e-05)
(2.9500088e-06 0.19429731 -1.1778089e-05)
(4.8952768e-06 0.19429332 -1.1778693e-05)
(4.404685e-06 0.19429545 -1.1778441e-05)
(7.3720479e-06 0.19429057 -1.1780021e-05)
(5.5991469e-06 0.19429206 -1.1777715e-05)
(5.616029e-06 0.19413554 -1.1769277e-05)
(1.4276109e-05 -0.26112076 1.6352895e-05)
(3.6605576e-06 -0.26136603 1.6370891e-05)
(7.2758922e-06 -0.26136162 1.6374087e-05)
(4.0192818e-06 -0.26136492 1.6372744e-05)
(2.6658601e-06 -0.26136172 1.6372733e-05)
(3.4775873e-06 -0.26136428 1.6372558e-05)
(3.0575746e-07 -0.2613624 1.6372396e-05)
(2.6708826e-06 -0.26136398 1.6372408e-05)
(-9.6184728e-07 -0.26136311 1.6372309e-05)
(1.8469255e-06 -0.26136363 1.6372327e-05)
(-1.8469249e-06 -0.26136363 1.6372328e-05)
(9.618475e-07 -0.26136311 1.6372309e-05)
(-2.670883e-06 -0.26136398 1.6372408e-05)
(-3.0575737e-07 -0.2613624 1.6372396e-05)
(-3.4775881e-06 -0.26136428 1.6372558e-05)
(-2.6658607e-06 -0.26136172 1.6372733e-05)
(-4.0192823e-06 -0.26136492 1.6372745e-05)
(-7.2758923e-06 -0.26136162 1.6374087e-05)
(-3.6605578e-06 -0.26136603 1.637089e-05)
(-1.4276109e-05 -0.26112076 1.6352896e-05)
(-1.059712e-05 0.29207449 -1.4617478e-05)
(-5.6757413e-06 0.29234 -1.4634058e-05)
(-8.5422966e-06 0.2923291 -1.4637553e-05)
(-5.9031113e-06 0.29234051 -1.463635e-05)
(-5.4840705e-06 0.29233223 -1.4636942e-05)
(-4.7341258e-06 0.29233971 -1.463648e-05)
(-2.8186152e-06 0.29233487 -1.4636594e-05)
(-3.0535366e-06 0.29233892 -1.4636468e-05)
(-6.4822609e-07 0.29233675 -1.4636464e-05)
(-1.2497477e-06 0.29233802 -1.4636444e-05)
(1.249749e-06 0.29233802 -1.4636444e-05)
(6.4822673e-07 0.29233675 -1.4636464e-05)
(3.0535369e-06 0.29233892 -1.4636469e-05)
(2.8186154e-06 0.29233487 -1.4636594e-05)
(4.734126e-06 0.29233971 -1.463648e-05)
(5.4840706e-06 0.29233223 -1.4636943e-05)
(5.9031118e-06 0.29234051 -1.463635e-05)
(8.5422977e-06 0.2923291 -1.4637553e-05)
(5.6757415e-06 0.29234 -1.4634058e-05)
(1.0597121e-05 0.29207449 -1.4617478e-05)
(3.1789634e-05 -0.37841926 2.3487128e-05)
(6.8814556e-06 -0.37878968 2.3524871e-05)
(1.0464821e-05 -0.37878153 2.3527772e-05)
(9.5561188e-06 -0.37878955 2.3527862e-05)
(3.0346116e-06 -0.37878261 2.3527134e-05)
(8.1314711e-06 -0.37878822 2.3528008e-05)
(-1.6170414e-07 -0.37878386 2.3527152e-05)
(5.958548e-06 -0.37878703 2.3527816e-05)
(-2.1294557e-06 -0.37878499 2.3527336e-05)
(3.9355128e-06 -0.37878601 2.3527567e-05)
(-3.935513e-06 -0.37878601 2.352757e-05)
(2.1294553e-06 -0.37878499 2.3527332e-05)
(-5.9585486e-06 -0.37878703 2.3527816e-05)
(1.6170344e-07 -0.37878386 2.3527151e-05)
(-8.1314713e-06 -0.37878822 2.352801e-05)
(-3.0346132e-06 -0.37878261 2.3527134e-05)
(-9.5561171e-06 -0.37878955 2.3527864e-05)
(-1.0464823e-05 -0.37878153 2.3527774e-05)
(-6.8814561e-06 -0.37878968 2.3524871e-05)
(-3.1789634e-05 -0.37841926 2.3487129e-05)
(-2.733933e-05 0.43426341 -2.1787112e-05)
(-7.3043773e-06 0.43472493 -2.1823025e-05)
(-1.1432211e-05 0.43468402 -2.1827675e-05)
(-1.001134e-05 0.43471143 -2.1826829e-05)
(-5.0220246e-06 0.43469137 -2.1826236e-05)
(-8.666858e-06 0.43470527 -2.1827173e-05)
(-1.5537711e-06 0.4346954 -2.1826277e-05)
(-6.1858683e-06 0.43470207 -2.182703e-05)
(1.068314e-06 0.43469796 -2.1826509e-05)
(-3.5785263e-06 0.43469995 -2.1826777e-05)
(3.578527e-06 0.43469995 -2.1826776e-05)
(-1.0683122e-06 0.43469796 -2.1826509e-05)
(6.1858692e-06 0.43470207 -2.1827031e-05)
(1.5537725e-06 0.4346954 -2.1826277e-05)
(8.6668578e-06 0.43470527 -2.1827173e-05)
(5.0220256e-06 0.43469137 -2.1826236e-05)
(1.0011341e-05 0.43471143 -2.1826831e-05)
(1.1432212e-05 0.43468402 -2.1827675e-05)
(7.3043774e-06 0.43472493 -2.1823025e-05)
(2.733933e-05 0.43426341 -2.1787112e-05)
(-1.4899432e-05 -0.5491531 -0.00012785531)
(3.5437922e-05 -0.54975365 -0.00012796861)
(-8.969375e-06 -0.54971473 -0.00012802454)
(2.5259826e-05 -0.54974252 -0.00012801341)
(-6.0481663e-06 -0.54972162 -0.0001280174)
(1.7757256e-05 -0.54973648 -0.00012801574)
(-5.350313e-06 -0.5497255 -0.00012801689)
(1.2310997e-05 -0.54973284 -0.00012801603)
(-6.2470097e-06 -0.54972808 -0.0001280166)
(8.5478959e-06 -0.5497303 -0.0001280163)
(-8.5478955e-06 -0.5497303 -0.0001280163)
(6.2470082e-06 -0.54972808 -0.0001280166)
(-1.2310999e-05 -0.54973284 -0.00012801603)
(5.3503108e-06 -0.5497255 -0.00012801688)
(-1.7757257e-05 -0.54973648 -0.00012801574)
(6.0481651e-06 -0.54972162 -0.0001280174)
(-2.5259827e-05 -0.54974252 -0.0001280134)
(8.9693738e-06 -0.54971473 -0.00012802454)
(-3.543792e-05 -0.54975365 -0.00012796861)
(1.4899431e-05 -0.5491531 -0.00012785531)
(-7.7830795e-05 0.085271972 1.822538e-05)
(-7.03749e-06 0.085316299 1.8263194e-05)
(-1.1960956e-05 0.085331972 1.8256607e-05)
(-2.7545152e-06 0.085332897 1.8259886e-05)
(-3.8406505e-06 0.085334325 1.826039e-05)
(-1.2313425e-06 0.08533574 1.8261353e-05)
(-1.8831431e-06 0.085335543 1.8261366e-05)
(-3.5414547e-07 0.085336525 1.8261895e-05)
(-9.7688515e-07 0.08533627 1.8261829e-05)
(3.1472346e-07 0.08533661 1.8262003e-05)
(-3.1472307e-07 0.08533661 1.8262003e-05)
(9.7688557e-07 0.08533627 1.8261829e-05)
(3.5414608e-07 0.085336525 1.8261894e-05)
(1.8831433e-06 0.085335543 1.8261366e-05)
(1.2313421e-06 0.08533574 1.8261353e-05)
(3.8406508e-06 0.085334325 1.826039e-05)
(2.7545163e-06 0.085332897 1.8259887e-05)
(1.1960957e-05 0.085331972 1.8256607e-05)
(7.0374906e-06 0.085316299 1.8263194e-05)
(7.7830796e-05 0.085271972 1.8225381e-05)
(8.6405371e-06 -0.1279621 4.0107486e-06)
(-2.7228752e-06 -0.12808594 4.0194593e-06)
(-3.887608e-06 -0.12807562 4.0174119e-06)
(-1.6307934e-06 -0.1280774 4.0184389e-06)
(-2.4574597e-06 -0.12807657 4.0182269e-06)
(-6.4740287e-07 -0.12807794 4.0183705e-06)
(-1.5014194e-06 -0.12807753 4.0183688e-06)
(-4.8678829e-09 -0.12807845 4.0184082e-06)
(-9.3473279e-07 -0.12807819 4.0184226e-06)
(4.7812119e-07 -0.1280785 4.0184321e-06)
(-4.7812073e-07 -0.1280785 4.0184321e-06)
(9.3473319e-07 -0.12807819 4.0184226e-06)
(4.8682412e-09 -0.12807845 4.0184084e-06)
(1.5014195e-06 -0.12807753 4.0183691e-06)
(6.4740271e-07 -0.12807794 4.0183704e-06)
(2.4574596e-06 -0.12807657 4.0182266e-06)
(1.6307944e-06 -0.1280774 4.0184387e-06)
(3.8876083e-06 -0.12807562 4.0174123e-06)
(2.7228779e-06 -0.12808594 4.0194594e-06)
(-8.6405361e-06 -0.1279621 4.0107482e-06)
(-1.4867354e-06 0.12785923 4.0799664e-06)
(-6.1088189e-06 0.12794634 4.0768294e-06)
(-8.3361998e-06 0.12795296 4.0756735e-06)
(-3.5110659e-06 0.12795497 4.0760116e-06)
(-4.382763e-06 0.12795596 4.0762594e-06)
(-1.8946895e-06 0.12795838 4.076552e-06)
(-2.2415508e-06 0.12795784 4.0765304e-06)
(-7.9778424e-07 0.12795949 4.0767278e-06)
(-1.0180863e-06 0.127959 4.0766735e-06)
(1.0074735e-07 0.12795956 4.0767409e-06)
(-1.0074673e-07 0.12795956 4.0767408e-06)
(1.0180869e-06 0.127959 4.0766736e-06)
(7.9778445e-07 0.12795949 4.0767272e-06)
(2.2415509e-06 0.12795784 4.0765299e-06)
(1.8946897e-06 0.12795838 4.0765525e-06)
(4.3827629e-06 0.12795596 4.076259e-06)
(3.5110667e-06 0.12795497 4.0760118e-06)
(8.3362003e-06 0.12795296 4.0756737e-06)
(6.1088205e-06 0.12794634 4.0768293e-06)
(1.4867361e-06 0.12785923 4.0799662e-06)
(1.0048605e-05 -0.18165382 2.445648e-07)
(9.4374529e-07 -0.18182288 2.4783546e-07)
(2.570465e-06 -0.18181716 2.4903523e-07)
(6.7398641e-07 -0.18181944 2.494189e-07)
(1.3217302e-07 -0.18181745 2.491705e-07)
(8.1568609e-07 -0.18181916 2.4917329e-07)
(-6.3727643e-07 -0.18181824 2.4907671e-07)
(8.9980069e-07 -0.18181934 2.4905575e-07)
(-8.6951177e-07 -0.18181891 2.4906613e-07)
(9.1879581e-07 -0.18181929 2.4904936e-07)
(-9.1879536e-07 -0.18181929 2.4904894e-07)
(8.6951202e-07 -0.18181891 2.4906615e-07)
(-8.9980045e-07 -0.18181934 2.4905584e-07)
(6.3727663e-07 -0.18181824 2.4907642e-07)
(-8.1568665e-07 -0.18181916 2.4917319e-07)
(-1.3217164e-07 -0.18181745 2.4917099e-07)
(-6.73987e-07 -0.18181944 2.4941893e-07)
(-2.5704637e-06 -0.18181716 2.4903502e-07)
(-9.4374614e-07 -0.18182288 2.4783551e-07)
(-1.0048604e-05 -0.18165382 2.445643e-07)
(-5.6595643e-06 0.19474863 1.493636e-06)
(-5.6141454e-06 0.19490593 1.5102064e-06)
(-7.4000574e-06 0.19490443 1.508019e-06)
(-4.4233428e-06 0.19490933 1.5089314e-06)
(-4.9131281e-06 0.1949072 1.5088384e-06)
(-2.9627052e-06 0.1949112 1.5091297e-06)
(-2.6534783e-06 0.19490945 1.5090329e-06)
(-1.605852e-06 0.19491187 1.5092032e-06)
(-1.0063296e-06 0.19491095 1.5091374e-06)
(-3.3133015e-07 0.19491174 1.5091933e-06)
(3.3133063e-07 0.19491174 1.5091932e-06)
(1.0063302e-06 0.19491095 1.5091374e-06)
(1.6058516e-06 0.19491187 1.5092028e-06)
(2.6534794e-06 0.19490945 1.5090332e-06)
(2.9627055e-06 0.1949112 1.5091273e-06)
(4.9131282e-06 0.1949072 1.508837e-06)
(4.4233434e-06 0.19490933 1.5089314e-06)
(7.4000586e-06 0.19490443 1.5080234e-06)
(5.6141447e-06 0.19490593 1.5102067e-06)
(5.6595645e-06 0.19474863 1.4936367e-06)
(1.4345376e-05 -0.26209005 6.2454883e-07)
(3.6687129e-06 -0.26233674 6.08479e-07)
(7.3003519e-06 -0.26233232 6.1182758e-07)
(4.0322085e-06 -0.26233563 6.1059246e-07)
(2.6752645e-06 -0.26233243 6.1095226e-07)
(3.4878366e-06 -0.26233499 6.1058811e-07)
(3.0820457e-07 -0.26233311 6.1076218e-07)
(2.6779471e-06 -0.26233468 6.1057787e-07)
(-9.6317469e-07 -0.26233381 6.1066529e-07)
(1.8510902e-06 -0.26233434 6.1060742e-07)
(-1.8510897e-06 -0.26233434 6.1060721e-07)
(9.6317534e-07 -0.26233381 6.1066536e-07)
(-2.6779478e-06 -0.26233468 6.1057769e-07)
(-3.0820486e-07 -0.26233311 6.1076229e-07)
(-3.4878369e-06 -0.26233499 6.1058752e-07)
(-2.6752651e-06 -0.26233243 6.1095209e-07)
(-4.0322091e-06 -0.26233563 6.1059238e-07)
(-7.3003517e-06 -0.26233232 6.1182792e-07)
(-3.6687134e-06 -0.26233674 6.0847926e-07)
(-1.4345376e-05 -0.26209005 6.2454924e-07)
(-1.0657289e-05 0.29308968 2.9094346e-07)
(-5.6918093e-06 0.29335656 3.0498997e-07)
(-8.5745038e-06 0.29334563 3.0198657e-07)
(-5.9258123e-06 0.29335707 3.0265661e-07)
(-5.5050081e-06 0.29334877 3.0213636e-07)
(-4.7519132e-06 0.29335627 3.0251634e-07)
(-2.8302424e-06 0.29335142 3.0229281e-07)
(-3.0644029e-06 0.29335547 3.0247605e-07)
(-6.5189397e-07 0.29335331 3.0238421e-07)
(-1.2534007e-06 0.29335458 3.0243826e-07)
(1.2534016e-06 0.29335458 3.0243812e-07)
(6.5189452e-07 0.29335331 3.0238354e-07)
(3.064404e-06 0.29335547 3.0247564e-07)
(2.8302419e-06 0.29335142 3.0229295e-07)
(4.7519138e-06 0.29335627 3.0251673e-07)
(5.505008e-06 0.29334877 3.0213637e-07)
(5.9258121e-06 0.29335707 3.026575e-07)
(8.5745055e-06 0.29334563 3.0198659e-07)
(5.69181e-06 0.29335656 3.0499004e-07)
(1.065729e-05 0.29308968 2.9094397e-07)
(3.1920416e-05 -0.37987035 6.4716166e-06)
(6.9068817e-06 -0.3802429 6.4626985e-06)
(1.050348e-05 -0.38023471 6.4641408e-06)
(9.5910576e-06 -0.38024277 6.464276e-06)
(3.0494507e-06 -0.38023581 6.4640626e-06)
(8.1584871e-06 -0.38024144 6.4642508e-06)
(-1.5740307e-07 -0.38023707 6.4641165e-06)
(5.976338e-06 -0.38024024 6.464212e-06)
(-2.1322614e-06 -0.3802382 6.4641495e-06)
(3.9452527e-06 -0.38023922 6.4641825e-06)
(-3.9452526e-06 -0.38023922 6.4641787e-06)
(2.1322606e-06 -0.3802382 6.4641532e-06)
(-5.9763391e-06 -0.38024024 6.4642115e-06)
(1.5740195e-07 -0.38023707 6.4641172e-06)
(-8.158488e-06 -0.38024144 6.4642493e-06)
(-3.0494512e-06 -0.38023581 6.4640606e-06)
(-9.5910601e-06 -0.38024277 6.4642749e-06)
(-1.0503478e-05 -0.38023471 6.4641396e-06)
(-6.9068815e-06 -0.3802429 6.4626977e-06)
(-3.1920416e-05 -0.37987035 6.471616e-06)
(-2.7457839e-05 0.43592621 -4.7758352e-06)
(-7.3329422e-06 0.43639025 -4.7675092e-06)
(-1.1475774e-05 0.4363492 -4.7706826e-06)
(-1.0048647e-05 0.4363767 -4.7697941e-06)
(-5.0445595e-06 0.43635658 -4.7697157e-06)
(-8.6972264e-06 0.43637052 -4.7698945e-06)
(-1.5643588e-06 0.43636063 -4.7697411e-06)
(-6.2056895e-06 0.43636731 -4.7698794e-06)
(1.0676192e-06 0.4363632 -4.7697991e-06)
(-3.5877675e-06 0.43636519 -4.769845e-06)
(3.5877679e-06 0.43636519 -4.7698447e-06)
(-1.0676171e-06 0.4363632 -4.769799e-06)
(6.2056901e-06 0.43636731 -4.7698794e-06)
(1.5643604e-06 0.43636063 -4.7697412e-06)
(8.6972264e-06 0.43637052 -4.7698945e-06)
(5.0445606e-06 0.43635658 -4.769715e-06)
(1.0048647e-05 0.4363767 -4.769792e-06)
(1.1475774e-05 0.4363492 -4.7706826e-06)
(7.3329426e-06 0.43639025 -4.7675093e-06)
(2.745784e-05 0.43592621 -4.775835e-06)
(-1.5360205e-05 -0.55138158 0.00015325094)
(3.5647502e-05 -0.55198567 0.00015358999)
(-9.0084978e-06 -0.55194663 0.00015352491)
(2.5353597e-05 -0.55197451 0.00015354148)
(-6.0563943e-06 -0.55195354 0.00015353412)
(1.7816698e-05 -0.55196844 0.00015353774)
(-5.3568094e-06 -0.55195743 0.00015353541)
(1.2348231e-05 -0.55196479 0.00015353689)
(-6.2586528e-06 -0.55196002 0.00015353598)
(8.5696784e-06 -0.55196225 0.00015353641)
(-8.569678e-06 -0.55196225 0.00015353641)
(6.2586514e-06 -0.55196002 0.00015353598)
(-1.2348232e-05 -0.55196479 0.00015353689)
(5.3568069e-06 -0.55195743 0.00015353541)
(-1.7816699e-05 -0.55196844 0.00015353774)
(6.0563924e-06 -0.55195354 0.00015353412)
(-2.5353598e-05 -0.55197451 0.00015354147)
(9.0084965e-06 -0.55194663 0.00015352491)
(-3.5647501e-05 -0.55198567 0.00015358999)
(1.5360206e-05 -0.55138158 0.00015325094)
(-7.7830796e-05 0.085271972 -1.8225376e-05)
(-7.0374902e-06 0.085316299 -1.8263189e-05)
(-1.1960956e-05 0.085331972 -1.8256603e-05)
(-2.754515e-06 0.085332897 -1.8259883e-05)
(-3.8406505e-06 0.085334325 -1.8260386e-05)
(-1.2313427e-06 0.08533574 -1.8261349e-05)
(-1.883143e-06 0.085335543 -1.8261361e-05)
(-3.5414551e-07 0.085336525 -1.826189e-05)
(-9.7688526e-07 0.08533627 -1.8261825e-05)
(3.1472351e-07 0.08533661 -1.8261998e-05)
(-3.147231e-07 0.08533661 -1.8261998e-05)
(9.768859e-07 0.08533627 -1.8261824e-05)
(3.5414595e-07 0.085336525 -1.826189e-05)
(1.8831433e-06 0.085335543 -1.8261361e-05)
(1.2313421e-06 0.08533574 -1.8261349e-05)
(3.8406505e-06 0.085334325 -1.8260386e-05)
(2.7545162e-06 0.085332897 -1.8259883e-05)
(1.1960957e-05 0.085331972 -1.8256603e-05)
(7.0374912e-06 0.085316299 -1.826319e-05)
(7.7830797e-05 0.085271972 -1.8225376e-05)
(8.6405372e-06 -0.1279621 -4.0107419e-06)
(-2.7228748e-06 -0.12808594 -4.0194522e-06)
(-3.8876082e-06 -0.12807562 -4.0174052e-06)
(-1.6307928e-06 -0.1280774 -4.0184315e-06)
(-2.4574601e-06 -0.12807657 -4.0182195e-06)
(-6.4740281e-07 -0.12807794 -4.0183633e-06)
(-1.5014195e-06 -0.12807753 -4.0183621e-06)
(-4.8675947e-09 -0.12807845 -4.0184011e-06)
(-9.3473285e-07 -0.12807819 -4.0184155e-06)
(4.781212e-07 -0.1280785 -4.0184252e-06)
(-4.7812082e-07 -0.1280785 -4.0184249e-06)
(9.3473322e-07 -0.12807819 -4.0184157e-06)
(4.8683422e-09 -0.12807845 -4.0184014e-06)
(1.5014196e-06 -0.12807753 -4.0183616e-06)
(6.4740226e-07 -0.12807794 -4.0183632e-06)
(2.45746e-06 -0.12807657 -4.0182199e-06)
(1.6307942e-06 -0.1280774 -4.0184313e-06)
(3.8876086e-06 -0.12807562 -4.017405e-06)
(2.7228768e-06 -0.12808594 -4.0194525e-06)
(-8.6405362e-06 -0.1279621 -4.0107428e-06)
(-1.4867356e-06 0.12785923 -4.0799618e-06)
(-6.1088182e-06 0.12794634 -4.0768253e-06)
(-8.3362006e-06 0.12795296 -4.0756693e-06)
(-3.511065e-06 0.12795497 -4.0760078e-06)
(-4.3827632e-06 0.12795596 -4.0762552e-06)
(-1.8946895e-06 0.12795838 -4.0765478e-06)
(-2.2415508e-06 0.12795784 -4.0765263e-06)
(-7.9778421e-07 0.12795949 -4.076723e-06)
(-1.0180862e-06 0.127959 -4.0766691e-06)
(1.0074744e-07 0.12795956 -4.0767372e-06)
(-1.0074678e-07 0.12795956 -4.0767372e-06)
(1.0180866e-06 0.127959 -4.0766695e-06)
(7.9778468e-07 0.12795949 -4.0767234e-06)
(2.2415509e-06 0.12795784 -4.0765262e-06)
(1.8946894e-06 0.12795838 -4.076548e-06)
(4.3827631e-06 0.12795596 -4.0762548e-06)
(3.5110664e-06 0.12795497 -4.076008e-06)
(8.336201e-06 0.12795296 -4.0756695e-06)
(6.1088201e-06 0.12794634 -4.076825e-06)
(1.4867361e-06 0.12785923 -4.0799616e-06)
(1.0048605e-05 -0.18165382 -2.4456328e-07)
(9.4374626e-07 -0.18182288 -2.4783423e-07)
(2.5704644e-06 -0.18181716 -2.4903434e-07)
(6.7398757e-07 -0.18181944 -2.4941812e-07)
(1.3217239e-07 -0.18181745 -2.4917032e-07)
(8.1568596e-07 -0.18181916 -2.4917245e-07)
(-6.3727605e-07 -0.18181824 -2.4907527e-07)
(8.9980061e-07 -0.18181934 -2.490539e-07)
(-8.6951172e-07 -0.18181891 -2.4906452e-07)
(9.1879577e-07 -0.18181929 -2.490484e-07)
(-9.1879523e-07 -0.18181929 -2.4904842e-07)
(8.6951189e-07 -0.18181891 -2.4906488e-07)
(-8.9980026e-07 -0.18181934 -2.4905446e-07)
(6.3727626e-07 -0.18181824 -2.4907505e-07)
(-8.156865e-07 -0.18181916 -2.491727e-07)
(-1.3217157e-07 -0.18181745 -2.4916959e-07)
(-6.7398722e-07 -0.18181944 -2.4941766e-07)
(-2.5704638e-06 -0.18181716 -2.4903378e-07)
(-9.4374612e-07 -0.18182288 -2.4783398e-07)
(-1.0048605e-05 -0.18165382 -2.4456333e-07)
(-5.6595639e-06 0.19474863 -1.4936341e-06)
(-5.6141443e-06 0.19490593 -1.5102059e-06)
(-7.4000588e-06 0.19490443 -1.508018e-06)
(-4.4233427e-06 0.19490933 -1.5089296e-06)
(-4.9131275e-06 0.1949072 -1.5088367e-06)
(-2.9627045e-06 0.1949112 -1.5091293e-06)
(-2.6534787e-06 0.19490945 -1.5090323e-06)
(-1.6058517e-06 0.19491187 -1.5092021e-06)
(-1.0063294e-06 0.19491095 -1.5091366e-06)
(-3.3133014e-07 0.19491174 -1.5091921e-06)
(3.3133074e-07 0.19491174 -1.5091925e-06)
(1.0063299e-06 0.19491095 -1.5091366e-06)
(1.605852e-06 0.19491187 -1.5092023e-06)
(2.653479e-06 0.19490945 -1.5090318e-06)
(2.9627056e-06 0.1949112 -1.5091264e-06)
(4.9131275e-06 0.1949072 -1.5088359e-06)
(4.4233432e-06 0.19490933 -1.5089295e-06)
(7.4000584e-06 0.19490443 -1.508021e-06)
(5.6141458e-06 0.19490593 -1.5102057e-06)
(5.6595643e-06 0.19474863 -1.4936364e-06)
(1.4345376e-05 -0.26209005 -6.2454822e-07)
(3.6687127e-06 -0.26233674 -6.0847934e-07)
(7.3003509e-06 -0.26233232 -6.1182729e-07)
(4.0322099e-06 -0.26233563 -6.1059212e-07)
(2.675264e-06 -0.26233243 -6.1095204e-07)
(3.4878371e-06 -0.26233499 -6.1058721e-07)
(3.0820449e-07 -0.26233311 -6.1076137e-07)
(2.6779476e-06 -0.26233468 -6.1057692e-07)
(-9.6317494e-07 -0.26233381 -6.106652e-07)
(1.8510899e-06 -0.26233434 -6.1060733e-07)
(-1.8510892e-06 -0.26233434 -6.1060762e-07)
(9.6317463e-07 -0.26233381 -6.1066598e-07)
(-2.6779471e-06 -0.26233468 -6.1057758e-07)
(-3.0820475e-07 -0.26233311 -6.1076178e-07)
(-3.4878371e-06 -0.26233499 -6.105872e-07)
(-2.675265e-06 -0.26233243 -6.1095181e-07)
(-4.0322095e-06 -0.26233563 -6.1059214e-07)
(-7.3003516e-06 -0.26233232 -6.118277e-07)
(-3.6687133e-06 -0.26233674 -6.0847907e-07)
(-1.4345376e-05 -0.26209005 -6.2454868e-07)
(-1.065729e-05 0.29308968 -2.9094329e-07)
(-5.6918096e-06 0.29335656 -3.0498904e-07)
(-8.5745042e-06 0.29334563 -3.0198603e-07)
(-5.925813e-06 0.29335707 -3.0265683e-07)
(-5.5050077e-06 0.29334877 -3.0213654e-07)
(-4.7519136e-06 0.29335627 -3.0251612e-07)
(-2.8302425e-06 0.29335142 -3.0229299e-07)
(-3.0644022e-06 0.29335547 -3.0247563e-07)
(-6.518937e-07 0.29335331 -3.0238441e-07)
(-1.2534005e-06 0.29335458 -3.0243756e-07)
(1.2534015e-06 0.29335458 -3.0243767e-07)
(6.5189378e-07 0.29335331 -3.0238466e-07)
(3.0644046e-06 0.29335547 -3.0247609e-07)
(2.8302419e-06 0.29335142 -3.0229262e-07)
(4.7519139e-06 0.29335627 -3.0251681e-07)
(5.5050077e-06 0.29334877 -3.0213616e-07)
(5.9258124e-06 0.29335707 -3.0265788e-07)
(8.5745055e-06 0.29334563 -3.0198617e-07)
(5.6918101e-06 0.29335656 -3.0498866e-07)
(1.065729e-05 0.29308968 -2.9094357e-07)
(3.1920416e-05 -0.37987035 -6.4716167e-06)
(6.9068804e-06 -0.3802429 -6.462697e-06)
(1.0503481e-05 -0.38023471 -6.46414e-06)
(9.5910575e-06 -0.38024277 -6.4642761e-06)
(3.0494508e-06 -0.38023581 -6.4640618e-06)
(8.1584872e-06 -0.38024144 -6.4642509e-06)
(-1.5740297e-07 -0.38023707 -6.464116e-06)
(5.9763397e-06 -0.38024024 -6.4642121e-06)
(-2.1322615e-06 -0.3802382 -6.46415e-06)
(3.9452512e-06 -0.38023922 -6.4641818e-06)
(-3.9452528e-06 -0.38023922 -6.4641779e-06)
(2.1322615e-06 -0.3802382 -6.4641541e-06)
(-5.9763391e-06 -0.38024024 -6.4642124e-06)
(1.5740325e-07 -0.38023707 -6.4641175e-06)
(-8.1584879e-06 -0.38024144 -6.4642498e-06)
(-3.0494512e-06 -0.38023581 -6.4640608e-06)
(-9.5910601e-06 -0.38024277 -6.4642752e-06)
(-1.0503481e-05 -0.38023471 -6.4641393e-06)
(-6.9068821e-06 -0.3802429 -6.4626972e-06)
(-3.1920416e-05 -0.37987035 -6.4716152e-06)
(-2.7457839e-05 0.43592621 4.7758351e-06)
(-7.3329425e-06 0.43639025 4.7675094e-06)
(-1.1475773e-05 0.4363492 4.7706829e-06)
(-1.0048647e-05 0.4363767 4.7697941e-06)
(-5.0445596e-06 0.43635658 4.7697155e-06)
(-8.6972264e-06 0.43637052 4.7698947e-06)
(-1.5643591e-06 0.43636063 4.7697418e-06)
(-6.2056894e-06 0.43636731 4.7698792e-06)
(1.0676188e-06 0.4363632 4.7697986e-06)
(-3.587767e-06 0.43636519 4.7698444e-06)
(3.5877679e-06 0.43636519 4.7698445e-06)
(-1.067617e-06 0.4363632 4.7697986e-06)
(6.2056902e-06 0.43636731 4.7698794e-06)
(1.5643603e-06 0.43636063 4.7697415e-06)
(8.6972265e-06 0.43637052 4.7698943e-06)
(5.0445606e-06 0.43635658 4.769716e-06)
(1.0048647e-05 0.4363767 4.7697922e-06)
(1.1475774e-05 0.4363492 4.7706831e-06)
(7.332943e-06 0.43639025 4.7675092e-06)
(2.7457839e-05 0.43592621 4.7758353e-06)
(-1.5360205e-05 -0.55138158 -0.00015325095)
(3.56475e-05 -0.55198567 -0.00015358999)
(-9.0084953e-06 -0.55194663 -0.00015352491)
(2.5353597e-05 -0.55197451 -0.00015354148)
(-6.0563941e-06 -0.55195354 -0.00015353412)
(1.7816698e-05 -0.55196844 -0.00015353774)
(-5.3568092e-06 -0.55195743 -0.00015353541)
(1.2348231e-05 -0.55196479 -0.00015353689)
(-6.2586526e-06 -0.55196002 -0.00015353598)
(8.5696783e-06 -0.55196225 -0.00015353641)
(-8.5696781e-06 -0.55196225 -0.00015353641)
(6.2586516e-06 -0.55196002 -0.00015353598)
(-1.2348232e-05 -0.55196479 -0.00015353689)
(5.3568071e-06 -0.55195743 -0.00015353541)
(-1.7816699e-05 -0.55196844 -0.00015353774)
(6.0563935e-06 -0.55195354 -0.00015353412)
(-2.5353598e-05 -0.55197451 -0.00015354147)
(9.0084951e-06 -0.55194663 -0.00015352491)
(-3.5647502e-05 -0.55198567 -0.00015358999)
(1.5360206e-05 -0.55138158 -0.00015325094)
(-7.7448317e-05 0.085082876 0.00015154923)
(-7.0062793e-06 0.085127102 0.00015171057)
(-1.191987e-05 0.085142732 0.00015173965)
(-2.7385521e-06 0.085143651 0.00015173963)
(-3.8273668e-06 0.085145076 0.00015174191)
(-1.22378e-06 0.085146487 0.00015174317)
(-1.8766596e-06 0.08514629 0.00015174341)
(-3.5108154e-07 0.08514727 0.00015174424)
(-9.7399143e-07 0.085147014 0.00015174422)
(3.1468263e-07 0.085147354 0.0001517445)
(-3.1468201e-07 0.085147354 0.0001517445)
(9.7399155e-07 0.085147014 0.00015174422)
(3.5108208e-07 0.08514727 0.00015174424)
(1.8766579e-06 0.08514629 0.00015174341)
(1.2237816e-06 0.085146487 0.00015174317)
(3.8273668e-06 0.085145076 0.00015174191)
(2.7385534e-06 0.085143651 0.00015173963)
(1.1919871e-05 0.085142732 0.00015173965)
(7.00628e-06 0.085127102 0.00015171057)
(7.7448317e-05 0.085082876 0.00015154923)
(8.615029e-06 -0.12748514 -1.2706571e-05)
(-2.7050804e-06 -0.12760801 -1.272804e-05)
(-3.8701581e-06 -0.12759772 -1.272505e-05)
(-1.6188135e-06 -0.12759949 -1.2726443e-05)
(-2.4476432e-06 -0.12759866 -1.2725828e-05)
(-6.4161473e-07 -0.12760003 -1.2726267e-05)
(-1.4960213e-06 -0.12759962 -1.2726032e-05)
(-2.7364957e-09 -0.12760053 -1.2726253e-05)
(-9.3207775e-07 -0.12760027 -1.2726154e-05)
(4.777379e-07 -0.12760059 -1.2726225e-05)
(-4.7773741e-07 -0.12760059 -1.2726225e-05)
(9.3207787e-07 -0.12760027 -1.2726154e-05)
(2.7370417e-09 -0.12760053 -1.2726254e-05)
(1.4960217e-06 -0.12759962 -1.2726032e-05)
(6.4161445e-07 -0.12760003 -1.2726267e-05)
(2.4476431e-06 -0.12759866 -1.2725827e-05)
(1.6188147e-06 -0.12759949 -1.2726442e-05)
(3.8701583e-06 -0.12759772 -1.272505e-05)
(2.7050825e-06 -0.12760801 -1.272804e-05)
(-8.615028e-06 -0.12748514 -1.2706571e-05)
(-1.4410206e-06 0.12750742 6.3329215e-06)
(-6.0753146e-06 0.12759399 6.3553068e-06)
(-8.3053928e-06 0.12760058 6.3562716e-06)
(-3.492695e-06 0.12760258 6.3552641e-06)
(-4.3671431e-06 0.12760357 6.3552526e-06)
(-1.8848277e-06 0.12760598 6.3546559e-06)
(-2.233579e-06 0.12760544 6.3548423e-06)
(-7.9325057e-07 0.12760708 6.3545121e-06)
(-1.0148169e-06 0.12760659 6.3546421e-06)
(1.0127758e-07 0.12760716 6.3545363e-06)
(-1.0127707e-07 0.12760716 6.3545363e-06)
(1.0148172e-06 0.12760659 6.354642e-06)
(7.9325109e-07 0.12760708 6.3545117e-06)
(2.2335793e-06 0.12760544 6.3548419e-06)
(1.8848277e-06 0.12760598 6.3546561e-06)
(4.3671429e-06 0.12760357 6.3552527e-06)
(3.4926963e-06 0.12760258 6.3552643e-06)
(8.3053931e-06 0.12760058 6.3562713e-06)
(6.075316e-06 0.12759399 6.3553067e-06)
(1.4410209e-06 0.12750742 6.3329202e-06)
(9.9936107e-06 -0.18099438 -1.4088887e-05)
(9.4132269e-07 -0.18116242 -1.4118317e-05)
(2.5647927e-06 -0.18115671 -1.4118745e-05)
(6.7520416e-07 -0.18115898 -1.4119045e-05)
(1.3324152e-07 -0.181157 -1.4118508e-05)
(8.1569619e-07 -0.1811587 -1.4118531e-05)
(-6.3508489e-07 -0.18115779 -1.4118313e-05)
(8.9880413e-07 -0.18115889 -1.411833e-05)
(-8.6746588e-07 -0.18115846 -1.4118287e-05)
(9.1719439e-07 -0.18115884 -1.4118288e-05)
(-9.1719403e-07 -0.18115884 -1.4118288e-05)
(8.6746596e-07 -0.18115846 -1.4118287e-05)
(-8.9880358e-07 -0.18115889 -1.411833e-05)
(6.3508527e-07 -0.18115779 -1.4118313e-05)
(-8.156966e-07 -0.1811587 -1.4118531e-05)
(-1.3324034e-07 -0.181157 -1.4118508e-05)
(-6.7520424e-07 -0.18115898 -1.4119045e-05)
(-2.5647924e-06 -0.18115671 -1.4118745e-05)
(-9.4132273e-07 -0.18116242 -1.4118317e-05)
(-9.9936102e-06 -0.18099438 -1.4088887e-05)
(-5.6160285e-06 0.19413554 1.1769275e-05)
(-5.5991458e-06 0.19429206 1.1777715e-05)
(-7.3720486e-06 0.19429057 1.1780017e-05)
(-4.4046838e-06 0.19429545 1.1778441e-05)
(-4.8952765e-06 0.19429332 1.1778695e-05)
(-2.950008e-06 0.19429731 1.1778091e-05)
(-2.6436714e-06 0.19429556 1.1778269e-05)
(-1.5990414e-06 0.19429798 1.1777986e-05)
(-1.0026235e-06 0.19429706 1.1778074e-05)
(-3.2979754e-07 0.19429785 1.1777992e-05)
(3.2979831e-07 0.19429785 1.1777992e-05)
(1.0026237e-06 0.19429706 1.1778074e-05)
(1.5990415e-06 0.19429798 1.1777986e-05)