# y+ ()       
# Time        	patch         	min           	max           	average       
1.000069      	cylinder	5.064517e+00	5.737375e+01	3.284506e+01
