# y+ ()       
# Time        	patch         	min           	max           	average       
0             	cylinder	7.913191e+00	7.913197e+00	7.913194e+00
