# y+ ()       
# Time        	patch         	min           	max           	average       
3.1002120760656475	cylinder	6.800423e+00	6.764430e+01	3.965365e+01
