/*--------------------------------*- C++ -*----------------------------------*\
  =========                 |
  \\      /  F ield         | OpenFOAM: The Open Source CFD Toolbox
   \\    /   O peration     | Website:  https://openfoam.org
    \\  /    A nd           | Version:  8
     \\/     M anipulation  |
\*---------------------------------------------------------------------------*/
FoamFile
{
    version     2.0;
    format      ascii;
    class       surfaceScalarField;
    location    "0.6";
    object      phi;
}
// * * * * * * * * * * * * * * * * * * * * * * * * * * * * * * * * * * * * * //

dimensions      [1 0 -1 0 0 0 0];

internalField   nonuniform List<scalar> 
2080
(
-1.054941e-06
-3.5900209e-05
-2.4223852e-06
-5.4805009e-08
-3.7955257e-05
-2.4242313e-06
-1.1837597e-07
-3.6881999e-05
-2.4306234e-06
-2.1957353e-08
-3.7037111e-05
-2.4296788e-06
-2.833676e-08
-3.6929879e-05
-2.4300147e-06
-1.4780911e-08
-3.6947399e-05
-2.4300461e-06
-1.35678e-08
-3.6930056e-05
-2.429997e-06
-1.1253049e-08
-3.693213e-05
-2.4299784e-06
-6.7626183e-09
-3.6928637e-05
-2.4299521e-06
-6.4259494e-10
-3.6927661e-05
-2.4299891e-06
6.0025597e-09
-3.6927447e-05
-2.4300122e-06
1.2443013e-08
-3.6928767e-05
-2.4299892e-06
1.7630683e-08
-3.693292e-05
-2.4299569e-06
2.1552645e-08
-3.6932489e-05
-2.4298664e-06
3.4614511e-08
-3.6952892e-05
-2.4298753e-06
2.6104189e-08
-3.6938034e-05
-2.4299742e-06
1.196948e-07
-3.7047609e-05
-2.4298232e-06
5.4031575e-08
-3.6894297e-05
-2.4307993e-06
1.0538925e-06
-3.7968086e-05
-2.4242429e-06
-3.5913316e-05
-2.4222675e-06
2.6329154e-07
-3.9163215e-05
8.8363898e-07
-1.1192476e-08
-4.0677939e-05
8.9026946e-07
-1.9518397e-08
-3.9873144e-05
8.8921508e-07
-1.5024971e-08
-4.0027942e-05
8.8968628e-07
-1.5642722e-08
-3.9914057e-05
8.8931874e-07
-1.4427675e-08
-3.9929083e-05
8.8938648e-07
-1.2755113e-08
-3.9905601e-05
8.8932025e-07
-1.4147553e-08
-3.990375e-05
8.8941913e-07
-7.8744786e-09
-3.9897795e-05
8.8940481e-07
-2.9182438e-10
-3.9893704e-05
8.8937246e-07
7.91528e-09
-3.9893381e-05
8.8934044e-07
1.6599634e-08
-3.9898605e-05
8.8935712e-07
1.8400331e-08
-3.9906139e-05
8.8944176e-07
2.3134421e-08
-3.9912434e-05
8.8950043e-07
2.3199493e-08
-3.9942286e-05
8.8964013e-07
1.960306e-08
-3.9933771e-05
8.8947696e-07
2.0273995e-08
-4.0052758e-05
8.8967237e-07
9.2075654e-09
-3.9901609e-05
8.8920775e-07
-2.6519985e-07
-4.0706931e-05
8.9048433e-07
-3.9192465e-05
8.8403587e-07
2.7227535e-07
-3.7629789e-05
7.7575933e-07
-6.3969022e-08
-3.8548438e-05
7.7781543e-07
-6.2729766e-08
-3.8070817e-05
7.7923734e-07
-3.4431508e-08
-3.8258292e-05
7.7885034e-07
-3.8668718e-08
-3.8104709e-05
7.7926637e-07
-2.0040433e-08
-3.8145541e-05
7.7915418e-07
-1.8753589e-08
-3.810291e-05
7.7931991e-07
-1.1252824e-08
-3.810954e-05
7.7941406e-07
-7.5759419e-09
-3.8099439e-05
7.7947388e-07
-1.7696804e-09
-3.8096713e-05
7.7947976e-07
4.5678302e-09
-3.8095888e-05
7.7945163e-07
1.0008061e-08
-3.8099566e-05
7.7941131e-07
2.070007e-08
-3.8111238e-05
7.7943428e-07
2.502833e-08
-3.8111215e-05
7.7947629e-07
4.4044277e-08
-3.8161114e-05
7.7931971e-07
3.8249274e-08
-3.8130516e-05
7.7926271e-07
6.4283785e-08
-3.829134e-05
7.7860077e-07
6.3739918e-08
-3.8109456e-05
7.7888532e-07
-2.7275207e-07
-3.8588621e-05
7.775695e-07
-3.7670554e-05
7.7561449e-07
1.527864e-07
-4.3677443e-05
2.729063e-07
3.6193792e-08
-4.4313326e-05
2.756412e-07
6.9631722e-08
-4.3999159e-05
2.7477159e-07
1.6337289e-08
-4.4088438e-05
2.7527909e-07
2.8467183e-08
-4.4016293e-05
2.7474852e-07
-2.2916251e-09
-4.400864e-05
2.7485543e-07
-1.0557674e-09
-4.3995478e-05
2.7472462e-07
-1.5798749e-08
-4.3978945e-05
2.7477865e-07
-6.2703993e-09
-4.3974215e-05
2.747492e-07
1.0028138e-09
-4.3963997e-05
2.7475394e-07
8.4803015e-09
-4.3963874e-05
2.7475129e-07
1.9143324e-08
-4.3975992e-05
2.7476069e-07
6.0679198e-09
-4.3984087e-05
2.7481016e-07
8.0903163e-09
-4.4008556e-05
2.747972e-07
-2.5966855e-08
-4.4030028e-05
2.7496409e-07
-1.8581903e-08
-4.4048215e-05
2.7482652e-07
-7.5091346e-08
-4.4125985e-05
2.7526795e-07
-4.2372601e-08
-4.4039898e-05
2.748552e-07
-1.5729708e-07
-4.4352868e-05
2.7598802e-07
-4.3715749e-05
2.7343045e-07
8.2574553e-08
-3.678356e-05
-7.3340878e-08
-8.5944742e-08
-3.7179943e-05
-7.4363704e-08
-4.4113331e-08
-3.7065672e-05
-7.3824087e-08
-5.1608808e-08
-3.7135156e-05
-7.4119355e-08
-4.8912102e-08
-3.707173e-05
-7.3954733e-08
-2.9651405e-08
-3.7091564e-05
-7.4071885e-08
-2.6221719e-08
-3.7068249e-05
-7.3992272e-08
-1.0005094e-08
-3.7070712e-05
-7.3945284e-08
-7.4407497e-09
-3.7064835e-05
-7.3873029e-08
-4.43911e-09
-3.7062579e-05
-7.386258e-08
-1.4823016e-09
-3.7061345e-05
-7.3909718e-08
5.4558679e-11
-3.706308e-05
-7.3958025e-08
1.8741236e-08
-3.7070952e-05
-7.3895321e-08
2.4387441e-08
-3.7074051e-05
-7.377271e-08
4.5713585e-08
-3.7105059e-05
-7.3767991e-08
4.9483411e-08
-3.7092657e-05
-7.3703803e-08
4.2894274e-08
-3.7160977e-05
-7.4062972e-08
8.5398934e-08
-3.709304e-05
-7.3971498e-08
-8.2451944e-08
-3.7206292e-05
-7.462742e-08
-3.6808565e-05
-7.3651263e-08
2.2182964e-07
-3.9469394e-05
2.988428e-07
9.9739321e-08
-3.953324e-05
2.9859799e-07
1.7798242e-07
-3.9606608e-05
2.995897e-07
7.9314534e-08
-3.9505334e-05
2.9912716e-07
1.1134201e-07
-3.959125e-05
2.9949608e-07
4.1258733e-08
-3.9519671e-05
2.9939367e-07
4.3797015e-08
-3.9571722e-05
2.9938644e-07
4.8281042e-09
-3.9527786e-05
2.9924109e-07
9.5332947e-09
-3.9543412e-05
2.9931368e-07
3.4420413e-09
-3.9527907e-05
2.9941795e-07
-3.520446e-09
-3.9528667e-05
2.9946437e-07
-2.0340259e-09
-3.9545976e-05
2.9940566e-07
-4.3707909e-08
-3.9533764e-05
2.9927941e-07
-4.6507341e-08
-3.9582435e-05
2.9921801e-07
-1.2148917e-07
-3.953702e-05
2.9908253e-07
-9.2064692e-08
-3.9612072e-05
2.9931018e-07
-1.8859828e-07
-3.9525989e-05
2.9918488e-07
-1.0622837e-07
-3.9624121e-05
2.9978062e-07
-2.2483697e-07
-3.954596e-05
2.9875559e-07
-3.947905e-05
2.9887537e-07
-1.4985705e-07
-3.739458e-05
-3.010661e-07
-1.4347482e-07
-3.7597131e-05
-3.0101882e-07
-1.4282962e-07
-3.7661829e-05
-3.0228159e-07
-1.0520599e-07
-3.7606839e-05
-3.0169918e-07
-1.1550326e-07
-3.7656465e-05
-3.0212162e-07
-7.798591e-08
-3.7639916e-05
-3.019361e-07
-7.9818975e-08
-3.7659307e-05
-3.0221905e-07
-4.285571e-08
-3.7650812e-05
-3.023024e-07
-2.7112122e-08
-3.7648974e-05
-3.0236041e-07
-4.8272386e-09
-3.7644933e-05
-3.0232206e-07
1.3599801e-08
-3.7646164e-05
-3.0232504e-07
2.1234029e-08
-3.7650353e-05
-3.0230442e-07
5.3279152e-08
-3.7650678e-05
-3.022526e-07
5.2741485e-08
-3.7658165e-05
-3.0225603e-07
9.5946011e-08
-3.7636663e-05
-3.0199506e-07
9.2389835e-08
-3.7649815e-05
-3.0207497e-07
1.3571303e-07
-3.7595688e-05
-3.015681e-07
1.4082758e-07
-3.764545e-05
-3.0220567e-07
1.4954566e-07
-3.7575257e-05
-3.0120718e-07
-3.7369974e-05
-3.0144186e-07
8.1104339e-07
-1.3797366e-05
7.7708838e-07
2.3308003e-07
-1.275396e-05
7.8437672e-07
4.1029005e-07
-1.3514916e-05
7.8281192e-07
1.6735634e-07
-1.3123427e-05
7.8110283e-07
2.205914e-07
-1.3423666e-05
7.8240293e-07
1.3258224e-07
-1.3274734e-05
7.8184832e-07
1.5487349e-07
-1.3402588e-05
7.8211184e-07
1.0034957e-07
-1.3351524e-05
7.8200715e-07
6.2574401e-08
-1.3403845e-05
7.8211902e-07
-1.7083812e-09
-1.3394765e-05
7.8212294e-07
-6.3886114e-08
-1.3393389e-05
7.8207373e-07
-9.9225022e-08
-1.3398874e-05
7.8193338e-07
-1.5557831e-07
-1.3343298e-05
7.820636e-07
-1.3754535e-07
-1.3385616e-05
7.8227915e-07
-2.2738809e-07
-1.3252232e-05
7.8203649e-07
-1.6601863e-07
-1.339665e-05
7.8268503e-07
-3.9924043e-07
-1.3091298e-05
7.8163791e-07
-2.1522687e-07
-1.3483226e-05
7.8318147e-07
-7.9874054e-07
-1.2724339e-05
7.841669e-07
-1.3770329e-05
7.7639164e-07
-7.9350299e-07
-3.2709353e-05
-7.729747e-07
-3.1430366e-07
-3.2770431e-05
-7.7899129e-07
-5.1935107e-07
-3.2903887e-05
-7.7925554e-07
-3.1188954e-07
-4.1730738e-05
-7.5681255e-07
-3.7087273e-07
-4.1779314e-05
-7.5804385e-07
-2.6475346e-07
-4.175235e-05
-7.5729408e-07
-2.5609029e-07
-4.1756639e-05
-7.5750647e-07
-1.6477322e-07
-3.2856853e-05
-7.7823489e-07
-9.5134395e-08
-3.2855353e-05
-7.7806544e-07
-3.7562274e-09
-3.2856777e-05
-7.7806403e-07
8.6559527e-08
-3.2856383e-05
-7.7783624e-07
1.5034714e-07
-3.2853702e-05
-7.7791939e-07
2.4863582e-07
-4.175009e-05
-7.5782543e-07
2.552622e-07
-3.2854837e-05
-7.6804287e-07
3.7359811e-07
-4.1745048e-05
-7.583551e-07
3.1782444e-07
-4.1770806e-05
-7.5897561e-07
5.2511791e-07
-4.1722387e-05
-7.5731436e-07
3.145015e-07
-3.2899853e-05
-7.7953324e-07
7.9397398e-07
-4.1620418e-05
-7.5908979e-07
-4.1528276e-05
-7.5224194e-07
2.1765062e-07
5.1892345e-07
2.8725683e-07
5.8252848e-07
2.4970704e-07
5.4423926e-07
2.6169462e-07
5.3140889e-07
2.3252854e-07
5.3056523e-07
2.2323431e-07
5.3120345e-07
1.8449225e-07
5.3101986e-07
1.4098691e-07
5.5295398e-07
7.4976883e-08
5.5214003e-07
1.567668e-08
5.5178761e-07
-4.296348e-08
5.5165818e-07
-1.0736467e-07
5.5246866e-07
-1.6028435e-07
5.3151198e-07
-1.9608222e-07
5.4098857e-07
-2.1979638e-07
5.3200756e-07
-2.5452955e-07
5.3081578e-07
-2.4865852e-07
5.3099394e-07
-2.8447719e-07
5.4466579e-07
-2.1937444e-07
5.613683e-07
4.9867112e-07
-1.0764491e-06
-4.0716442e-05
-6.547845e-11
-5.408358e-08
-4.2819019e-05
1.898837e-11
-1.1983558e-07
-4.1734325e-05
1.4575914e-10
-2.2109131e-08
-4.1891044e-05
1.6255681e-10
-2.8589363e-08
-4.178296e-05
7.4618253e-11
-1.4862988e-08
-4.1800732e-05
2.0879455e-11
-1.3636667e-08
-4.1783224e-05
8.4602422e-11
-1.1287151e-08
-4.1785403e-05
1.7060898e-10
-6.7870725e-09
-4.178186e-05
1.9241915e-10
-6.4494884e-10
-4.1780913e-05
1.592871e-10
6.028814e-09
-4.1780693e-05
1.1857445e-10
1.2495435e-08
-4.1781986e-05
1.3146119e-10
1.7722823e-08
-4.1786188e-05
1.9992192e-10
2.16415e-08
-4.178567e-05
2.808427e-10
3.4839981e-08
-4.1806246e-05
2.8092189e-10
2.6218995e-08
-4.1791145e-05
1.5843718e-10
1.2114863e-07
-4.1901573e-05
-6.2882437e-12
5.3341593e-08
-4.1746665e-05
-5.9003043e-11
1.0754308e-06
-4.2831902e-05
4.7889249e-11
-4.0729618e-05
1.5193654e-10
2.6685723e-07
-4.2217084e-05
-5.8411736e-11
-1.1015619e-08
-4.3758955e-05
4.697988e-11
-1.9780338e-08
-4.2948162e-05
1.9765448e-10
-1.5144825e-08
-4.3104192e-05
2.1843618e-10
-1.5799327e-08
-4.2989819e-05
1.144661e-10
-1.4489838e-08
-4.3005013e-05
5.3572671e-11
-1.2792297e-08
-4.298151e-05
1.2897145e-10
-1.4167313e-08
-4.2979718e-05
2.3494121e-10
-7.8914318e-09
-4.2973764e-05
2.5967868e-10
-2.9565005e-10
-4.2969703e-05
2.2154854e-10
7.9332563e-09
-4.2969378e-05
1.7790872e-10
1.6644933e-08
-4.2974572e-05
1.9146761e-10
1.847374e-08
-4.2982095e-05
2.6034312e-10
2.3219711e-08
-4.2988313e-05
3.3968688e-10
2.3345188e-08
-4.3018142e-05
3.2903962e-10
1.9697874e-08
-4.3009377e-05
1.8013082e-10
2.0547572e-08
-4.3128784e-05
-4.4108999e-12
9.0850472e-09
-4.297637e-05
-5.3181908e-11
-2.6872081e-07
-4.3787718e-05
1.1021794e-10
-4.2246115e-05
2.5155264e-10
2.7455609e-07
-3.9131164e-05
-1.3726155e-10
-6.4651056e-08
-4.0068097e-05
-3.1340913e-11
-6.3321905e-08
-3.9584738e-05
1.0444393e-10
-3.4814001e-08
-3.9774448e-05
1.2166892e-10
-3.9033902e-08
-3.9619184e-05
7.3227492e-12
-2.0220948e-08
-3.9660495e-05
-4.8087946e-11
-1.890397e-08
-3.9617458e-05
-6.6929162e-12
-1.1323125e-08
-3.9624176e-05
9.5785305e-11
-7.6243813e-09
-3.9613992e-05
1.3242436e-10
-1.7740429e-09
-3.9611241e-05
9.2057488e-11
4.6161943e-09
-3.9610402e-05
3.4512087e-11
1.0099451e-08
-3.9614103e-05
3.8199777e-11
2.0874039e-08
-3.9625872e-05
1.404149e-10
2.5201086e-08
-3.9625824e-05
2.8601502e-10
4.4360664e-08
-3.9676173e-05
3.2380266e-10
3.8568312e-08
-3.9645111e-05
2.2421264e-10
6.4845556e-08
-3.9807613e-05
4.1226194e-11
6.4438116e-08
-3.9623511e-05
-7.3097995e-11
-2.7501076e-07
-4.0108453e-05
-5.4061149e-11
-3.9172139e-05
-2.0305224e-11
1.5499837e-07
-4.4640493e-05
4.4512856e-11
3.6615833e-08
-4.5285102e-05
1.2426507e-10
7.0215457e-08
-4.4969149e-05
2.399777e-10
1.6473107e-08
-4.5059041e-05
2.6842252e-10
2.8675737e-08
-4.4986593e-05
1.8638989e-10
-2.2380385e-09
-4.4978913e-05
1.515758e-10
-9.6117572e-10
-4.496584e-05
1.7880046e-10
-1.5773176e-08
-4.494925e-05
2.3366794e-10
-6.2433889e-09
-4.4944596e-05
2.7062765e-10
1.0055824e-09
-4.4934358e-05
3.061675e-10
8.4624392e-09
-4.4934233e-05
3.0624901e-10
1.9134403e-08
-4.494637e-05
2.8766927e-10
5.9904468e-09
-4.4954373e-05
2.5929442e-10
8.0543017e-09
-4.4978886e-05
2.128419e-10
-2.616961e-08
-4.5000237e-05
1.7011925e-10
-1.8710856e-08
-4.5018371e-05
8.4222488e-11
-7.5639736e-08
-4.5096377e-05
-8.0755593e-12
-4.273978e-08
-4.5009668e-05
6.7082152e-11
-1.5946207e-07
-4.5324487e-05
3.2149713e-10
-4.4678688e-05
4.9723276e-10
8.2253394e-08
-3.7891308e-05
-2.1758666e-10
-8.7091675e-08
-3.8298168e-05
-1.1828467e-10
-4.4896259e-08
-3.8182385e-05
-1.8656301e-11
-5.2355183e-08
-3.8252691e-05
-2.7896637e-11
-4.9565785e-08
-3.8188451e-05
-1.3377784e-10
-3.0061318e-08
-3.82085e-05
-2.1965979e-10
-2.6560077e-08
-3.8184945e-05
-2.2734457e-10
-1.0170319e-08
-3.8187443e-05
-1.7464387e-10
-7.5454901e-09
-3.8181501e-05
-1.2634494e-10
-4.4466211e-09
-3.8179218e-05
-1.4597721e-10
-1.3727106e-09
-3.8177967e-05
-2.224539e-10
2.5041712e-10
-3.8179726e-05
-2.3410353e-10
1.9118965e-08
-3.8187681e-05
-1.028705e-10
2.4818083e-08
-3.8190808e-05
1.1433847e-10
4.6341917e-08
-3.8222115e-05
3.0545378e-10
5.0172861e-08
-3.8209514e-05
3.6627587e-10
4.3620962e-08
-3.8278618e-05
2.2631801e-10
8.6518376e-08
-3.820986e-05
-3.899378e-11
-8.2140542e-08
-3.832466e-05
-3.1482189e-10
-3.7916492e-05
-4.8172434e-10
2.2450009e-07
-3.9994019e-05
8.9413231e-11
1.0085161e-07
-4.0061043e-05
4.8551634e-12
1.797141e-07
-4.0135193e-05
-9.2143583e-11
8.0104805e-08
-4.0033161e-05
-6.9168813e-11
1.1228699e-07
-4.0119603e-05
1.7387758e-11
4.1650645e-08
-4.0047429e-05
5.2346766e-11
4.4221749e-08
-4.009989e-05
-8.5196883e-11
5.0161216e-09
-4.0055656e-05
-2.0924905e-10
9.6878537e-09
-4.0071504e-05
-1.5114275e-10
3.4507376e-09
-4.0055927e-05
5.9759693e-11
-3.6606827e-09
-4.0056683e-05
1.2467063e-10
-2.2768762e-09
-4.0074072e-05
6.14528e-12
-4.4163811e-08
-4.0061619e-05
-1.6735226e-10
-4.6920849e-08
-4.0110578e-05
-3.7954867e-10
-1.2239532e-07
-4.0064757e-05
-4.4879122e-10
-9.2781318e-08
-4.0140384e-05
-3.3851554e-10
-1.9029185e-07
-4.0053743e-05
-8.4236314e-11
-1.0734633e-07
-4.0152645e-05
1.072389e-10
-2.2752893e-07
-4.0073751e-05
1.7344949e-10
-4.0003708e-05
1.2706964e-10
-1.5213668e-07
-3.8503522e-05
-2.7609965e-11
-1.4518299e-07
-3.8714139e-05
-1.443457e-10
-1.4455876e-07
-3.8779786e-05
-2.5396541e-10
-1.064909e-07
-3.8725473e-05
-2.7742819e-10
-1.1676784e-07
-3.8775595e-05
-2.3944743e-10
-7.8823948e-08
-3.8758746e-05
-2.3611408e-10
-8.0571869e-08
-3.8778318e-05
-3.9532489e-10
-4.324018e-08
-3.876826e-05
-6.394739e-10
-2.7336557e-08
-3.8766436e-05
-6.8367745e-10
-4.8140051e-09
-3.8762377e-05
-6.7440214e-10
1.3845306e-08
-3.8763606e-05
-6.7772718e-10
2.1632735e-08
-3.8767826e-05
-6.0984012e-10
5.4028751e-08
-3.876954e-05
-5.6445907e-10
5.358384e-08
-3.877641e-05
-4.4805286e-10
9.7236387e-08
-3.875547e-05
-3.1205692e-10
9.3696972e-08
-3.8768921e-05
-1.6830635e-10
1.3743206e-07
-3.8714269e-05
-1.060617e-10
1.4248677e-07
-3.8763332e-05
-2.1348367e-10
1.5178918e-07
-3.8693607e-05
-5.2089456e-10
-3.8480282e-05
-6.8753512e-10
8.2286315e-07
-1.3086218e-05
-2.1793765e-10
2.3286003e-07
-1.2028047e-05
-6.6093155e-11
4.1610123e-07
-1.2796703e-05
-1.7110538e-10
1.6773752e-07
-1.2397304e-05
-1.7434942e-10
2.2354953e-07
-1.2700174e-05
-2.1942834e-10
1.3312386e-07
-1.2549765e-05
-1.6574138e-10
1.562158e-07
-1.2678641e-05
-2.1393145e-10
1.0069778e-07
-1.263078e-05
-2.0904443e-10
6.2936678e-08
-1.2683313e-05
-1.5704523e-10
-1.7485519e-09
-1.2674231e-05
-3.4915566e-11
-6.426776e-08
-1.2672837e-05
-1.0995866e-10
-9.9515379e-08
-1.2678448e-05
-3.2979925e-10
-1.5688164e-07
-1.2618694e-05
-1.4796321e-10
-1.3810889e-07
-1.2663163e-05
-1.8255848e-10
-2.3039389e-07
-1.252728e-05
9.8396265e-11
-1.6636525e-07
-1.2673213e-05
2.0971211e-10
-4.05101e-07
-1.2365185e-05
5.1683685e-10
-2.1526783e-07
-1.2764972e-05
2.8256061e-10
-8.1066665e-07
-1.1994667e-05
-4.4181085e-10
-1.3055352e-05
-9.907072e-10
-8.0514518e-07
-4.2835728e-05
1.9353819e-08
-3.1463172e-07
-4.2936019e-05
5.7091399e-10
-5.2079527e-07
-4.3138599e-05
4.6167054e-10
-3.1274644e-07
-3.3725834e-05
4.3005634e-10
-3.742786e-07
-3.3759368e-05
5.1044364e-10
-2.6555503e-07
-3.3740776e-05
7.9097329e-10
-2.6262249e-07
-3.3743623e-05
8.5625794e-10
-1.6532318e-07
-4.306772e-05
1.9183912e-08
-9.5644672e-08
-4.3065293e-05
1.4726141e-10
-3.6307519e-09
-4.3067542e-05
1.794275e-10
8.7189225e-08
-4.3066984e-05
4.7429238e-10
1.5584563e-07
-4.3062982e-05
1.9174421e-08
2.4767442e-07
-3.3739111e-05
-1.9244269e-08
2.5839152e-07
-3.3739365e-05
-1.6792923e-08
3.7702991e-07
-3.3735825e-05
-9.5168686e-10
3.1884279e-07
-3.3753604e-05
-9.7066407e-10
5.2665246e-07
-3.3720208e-05
-1.9376763e-08
3.2010726e-07
-4.3132339e-05
-3.8398206e-12
8.0543901e-07
-3.3649199e-05
-1.8563777e-08
-3.3583298e-05
1.3137387e-09
1.6088472e-07
-1.9098592e-08
2.9874189e-07
-4.404189e-10
2.436012e-07
-1.6093233e-10
2.6535795e-07
2.9761569e-10
2.3418562e-07
6.3453243e-10
2.2498323e-07
-1.9025873e-10
1.9053601e-07
-2.7159284e-10
1.4157141e-07
-1.8764425e-08
7.5167417e-08
2.8951363e-10
1.5612482e-08
-2.71032e-10
-4.3044905e-08
-4.0977794e-10
-1.1329179e-07
-1.8679371e-08
-1.5881439e-07
1.9432092e-08
-2.0030148e-07
1.5876797e-08
-2.2132358e-07
1.0189514e-09
-2.5823027e-07
8.978568e-10
-2.4243961e-07
1.8394457e-08
-3.0136472e-07
4.0429396e-10
-1.6221586e-07
1.7552397e-08
-7.8199795e-11
-1.0764255e-06
-4.071644e-05
2.4222932e-06
-5.4056279e-08
-4.281902e-05
2.4242672e-06
-1.1983061e-07
-4.1734334e-05
2.4308225e-06
-2.2124928e-08
-4.1891053e-05
2.4299006e-06
-2.8599975e-08
-4.1782965e-05
2.4301207e-06
-1.4850612e-08
-4.1800734e-05
2.4300846e-06
-1.3618557e-08
-4.1783235e-05
2.4301156e-06
-1.128002e-08
-4.1785418e-05
2.4302111e-06
-6.793635e-09
-4.1781874e-05
2.4302145e-06
-6.5227043e-10
-4.1780924e-05
2.4302086e-06
6.0335431e-09
-4.1780699e-05
2.4301812e-06
1.2514309e-08
-4.1781996e-05
2.4301744e-06
1.7739958e-08
-4.1786206e-05
2.4302297e-06
2.1639936e-08
-4.1785693e-05
2.430253e-06
3.4808938e-08
-4.1806268e-05
2.4302677e-06
2.6178113e-08
-4.1791152e-05
2.4301993e-06
1.2113471e-07
-4.1901563e-05
2.4298109e-06
5.3363296e-08
-4.1746654e-05
2.4307156e-06
1.0754556e-06
-4.2831902e-05
2.4243297e-06
-4.0729628e-05
2.422494e-06
2.668855e-07
-4.2217078e-05
-8.8372072e-07
-1.0980541e-08
-4.3758961e-05
-8.9019836e-07
-1.9774089e-08
-4.2948185e-05
-8.8894512e-07
-1.5163503e-08
-4.3104216e-05
-8.8938799e-07
-1.5811085e-08
-4.2989835e-05
-8.8915999e-07
-1.4474835e-08
-4.3005022e-05
-8.8930648e-07
-1.2770409e-08
-4.2981537e-05
-8.8914274e-07
-1.415866e-08
-4.2979757e-05
-8.8909847e-07
-7.8986174e-09
-4.2973803e-05
-8.8905036e-07
-3.0368972e-10
-4.2969729e-05
-8.8906877e-07
7.9382037e-09
-4.2969397e-05
-8.8909297e-07
1.6664074e-08
-4.2974599e-05
-8.8909225e-07
1.849001e-08
-4.2982135e-05
-8.8908613e-07
2.321498e-08
-4.2988366e-05
-8.8903094e-07
2.3307657e-08
-4.301819e-05
-8.8917882e-07
1.9651865e-08
-4.3009396e-05
-8.8921967e-07
2.053671e-08
-4.312877e-05
-8.8968311e-07
9.1173755e-09
-4.2976347e-05
-8.8928279e-07
-2.6868762e-07
-4.3787726e-05
-8.903184e-07
-4.2246147e-05
-8.8367964e-07
2.7458388e-07
-3.9131141e-05
-7.7595685e-07
-6.4619176e-08
-4.0068096e-05
-7.7785684e-07
-6.3317159e-08
-3.9584765e-05
-7.7909154e-07
-3.4834927e-08
-3.9774479e-05
-7.7868193e-07
-3.904864e-08
-3.9619196e-05
-7.792445e-07
-2.0211376e-08
-3.9660497e-05
-7.7922164e-07
-1.8882046e-08
-3.9617482e-05
-7.7932253e-07
-1.1313428e-08
-3.9624229e-05
-7.7927785e-07
-7.6322562e-09
-3.9614046e-05
-7.7928726e-07
-1.7851337e-09
-3.9611274e-05
-7.7934415e-07
4.6206846e-09
-3.9610423e-05
-7.7938703e-07
1.0127138e-08
-3.9614132e-05
-7.7934211e-07
2.0905834e-08
-3.9625926e-05
-7.7923862e-07
2.5212216e-08
-3.9625907e-05
-7.7908281e-07
4.4333756e-08
-3.9676249e-05
-7.7886727e-07
3.8522791e-08
-3.9645145e-05
-7.7894193e-07
6.4814218e-08
-3.98076e-05
-7.7853851e-07
6.4439663e-08
-3.9623479e-05
-7.7898865e-07
-2.7500187e-07
-4.0108449e-05
-7.7763912e-07
-3.9172163e-05
-7.7562322e-07
1.5501904e-07
-4.464049e-05
-2.7284286e-07
3.6639098e-08
-4.5285121e-05
-2.7546936e-07
7.0222614e-08
-4.49692e-05
-2.7443437e-07
1.6462108e-08
-4.5059098e-05
-2.7490231e-07
2.8667509e-08
-4.4986628e-05
-2.7448833e-07
-2.2338794e-09
-4.497894e-05
-2.7464547e-07
-9.4977198e-10
-4.4965891e-05
-2.7447416e-07
-1.5760516e-08
-4.4949328e-05
-2.7444892e-07
-6.2353573e-09
-4.4944677e-05
-2.7436911e-07
1.0070323e-09
-4.4934419e-05
-2.7432754e-07
8.4581706e-09
-4.4934287e-05
-2.7432655e-07
1.9126687e-08
-4.4946436e-05
-2.7436019e-07
5.9791117e-09
-4.4954452e-05
-2.7444524e-07
8.0373838e-09
-4.4978981e-05
-2.7448907e-07
-2.619341e-08
-4.5000316e-05
-2.7471645e-07
-1.872521e-08
-4.5018408e-05
-2.7470234e-07
-7.5617918e-08
-4.5096366e-05
-2.7527653e-07
-4.2687629e-08
-4.5009657e-05
-2.747596e-07
-1.5941936e-07
-4.5324528e-05
-2.7554595e-07
-4.4678777e-05
-2.7274495e-07
8.2273358e-08
-3.7891294e-05
7.3037338e-08
-8.7069667e-08
-3.8298183e-05
7.4198449e-08
-4.4898549e-08
-3.8182434e-05
7.380175e-08
-5.2377919e-08
-3.8252742e-05
7.4083214e-08
-4.9585558e-08
-3.8188476e-05
7.3768056e-08
-3.0065816e-08
-3.8208512e-05
7.3766864e-08
-2.6551959e-08
-3.8184983e-05
7.3675333e-08
-1.0162489e-08
-3.8187512e-05
7.3700078e-08
-7.5517127e-09
-3.8181574e-05
7.3696356e-08
-4.4605547e-09
-3.8179273e-05
7.3657967e-08
-1.3702477e-09
-3.8178012e-05
7.359912e-08
2.8230858e-10
-3.8179778e-05
7.3632074e-08
1.9172385e-08
-3.8187752e-05
7.3756703e-08
2.4865074e-08
-3.8190901e-05
7.3946901e-08
4.6353863e-08
-3.8222212e-05
7.420157e-08
5.0140257e-08
-3.8209583e-05
7.4219924e-08
4.3555552e-08
-3.827864e-05
7.4384213e-08
8.6452337e-08
-3.8209863e-05
7.3921798e-08
-8.2183505e-08
-3.8324689e-05
7.4189218e-08
-3.7916548e-05
7.2970392e-08
2.2448165e-07
-3.9994017e-05
-2.9871025e-07
1.0082891e-07
-4.006104e-05
-2.9859967e-07
1.7971685e-07
-4.0135211e-05
-2.9972825e-07
8.0129944e-08
-4.0033181e-05
-2.9924194e-07
1.1229112e-07
-4.0119626e-05
-2.9947749e-07
4.1618097e-08
-4.0047433e-05
-2.9932539e-07
4.4191327e-08
-4.0099898e-05
-2.9951813e-07
5.0344837e-09
-4.0055684e-05
-2.9953883e-07
9.7301398e-09
-4.0071556e-05
-2.9952465e-07
3.4682141e-09
-4.005597e-05
-2.9934503e-07
-3.690421e-09
-4.005672e-05
-2.9929556e-07
-2.3280418e-09
-4.0074116e-05
-2.994151e-07
-4.4212225e-08
-4.0061651e-05
-2.99516e-07
-4.694353e-08
-4.0110634e-05
-2.9972512e-07
-1.2236257e-07
-4.0064784e-05
-2.9970374e-07
-9.2708309e-08
-4.0140413e-05
-2.9978233e-07
-1.902347e-07
-4.0053752e-05
-2.9930788e-07
-1.0732921e-07
-4.0152652e-05
-2.9963292e-07
-2.2753582e-07
-4.0073786e-05
-2.9851457e-07
-4.0003767e-05
-2.9871033e-07
-1.5216383e-07
-3.8504243e-05
3.0103029e-07
-1.4521063e-07
-3.8714123e-05
3.0082201e-07
-1.4456765e-07
-3.8779767e-05
3.0193719e-07
-1.0648695e-07
-3.8725454e-05
3.0132567e-07
-1.167742e-07
-3.8775586e-05
3.0179526e-07
-7.8861697e-08
-3.8758728e-05
3.01615e-07
-8.063274e-08
-3.8778291e-05
3.0167925e-07
-4.3259643e-08
-3.8768933e-05
3.0143678e-07
-2.7340972e-08
-3.8766411e-05
3.0142854e-07
-4.8089811e-09
-3.8762355e-05
3.0140564e-07
1.3856391e-08
-3.8763589e-05
3.0140532e-07
2.1650399e-08
-3.8768531e-05
3.014843e-07
5.4062281e-08
-3.8768844e-05
3.0149184e-07
5.3621602e-08
-3.8775724e-05
3.0164842e-07
9.7273908e-08
-3.8755454e-05
3.0156824e-07
9.3714282e-08
-3.8768909e-05
3.0184354e-07
1.3739914e-07
-3.8713544e-05
3.0141985e-07
1.4241638e-07
-3.8763318e-05
3.0191842e-07
1.5174584e-07
-3.8692925e-05
3.005081e-07
-3.8480277e-05
3.0050428e-07
8.2289839e-07
-1.3084356e-05
-7.77386e-07
2.3286633e-07
-1.2027959e-05
-7.8449342e-07
4.1608026e-07
-1.2796581e-05
-7.8307814e-07
1.6772502e-07
-1.2397192e-05
-7.813898e-07
2.2353836e-07
-1.2700261e-05
-7.8267948e-07
1.3313629e-07
-1.2549702e-05
-7.8210215e-07
1.5621122e-07
-1.2678488e-05
-7.8243341e-07
1.0071369e-07
-1.2628803e-05
-7.8233954e-07
6.2955513e-08
-1.2683514e-05
-7.8226976e-07
-1.7580462e-09
-1.2674135e-05
-7.8220199e-07
-6.4283702e-08
-1.2672587e-05
-7.8227537e-07
-9.9547817e-08
-1.2676535e-05
-7.8238091e-07
-1.56863e-07
-1.2620618e-05
-7.8226161e-07
-1.3804057e-07
-1.2665463e-05
-7.8236179e-07
-2.3031222e-07
-1.2527258e-05
-7.8190282e-07
-1.6632988e-07
-1.2673243e-05
-7.8237224e-07
-4.0514172e-07
-1.2367169e-05
-7.8088959e-07
-2.154413e-07
-1.2764889e-05
-7.8281048e-07
-8.1079838e-07
-1.1996508e-05
-7.848073e-07
-1.3055287e-05
-7.7779263e-07
-8.0759363e-07
-3.3584175e-05
7.5375771e-07
-3.1455286e-07
-4.2935948e-05
7.7983673e-07
-5.2080122e-07
-4.3138482e-05
7.7992152e-07
-3.1271045e-07
-3.3725767e-05
7.5743761e-07
-3.7424018e-07
-3.3759474e-05
7.5878587e-07
-2.6559698e-07
-3.3740763e-05
7.5844789e-07
-2.6018299e-07
-3.3743548e-05
7.5869744e-07
-1.6787426e-07
-3.3741722e-05
7.5800469e-07
-9.5617057e-08
-4.3065583e-05
7.7827998e-07
-3.7859899e-09
-4.3067468e-05
7.7837845e-07
8.9548314e-08
-4.3066755e-05
7.7853872e-07
1.5069534e-07
-3.3738493e-05
7.5821592e-07
2.4763718e-07
-4.3063796e-05
7.7828816e-07
2.608657e-07
-4.3064569e-05
7.7802081e-07
3.7713162e-07
-3.3735773e-05
7.5719548e-07
3.1652611e-07
-3.3753595e-05
7.5768019e-07
5.2918437e-07
-4.3035657e-05
7.7683214e-07
3.1746624e-07
-4.3132253e-05
7.7953458e-07
8.0828857e-07
-4.2932325e-05
7.7989997e-07
-3.3583307e-05
7.5422589e-07
1.6331732e-07
-4.9899659e-07
2.9861773e-07
-5.832066e-07
2.4373839e-07
-5.4443985e-07
2.6540088e-07
-5.30902e-07
2.341e-07
-5.2968431e-07
2.2495611e-07
-5.314433e-07
1.8790864e-07
-5.3130347e-07
1.4441101e-07
-5.3070508e-07
7.5085804e-08
-5.5169576e-07
1.5538367e-08
-5.5222946e-07
-4.5361114e-08
-5.5236642e-07
-1.0808314e-07
-5.3052134e-07
-1.5875912e-07
-5.5209023e-07
-2.0296074e-07
-5.5219664e-07
-2.2148302e-07
-5.3058313e-07
-2.5575483e-07
-5.2945056e-07
-2.453493e-07
-5.5208093e-07
-2.9835511e-07
-5.4406831e-07
-1.6504114e-07
-5.8369184e-07
-4.98694e-07
-1.054887e-06
-3.5900203e-05
-5.4744046e-08
-3.7955261e-05
-1.1836474e-07
-3.6882016e-05
-2.1992471e-08
-3.7037129e-05
-2.8360038e-08
-3.6929892e-05
-1.4753829e-08
-3.6947406e-05
-1.3527293e-08
-3.693008e-05
-1.1236884e-08
-3.6932163e-05
-6.7768777e-09
-3.6928666e-05
-6.5823894e-10
-3.6927682e-05
6.0128654e-09
-3.692746e-05
1.2484562e-08
-3.6928788e-05
1.7669432e-08
-3.6932957e-05
2.154913e-08
-3.6932537e-05
3.4543721e-08
-3.6952938e-05
2.6011202e-08
-3.6938049e-05
1.1966455e-07
-3.7047587e-05
5.4083396e-08
-3.6894272e-05
1.0539496e-06
-3.7968087e-05
-3.591334e-05
2.6335587e-07
-3.9163203e-05
-1.1112966e-08
-4.0677954e-05
-1.9504228e-08
-3.9873193e-05
-1.5067048e-08
-4.0027994e-05
-1.5668842e-08
-3.9914093e-05
-1.4394388e-08
-3.9929105e-05
-1.2705438e-08
-3.9905662e-05
-1.412765e-08
-3.9903838e-05
-7.8901762e-09
-3.9897878e-05
-3.0934694e-10
-3.989376e-05
7.92604e-09
-3.9893422e-05
1.6641989e-08
-3.9898663e-05
1.8436958e-08
-3.9906229e-05
2.3123094e-08
-3.9912551e-05
2.3113119e-08
-3.9942393e-05
1.9498095e-08
-3.9933809e-05
2.0251442e-08
-4.0052723e-05
9.284753e-09
-3.9901556e-05
-2.6512262e-07
-4.0706951e-05
-3.9192536e-05
2.723407e-07
-3.762974e-05
-6.389682e-08
-3.8548436e-05
-6.2719118e-08
-3.8070873e-05
-3.4478882e-08
-3.8258356e-05
-3.8702817e-08
-3.8104735e-05
-2.0018228e-08
-3.8145548e-05
-1.870358e-08
-3.8102967e-05
-1.1230113e-08
-3.8109657e-05
-7.593303e-09
-3.8099554e-05
-1.794588e-09
-3.8096782e-05
4.5777911e-09
-3.8095932e-05
1.006952e-08
-3.8099631e-05
2.0772065e-08
-3.8111354e-05
2.5054361e-08
-3.8111389e-05
4.3983272e-08
-3.8161275e-05
3.8144667e-08
-3.8130581e-05
6.4212374e-08
-3.8291301e-05
6.374566e-08
-3.810938e-05
-2.7273034e-07
-3.8588616e-05
-3.7670615e-05
1.5283421e-07
-4.367744e-05
3.6248117e-08
-4.4313373e-05
6.9648511e-08
-4.3999275e-05
1.6311284e-08
-4.4088568e-05
2.8447319e-08
-4.4016376e-05
-2.2821281e-09
-4.4008707e-05
-1.0283503e-09
-4.3995598e-05
-1.5768092e-08
-4.3979126e-05
-6.2516244e-09
-4.3974395e-05
1.005685e-09
-4.3964135e-05
8.4704057e-09
-4.3964001e-05
1.912569e-08
-4.3976144e-05
6.0408829e-09
-4.3984261e-05
8.0491968e-09
-4.4008751e-05
-2.6022952e-08
-4.4030189e-05
-1.8613595e-08
-4.4048279e-05
-7.5040273e-08
-4.4125947e-05
-4.2250848e-08
-4.403987e-05
-1.5719675e-07
-4.4352971e-05
-4.3715966e-05
8.2629614e-08
-3.6783524e-05
-8.5884931e-08
-3.7179978e-05
-4.4118591e-08
-3.706579e-05
-5.1669402e-08
-3.713528e-05
-4.8962461e-08
-3.7071789e-05
-2.9658384e-08
-3.7091594e-05
-2.6194847e-08
-3.7068336e-05
-9.9814653e-09
-3.7070874e-05
-7.4563083e-09
-3.7065005e-05
-4.4757916e-09
-3.7062712e-05
-1.4762481e-09
-3.7061453e-05
1.3707327e-10
-3.7063202e-05
1.8876129e-08
-3.7071117e-05
2.4504334e-08
-3.7074264e-05
4.5739572e-08
-3.7105286e-05
4.9396507e-08
-3.7092823e-05
4.2728649e-08
-3.716103e-05
8.5237431e-08
-3.709305e-05
-8.2555416e-08
-3.7206361e-05
-3.6808697e-05
2.2178036e-07
-3.946937e-05
9.9683672e-08
-3.9533242e-05
1.7799021e-07
-3.9606662e-05
7.9375507e-08
-3.9505396e-05
1.1135114e-07
-3.9591288e-05
4.1181603e-08
-3.951968e-05
4.3730045e-08
-3.9571742e-05
4.8737362e-09
-3.9527859e-05
9.6252294e-09
-3.9543508e-05
3.4810148e-09
-3.9528015e-05
-3.5850042e-09
-3.952877e-05
-2.1905426e-09
-3.9546065e-05
-4.3814161e-08
-3.9533835e-05
-4.6565642e-08
-3.9582513e-05
-1.2141977e-07
-3.95371e-05
-9.1897067e-08
-3.9612149e-05
-1.8847126e-07
-3.9526014e-05
-1.061938e-07
-3.9624147e-05
-2.2485328e-07
-3.9546057e-05
-3.9479181e-05
-1.499155e-07
-3.7393827e-05
-1.4353373e-07
-3.7597097e-05
-1.4285024e-07
-3.7661791e-05
-1.0519962e-07
-3.7606803e-05
-1.1551775e-07
-3.7656435e-05
-7.8068837e-08
-3.7639878e-05
-7.9954561e-08
-3.7659243e-05
-4.2903155e-08
-3.7650016e-05
-2.7120553e-08
-3.76489e-05
-4.8154175e-09
-3.7644887e-05
1.3628117e-08
-3.7646126e-05
2.1272409e-08
-3.7649583e-05
5.3358142e-08
-3.7651363e-05
5.2824128e-08
-3.7658113e-05
9.6031912e-08
-3.7636615e-05
9.2425892e-08
-3.7649785e-05
1.3564045e-07
-3.7596379e-05
1.406678e-07
-3.764542e-05
1.4944258e-07
-3.7576001e-05
-3.7369958e-05
8.1107502e-07
-1.3799184e-05
2.3305637e-07
-1.2753872e-05
4.1026744e-07
-1.3514773e-05
1.6736343e-07
-1.3123285e-05
2.2055326e-07
-1.3423661e-05
1.3258004e-07
-1.3274614e-05
1.5490589e-07
-1.3402344e-05
1.0042413e-07
-1.3353274e-05
6.2559992e-08
-1.3403927e-05
-1.7727399e-09
-1.3394653e-05
-6.388009e-08
-1.3393134e-05
-9.9189796e-08
-1.3400596e-05
-1.5548282e-07
-1.3341252e-05
-1.3745969e-07
-1.3385697e-05
-2.2726134e-07
-1.3252219e-05