/*--------------------------------*- C++ -*----------------------------------*\
  =========                 |
  \\      /  F ield         | OpenFOAM: The Open Source CFD Toolbox
   \\    /   O peration     | Website:  https://openfoam.org
    \\  /    A nd           | Version:  8
     \\/     M anipulation  |
\*---------------------------------------------------------------------------*/
FoamFile
{
    version     2.0;
    format      ascii;
    class       volVectorField;
    location    "0.6";
    object      U;
}
// * * * * * * * * * * * * * * * * * * * * * * * * * * * * * * * * * * * * * //

dimensions      [0 1 -1 0 0 0 0];

internalField   nonuniform List<vector> 
800
(
(-0.00033324261 0.13216513 -0.00061607129)
(2.6269853e-05 0.13243168 -0.00061822375)
(-4.1011261e-05 0.13250784 -0.00061887983)
(5.7466657e-06 0.13249789 -0.00061879132)
(-1.1736397e-05 0.13250415 -0.00061882999)
(3.2697094e-06 0.13250679 -0.00061883839)
(-7.3417829e-06 0.13250451 -0.0006188321)
(3.2288844e-06 0.13250771 -0.00061884101)
(-6.226618e-06 0.13250526 -0.00061883558)
(4.1907669e-06 0.13250645 -0.00061884101)
(-4.370174e-06 0.13250651 -0.00061884183)
(6.2105167e-06 0.13250542 -0.00061883724)
(-2.8997019e-06 0.13250801 -0.00061884001)
(8.1990196e-06 0.13250495 -0.0006188268)
(-2.2175895e-06 0.13250733 -0.00061883115)
(1.2521093e-05 0.13250474 -0.00061882819)
(-5.3325075e-06 0.13249844 -0.00061879693)
(4.0990535e-05 0.1325083 -0.00061888722)
(-2.6459345e-05 0.13243199 -0.00061822499)
(0.0003331371 0.13216534 -0.00061606769)
(5.6360255e-05 -0.15906814 5.6039613e-05)
(7.3848302e-06 -0.15966114 5.6564323e-05)
(-9.4697483e-06 -0.15960169 5.6466016e-05)
(4.0124934e-06 -0.15961164 5.6503787e-05)
(-7.5067177e-06 -0.15960437 5.6477998e-05)
(3.4978837e-06 -0.1596098 5.6485227e-05)
(-6.9635153e-06 -0.15960492 5.6479629e-05)
(3.6492804e-06 -0.15960893 5.6484782e-05)
(-6.9033089e-06 -0.15960561 5.6483977e-05)
(4.8582146e-06 -0.1596069 5.6483285e-05)
(-4.9287062e-06 -0.15960696 5.6482014e-05)
(7.0070998e-06 -0.15960584 5.6482163e-05)
(-3.1847089e-06 -0.15960939 5.6485424e-05)
(7.9318909e-06 -0.15960568 5.6486487e-05)
(-2.3691069e-06 -0.15961101 5.6495275e-05)
(8.2993187e-06 -0.15960587 5.6485701e-05)
(-3.6666734e-06 -0.1596133 5.6506217e-05)
(9.3303436e-06 -0.1596034 5.6469179e-05)
(-7.692868e-06 -0.15966273 5.6575247e-05)
(-5.6513872e-05 -0.15906964 5.6057184e-05)
(5.4206813e-05 0.18135533 3.5946374e-05)
(4.5715574e-06 0.18185444 3.6032991e-05)
(-1.8330536e-05 0.18188794 3.6134224e-05)
(4.5493105e-06 0.18187999 3.6105187e-05)
(-1.1546812e-05 0.1818863 3.6133933e-05)
(2.9580476e-06 0.1818907 3.612741e-05)
(-6.9884634e-06 0.1818882 3.6135004e-05)
(2.8100118e-06 0.18189317 3.6137801e-05)
(-5.0092654e-06 0.18189014 3.6138492e-05)
(3.3594181e-06 0.18189225 3.6138926e-05)
(-3.7186986e-06 0.18189238 3.613828e-05)
(4.7405251e-06 0.18189032 3.6136555e-05)
(-2.8074367e-06 0.18189339 3.6138388e-05)
(7.3981411e-06 0.1818881 3.6139075e-05)
(-2.3435192e-06 0.18189018 3.6131206e-05)
(1.2071272e-05 0.18188512 3.6131556e-05)
(-4.2495222e-06 0.18187822 3.6094636e-05)
(1.8365111e-05 0.1818857 3.6119588e-05)
(-4.6226247e-06 0.18185198 3.6020835e-05)
(-5.4255182e-05 0.18135276 3.5936556e-05)
(2.79756e-05 -0.21869891 1.8518801e-05)
(-1.6257023e-06 -0.21943229 1.8735648e-05)
(9.1854152e-06 -0.21939327 1.8675555e-05)
(2.8196731e-06 -0.21941488 1.8706399e-05)
(3.4726311e-07 -0.21939742 1.8677931e-05)
(4.8696369e-06 -0.21940922 1.8685596e-05)
(-5.3107971e-06 -0.21939959 1.8678285e-05)
(5.1019595e-06 -0.21940657 1.8680917e-05)
(-7.8392926e-06 -0.21940156 1.8679386e-05)
(6.6175444e-06 -0.21940371 1.8679538e-05)
(-6.4376493e-06 -0.21940373 1.8679362e-05)
(8.0703814e-06 -0.21940181 1.8679518e-05)
(-4.7470847e-06 -0.21940707 1.8681836e-05)
(5.8801274e-06 -0.21940069 1.8680973e-05)
(-4.3790547e-06 -0.21941084 1.8689956e-05)
(-3.4975242e-07 -0.21939975 1.8682655e-05)
(-3.1763202e-06 -0.21941756 1.870904e-05)
(-9.815213e-06 -0.21939625 1.8681255e-05)
(1.0514936e-06 -0.21943527 1.874842e-05)
(-2.822351e-05 -0.21870189 1.8536379e-05)
(1.8563448e-05 0.25124169 -9.4130604e-06)
(-4.8354753e-06 0.25202267 -9.4828351e-06)
(-8.8420915e-06 0.25201443 -9.4564811e-06)
(1.603624e-06 0.25202927 -9.4695687e-06)
(-9.1745083e-06 0.25201769 -9.460556e-06)
(9.4496397e-07 0.25203231 -9.4639362e-06)
(-5.2238171e-06 0.25202285 -9.4607594e-06)
(8.8355785e-07 0.25203305 -9.459092e-06)
(-2.3054244e-06 0.25202796 -9.4572495e-06)
(1.1140506e-06 0.25203182 -9.4565491e-06)
(-1.7781771e-06 0.25203188 -9.4575265e-06)
(1.5788607e-06 0.25202807 -9.459312e-06)
(-1.6019091e-06 0.252033 -9.4579467e-06)
(4.7322677e-06 0.25202243 -9.4558327e-06)
(-1.2702282e-06 0.25203132 -9.457478e-06)
(8.9638338e-06 0.25201609 -9.4558879e-06)
(-1.7024467e-06 0.25202727 -9.4699307e-06)
(8.7465271e-06 0.25201237 -9.4618974e-06)
(4.8687409e-06 0.25202079 -9.4908277e-06)
(-1.8577212e-05 0.25124001 -9.4219994e-06)
(3.2932285e-05 -0.30094735 1.6919969e-05)
(-3.8689527e-06 -0.30192817 1.7000833e-05)
(1.7704135e-05 -0.30189864 1.7028246e-05)
(5.9583379e-06 -0.3019282 1.7016216e-05)
(4.7660353e-06 -0.30190374 1.7023803e-05)
(1.0241363e-05 -0.30192415 1.702116e-05)
(-4.6549913e-06 -0.30190914 1.702139e-05)
(1.0484883e-05 -0.30192153 1.7018743e-05)
(-9.9057998e-06 -0.30191473 1.7020667e-05)
(1.1122611e-05 -0.30191893 1.7022145e-05)
(-1.0649299e-05 -0.3019188 1.7023167e-05)
(1.0194254e-05 -0.30191458 1.7022061e-05)
(-1.043247e-05 -0.3019215 1.7019314e-05)
(4.5483848e-06 -0.30190957 1.7018661e-05)
(-1.0692457e-05 -0.30192509 1.701563e-05)
(-5.6464729e-06 -0.30190513 1.7020805e-05)
(-6.7724804e-06 -0.30192993 1.7017902e-05)
(-1.8320191e-05 -0.30190056 1.7032432e-05)
(3.5301628e-06 -0.30193016 1.7004637e-05)
(-3.3046367e-05 -0.30094938 1.692173e-05)
(-1.2983989e-05 0.34863078 -1.5697663e-05)
(-4.1060539e-06 0.34976814 -1.5754447e-05)
(-1.2198898e-05 0.34972619 -1.578701e-05)
(-4.486567e-06 0.34977132 -1.5770389e-05)
(-7.3055356e-06 0.34973376 -1.5781841e-05)
(-6.3267177e-06 0.34976497 -1.5775933e-05)
(-2.5919696e-06 0.34974193 -1.578228e-05)
(-6.6501014e-06 0.34976098 -1.5782275e-05)
(1.6888276e-06 0.34975146 -1.5783674e-05)
(-4.8749208e-06 0.34975804 -1.5782564e-05)
(4.3243027e-06 0.34975782 -1.5782537e-05)
(-2.6945885e-06 0.34975105 -1.5782926e-05)
(5.1912413e-06 0.34976035 -1.578167e-05)
(1.0011213e-06 0.3497413 -1.5783449e-05)
(4.988878e-06 0.34976416 -1.577744e-05)
(6.372131e-06 0.34973306 -1.5781852e-05)
(3.9546109e-06 0.34977101 -1.5768864e-05)
(1.1909669e-05 0.34972644 -1.5785986e-05)
(4.0827887e-06 0.34976902 -1.5757188e-05)
(1.2951933e-05 0.34863205 -1.5703251e-05)
(9.0336655e-05 -0.41564617 2.7276592e-05)
(-5.3865636e-06 -0.41701004 2.7378843e-05)
(2.5149539e-05 -0.41697367 2.7495866e-05)
(1.7113363e-05 -0.41701607 2.7384113e-05)
(-1.095722e-06 -0.41698153 2.7468593e-05)
(2.3176657e-05 -0.41701464 2.7431749e-05)
(-9.9847676e-06 -0.41699125 2.7458206e-05)
(2.5215453e-05 -0.41701161 2.7448247e-05)
(-1.5524393e-05 -0.41700014 2.7458541e-05)
(2.1714569e-05 -0.41700704 2.7454516e-05)
(-2.1855505e-05 -0.41700702 2.7453428e-05)
(1.5530157e-05 -0.41699996 2.7454297e-05)
(-2.518618e-05 -0.4170111 2.744891e-05)
(9.904564e-06 -0.41699022 2.7463263e-05)
(-2.3565592e-05 -0.41701318 2.7431437e-05)
(8.3741976e-07 -0.41697955 2.7468356e-05)
(-1.6798919e-05 -0.41701374 2.7388025e-05)
(-2.4347641e-05 -0.41697103 2.7494443e-05)
(6.2610039e-06 -0.41700729 2.7368461e-05)
(-8.9983641e-05 -0.41564337 2.7256829e-05)
(-7.3846134e-05 0.48600191 -2.4140875e-05)
(2.5603312e-06 0.48774062 -2.4209369e-05)
(-2.6173602e-05 0.48759034 -2.4349314e-05)
(-1.9047327e-05 0.48769584 -2.4076062e-05)
(-6.701173e-06 0.48761272 -2.4148705e-05)
(-2.5173016e-05 0.48767244 -2.4115538e-05)
(2.8714132e-06 0.48762674 -2.4138102e-05)
(-2.4781838e-05 0.48765744 -2.4296286e-05)
(1.110492e-05 0.48763658 -2.4306704e-05)
(-1.9211917e-05 0.4876459 -2.4304754e-05)
(1.8883873e-05 0.48764608 -2.4300825e-05)
(-1.1565922e-05 0.4876371 -2.4294011e-05)
(2.429746e-05 0.48765833 -2.4127836e-05)
(-3.3393971e-06 0.48762778 -2.4224426e-05)
(2.5046157e-05 0.48767402 -2.4123198e-05)
(6.9141195e-06 0.48761435 -2.4156007e-05)
(1.9344852e-05 0.48769782 -2.4077663e-05)
(2.6304491e-05 0.48759192 -2.4345122e-05)
(-2.5093198e-06 0.48774207 -2.4036475e-05)
(7.382341e-05 0.48600296 -2.3969098e-05)
(-5.6857635e-05 -0.57661835 -0.00048979167)
(7.0027049e-05 -0.57865982 -0.00049125832)
(-4.5952166e-05 -0.57851323 -0.00049183129)
(6.1264841e-05 -0.57862324 -0.00049189406)
(-3.9983797e-05 -0.57853304 -0.00049186092)
(5.5112963e-05 -0.57859898 -0.00049188301)
(-3.7629282e-05 -0.57854609 -0.00049185954)
(5.0237251e-05 -0.57858157 -0.00049172325)
(-3.952934e-05 -0.5785569 -0.00049172484)
(4.4732903e-05 -0.57856809 -0.00049173391)
(-4.362183e-05 -0.57856821 -0.00049173681)
(4.0796726e-05 -0.57855714 -0.00049172358)
(-4.9312767e-05 -0.57858207 -0.00049186848)
(3.8799597e-05 -0.57854651 -0.00049179254)
(-5.4487906e-05 -0.57859978 -0.00049187551)
(4.0317318e-05 -0.57853371 -0.00049185736)
(-6.1085047e-05 -0.57862434 -0.00049188396)
(4.5909244e-05 -0.57851417 -0.00049182704)
(-6.9903505e-05 -0.57866099 -0.00049139311)
(5.6636999e-05 -0.57661939 -0.00048991463)
(-0.00034019811 0.13347179 0.00026285311)
(2.697606e-05 0.13374231 0.00026470168)
(-4.1504437e-05 0.13381941 0.00026444572)
(5.8111121e-06 0.13380936 0.00026449045)
(-1.1843138e-05 0.13381566 0.00026448148)
(3.3025019e-06 0.13381834 0.00026448462)
(-7.397883e-06 0.13381603 0.00026448533)
(3.2647367e-06 0.13381926 0.00026449645)
(-6.2721001e-06 0.1338168 0.00026449413)
(4.2290538e-06 0.133818 0.0002644937)
(-4.4092874e-06 0.13381806 0.00026449089)
(6.2572342e-06 0.13381696 0.00026448993)
(-2.9316318e-06 0.13381956 0.00026449852)
(8.2583637e-06 0.13381647 0.00026449962)
(-2.2516486e-06 0.13381887 0.00026450355)
(1.2621631e-05 0.13381626 0.00026448802)
(-5.4010383e-06 0.13380992 0.00026447813)
(4.1485997e-05 0.13381987 0.00026442988)
(-2.7159722e-05 0.13374263 0.00026470168)
(0.00034009492 0.13347202 0.00026286602)
(5.7135829e-05 -0.16124687 5.1929233e-05)
(7.5215732e-06 -0.16185165 5.2276259e-05)
(-9.5739085e-06 -0.16179133 5.2212972e-05)
(4.0548882e-06 -0.16180145 5.2244329e-05)
(-7.5820759e-06 -0.16179409 5.2219893e-05)
(3.5354733e-06 -0.16179958 5.2222745e-05)
(-7.0164334e-06 -0.16179466 5.2221637e-05)
(3.6927032e-06 -0.16179871 5.222973e-05)
(-6.9513041e-06 -0.16179537 5.2230602e-05)
(4.9018764e-06 -0.16179667 5.2228102e-05)
(-4.973481e-06 -0.16179673 5.2225161e-05)
(7.0563845e-06 -0.16179559 5.2226107e-05)
(-3.2233425e-06 -0.16179917 5.2231246e-05)
(7.9896683e-06 -0.16179542 5.2236638e-05)
(-2.4057607e-06 -0.16180079 5.224363e-05)
(8.3711414e-06 -0.16179559 5.2230963e-05)
(-3.7108385e-06 -0.16180311 5.2238985e-05)
(9.438908e-06 -0.16179305 5.2206909e-05)
(-7.8220764e-06 -0.16185325 5.2289191e-05)
(-5.7286197e-05 -0.16124839 5.1957719e-05)
(5.4620941e-05 0.18350551 4.7874476e-05)
(4.6133542e-06 0.18401379 4.7963729e-05)
(-1.8491025e-05 0.18404763 4.803955e-05)
(4.5733067e-06 0.18403961 4.8017177e-05)
(-1.1647243e-05 0.18404596 4.8038408e-05)
(2.9779856e-06 0.1840504 4.8029822e-05)
(-7.0457044e-06 0.18404787 4.8038934e-05)
(2.8347355e-06 0.18405289 4.8044314e-05)
(-5.0489537e-06 0.18404983 4.8046523e-05)
(3.3889731e-06 0.18405197 4.8045532e-05)
(-3.7491247e-06 0.18405209 4.8043165e-05)
(4.7810626e-06 0.18405002 4.8041775e-05)
(-2.8288139e-06 0.18405311 4.804622e-05)
(7.4569037e-06 0.18404777 4.8052231e-05)
(-2.3663393e-06 0.18404988 4.8045682e-05)
(1.2164382e-05 0.18404478 4.8043166e-05)
(-4.2792253e-06 0.18403784 4.800443e-05)
(1.852466e-05 0.18404539 4.8019196e-05)
(-4.6615884e-06 0.18401133 4.7950354e-05)
(-5.4668364e-05 0.18350293 4.786792e-05)
(2.8390928e-05 -0.22145221 5.3353837e-06)
(-1.631608e-06 -0.2221988 5.3827691e-06)
(9.2665036e-06 -0.22215949 5.3521394e-06)
(2.8505997e-06 -0.22218129 5.3729543e-06)
(3.3719602e-07 -0.2221637 5.3500168e-06)
(4.9201424e-06 -0.22217559 5.3538866e-06)
(-5.351767e-06 -0.22216589 5.3495484e-06)
(5.1611287e-06 -0.22217294 5.3528294e-06)
(-7.8938835e-06 -0.22216789 5.3527834e-06)
(6.6770299e-06 -0.22217006 5.3534985e-06)
(-6.4966826e-06 -0.22217008 5.3532965e-06)
(8.1260154e-06 -0.22216814 5.3532451e-06)
(-4.8043777e-06 -0.22217344 5.3543843e-06)
(5.9232823e-06 -0.22216699 5.3534583e-06)
(-4.4278604e-06 -0.22217722 5.3594675e-06)
(-3.3999791e-07 -0.22216602 5.3526292e-06)
(-3.2062291e-06 -0.22218395 5.3683756e-06)
(-9.8909898e-06 -0.22216247 5.3532389e-06)
(1.0634461e-06 -0.22220178 5.4008295e-06)
(-2.8636399e-05 -0.22145519 5.3651131e-06)
(1.857754e-05 0.25433923 4.0827558e-06)
(-4.9033806e-06 0.25513438 4.0713611e-06)
(-8.9496418e-06 0.25512611 4.0880651e-06)
(1.5853397e-06 0.25514107 4.0778118e-06)
(-9.2697368e-06 0.2551294 4.0826025e-06)
(9.3520292e-07 0.25514415 4.0767431e-06)
(-5.2766594e-06 0.2551346 4.0798313e-06)
(8.8244904e-07 0.25514488 4.0814868e-06)
(-2.3296132e-06 0.25513975 4.08467e-06)
(1.1220244e-06 0.25514363 4.0847778e-06)
(-1.7870891e-06 0.25514369 4.082282e-06)
(1.6043396e-06 0.25513985 4.0805634e-06)
(-1.5967878e-06 0.25514483 4.0840707e-06)
(4.787439e-06 0.25513418 4.0917181e-06)
(-1.260234e-06 0.25514315 4.0937253e-06)
(9.0551868e-06 0.25512779 4.0975643e-06)
(-1.6886946e-06 0.25513908 4.0829042e-06)
(8.8498909e-06 0.25512406 4.0822832e-06)
(4.9354766e-06 0.25513249 4.0585677e-06)
(-1.8592186e-05 0.25433753 4.0669039e-06)
(3.334223e-05 -0.30475398 2.9138985e-06)
(-3.9095609e-06 -0.30575295 2.8368443e-06)
(1.788584e-05 -0.30572319 2.8640969e-06)
(6.0194858e-06 -0.30575299 2.8526113e-06)
(4.8028528e-06 -0.30572832 2.8627515e-06)
(1.0335441e-05 -0.3057489 2.8609786e-06)
(-4.6981595e-06 -0.30573376 2.85893e-06)
(1.058677e-05 -0.30574625 2.853762e-06)
(-9.9833372e-06 -0.30573939 2.856665e-06)
(1.1220558e-05 -0.30574363 2.8625908e-06)
(-1.0745715e-05 -0.30574349 2.8651216e-06)
(1.0272034e-05 -0.30573923 2.8612421e-06)
(-1.0535993e-05 -0.30574622 2.8550214e-06)
(4.5890926e-06 -0.30573419 2.849884e-06)
(-1.0786274e-05 -0.30574985 2.8454588e-06)
(-5.679108e-06 -0.30572971 2.8526486e-06)
(-6.8299693e-06 -0.30575471 2.8535264e-06)
(-1.8500535e-05 -0.3057251 2.8721733e-06)
(3.5691636e-06 -0.30575494 2.8448571e-06)
(-3.3457111e-05 -0.30475601 2.9174929e-06)
(-1.3216593e-05 0.35301582 -1.8893463e-06)
(-4.1478554e-06 0.35417402 -1.8475399e-06)
(-1.2342468e-05 0.35413168 -1.8757241e-06)
(-4.5493033e-06 0.35417721 -1.8656301e-06)
(-7.3858547e-06 0.35413932 -1.8723762e-06)
(-6.3950558e-06 0.35417081 -1.8695217e-06)
(-2.6185157e-06 0.35414755 -1.877223e-06)
(-6.71069e-06 0.35416677 -1.8825827e-06)
(1.7053823e-06 0.35415716 -1.8840857e-06)
(-4.9173588e-06 0.35416378 -1.8830806e-06)
(4.3683244e-06 0.35416356 -1.8832933e-06)
(-2.7101982e-06 0.35415674 -1.8820256e-06)
(5.2526887e-06 0.35416615 -1.8809086e-06)
(1.0262981e-06 0.35414693 -1.8795677e-06)
(5.0589949e-06 0.35417001 -1.8730538e-06)
(6.45339e-06 0.35413862 -1.8716843e-06)
(4.0190968e-06 0.3541769 -1.861432e-06)
(1.2050583e-05 0.35413193 -1.8737712e-06)
(4.122398e-06 0.35417489 -1.856311e-06)
(1.3182352e-05 0.35301708 -1.9054479e-06)
(9.1293176e-05 -0.42096816 1.3488179e-05)
(-5.449207e-06 -0.42235773 1.3358526e-05)
(2.5366623e-05 -0.42232101 1.3434553e-05)
(1.7278472e-05 -0.42236373 1.3340621e-05)
(-1.0933094e-06 -0.42232884 1.341251e-05)
(2.3385294e-05 -0.42236225 1.3381943e-05)
(-1.0091973e-05 -0.42233861 1.3406098e-05)
(2.5423217e-05 -0.42235921 1.3396413e-05)
(-1.5682948e-05 -0.42234763 1.340472e-05)
(2.1901201e-05 -0.42235458 1.3405554e-05)
(-2.2045429e-05 -0.42235456 1.3404587e-05)
(1.568938e-05 -0.42234744 1.3399557e-05)
(-2.5390224e-05 -0.42235864 1.3397224e-05)
(1.0011238e-05 -0.42233762 1.3406208e-05)
(-2.3778192e-05 -0.42236079 1.3385144e-05)
(8.3741502e-07 -0.42232687 1.3419086e-05)
(-1.6965655e-05 -0.4223614 1.33532e-05)
(-2.4571226e-05 -0.42231836 1.3439603e-05)
(6.3133744e-06 -0.42235491 1.3343667e-05)
(-9.0944088e-05 -0.4209653 1.3457534e-05)
(-7.4638477e-05 0.49231173 -1.00639e-05)
(2.600134e-06 0.49408261 -1.0004793e-05)
(-2.6317156e-05 0.49393077 -1.0107889e-05)
(-1.9105585e-05 0.49403727 -9.850532e-06)
(-6.7350374e-06 0.49395334 -9.9129069e-06)
(-2.5360826e-05 0.49401363 -9.8801289e-06)
(2.8605273e-06 0.4939675 -9.9003451e-06)
(-2.5051718e-05 0.49399854 -9.9859522e-06)
(1.1232977e-05 0.49397751 -1.0076046e-05)
(-1.9376819e-05 0.49398691 -1.0074837e-05)
(1.9057805e-05 0.49398708 -1.0069322e-05)
(-1.1610417e-05 0.49397801 -9.989263e-06)
(2.4526581e-05 0.49399939 -9.9949632e-06)
(-3.4185242e-06 0.49396861 -1.0094518e-05)
(2.527353e-05 0.49401521 -9.9115922e-06)
(6.9500785e-06 0.49395497 -9.9387859e-06)
(1.9413074e-05 0.49403924 -9.9432221e-06)
(2.653675e-05 0.49393235 -1.0110086e-05)
(-2.4632993e-06 0.494084 -9.926193e-06)
(7.4612659e-05 0.49231273 -9.9583478e-06)
(-6.2276001e-05 -0.58416547 0.00050587815)
(7.1611425e-05 -0.58624538 0.00050962245)
(-4.6737502e-05 -0.58609724 0.00050888198)
(6.185182e-05 -0.58620835 0.00050894892)
(-4.0377264e-05 -0.5861173 0.00050888895)
(5.5621629e-05 -0.58618387 0.00050893077)
(-3.7929049e-05 -0.5861305 0.00050889699)
(5.0749196e-05 -0.58616633 0.00050899745)
(-3.9920057e-05 -0.58614142 0.00050905166)
(4.5136552e-05 -0.58615272 0.00050904887)
(-4.402744e-05 -0.58615284 0.00050904699)
(4.111543e-05 -0.58614167 0.00050897952)
(-4.9800902e-05 -0.58616682 0.00050900639)
(3.9177577e-05 -0.58613092 0.00050904224)
(-5.5028804e-05 -0.58618468 0.00050895126)
(4.0712718e-05 -0.58611797 0.00050889393)
(-6.1675854e-05 -0.58620946 0.00050901204)
(4.6621014e-05 -0.58609819 0.00050889312)
(-7.1553896e-05 -0.58624655 0.00050955188)
(6.2064208e-05 -0.58416652 0.00050581233)
(-0.00034019613 0.13347179 -0.00026286396)
(2.6980698e-05 0.13374231 -0.00026469945)
(-4.1501419e-05 0.13381941 -0.00026442633)
(5.8095823e-06 0.13380936 -0.00026446873)
(-1.1846115e-05 0.13381566 -0.00026447194)
(3.3027146e-06 0.13381834 -0.00026448215)
(-7.3947402e-06 0.13381604 -0.00026447444)
(3.2670177e-06 0.13381926 -0.00026447367)
(-6.2724154e-06 0.1338168 -0.00026446847)
(4.2274049e-06 0.133818 -0.00026447285)
(-4.40991e-06 0.13381806 -0.00026447575)
(6.2590391e-06 0.13381696 -0.00026447304)
(-2.9281593e-06 0.13381957 -0.00026447183)
(8.2605009e-06 0.13381647 -0.00026446034)
(-2.2540099e-06 0.13381887 -0.00026446295)
(1.2615327e-05 0.13381626 -0.00026446415)
(-5.4061346e-06 0.13380992 -0.00026447886)
(4.1486885e-05 0.13381987 -0.00026443932)
(-2.7155488e-05 0.13374263 -0.00026469595)
(0.00034009691 0.13347202 -0.00026284706)
(5.7137886e-05 -0.16124687 -5.1937796e-05)
(7.5263808e-06 -0.16185165 -5.2271252e-05)
(-9.5707804e-06 -0.16179133 -5.219009e-05)
(4.0533408e-06 -0.16180145 -5.221897e-05)
(-7.5850864e-06 -0.16179409 -5.2207067e-05)
(3.5357424e-06 -0.16179959 -5.2216992e-05)
(-7.0131238e-06 -0.16179466 -5.2207087e-05)
(3.6950828e-06 -0.16179872 -5.2202416e-05)
(-6.9516421e-06 -0.16179537 -5.2200492e-05)
(4.900283e-06 -0.16179668 -5.2202853e-05)
(-4.9740652e-06 -0.16179673 -5.2205288e-05)
(7.057998e-06 -0.1617956 -5.2204622e-05)
(-3.2203005e-06 -0.16179918 -5.2201047e-05)
(7.9913649e-06 -0.16179542 -5.2195497e-05)
(-2.408421e-06 -0.16180079 -5.2202459e-05)
(8.3648268e-06 -0.16179559 -5.2207389e-05)
(-3.7155999e-06 -0.16180311 -5.2239408e-05)
(9.4406438e-06 -0.16179305 -5.2214428e-05)
(-7.8168434e-06 -0.16185326 -5.2277414e-05)
(-5.7283816e-05 -0.16124839 -5.1930092e-05)
(5.4622638e-05 0.18350551 -4.789003e-05)
(4.6172156e-06 0.18401379 -4.796792e-05)
(-1.8488597e-05 0.18404763 -4.8029558e-05)
(4.5718673e-06 0.18403961 -4.8005464e-05)
(-1.164994e-05 0.18404596 -4.8037876e-05)
(2.9777063e-06 0.1840504 -4.8035891e-05)
(-7.0434234e-06 0.18404787 -4.8040271e-05)
(2.8368368e-06 0.18405289 -4.8035304e-05)
(-5.0490427e-06 0.18404983 -4.8033949e-05)
(3.3875038e-06 0.18405197 -4.803701e-05)
(-3.749918e-06 0.18405209 -4.8040187e-05)
(4.7826805e-06 0.18405002 -4.8038436e-05)
(-2.8248617e-06 0.18405311 -4.8032807e-05)
(7.4600245e-06 0.18404777 -4.8023247e-05)
(-2.3670704e-06 0.18404987 -4.8011852e-05)
(1.2159975e-05 0.18404478 -4.801881e-05)
(-4.2841976e-06 0.18403784 -4.7999522e-05)
(1.8522722e-05 0.18404539 -4.8027613e-05)
(-4.6610032e-06 0.18401133 -4.7957949e-05)
(-5.4667859e-05 0.18350294 -4.7871993e-05)
(2.8392031e-05 -0.22145221 -5.3317797e-06)
(-1.6288878e-06 -0.2221988 -5.3719264e-06)
(9.2685137e-06 -0.2221595 -5.3304271e-06)
(2.8498214e-06 -0.22218129 -5.3486654e-06)
(3.3556548e-07 -0.2221637 -5.3334983e-06)
(4.9201069e-06 -0.2221756 -5.3405684e-06)
(-5.350566e-06 -0.2221659 -5.3333966e-06)
(5.1623185e-06 -0.22217294 -5.3314307e-06)
(-7.8930625e-06 -0.22216789 -5.3284575e-06)
(6.677425e-06 -0.22217006 -5.326473e-06)
(-6.4969332e-06 -0.22217008 -5.3264713e-06)
(8.1255019e-06 -0.22216814 -5.3279004e-06)
(-4.8051492e-06 -0.22217344 -5.3309637e-06)
(5.9223481e-06 -0.222167 -5.3331991e-06)
(-4.4295432e-06 -0.22217722 -5.3425171e-06)
(-3.426493e-07 -0.22216602 -5.3438414e-06)
(-3.2067403e-06 -0.22218395 -5.3689812e-06)
(-9.8867537e-06 -0.22216246 -5.3477097e-06)
(1.0691114e-06 -0.22220178 -5.3731343e-06)
(-2.8634071e-05 -0.22145519 -5.3217607e-06)
(1.8578462e-05 0.25433923 -4.0990226e-06)
(-4.9015155e-06 0.25513438 -4.0805727e-06)
(-8.9488023e-06 0.25512611 -4.0900197e-06)
(1.5842057e-06 0.25514106 -4.0805251e-06)
(-9.2716439e-06 0.2551294 -4.0930796e-06)
(9.3412009e-07 0.25514414 -4.0935374e-06)
(-5.2764958e-06 0.25513459 -4.0976484e-06)
(8.8327561e-07 0.25514488 -4.095944e-06)
(-2.3293512e-06 0.25513974 -4.0956624e-06)
(1.121088e-06 0.25514363 -4.0971413e-06)
(-1.7879387e-06 0.25514369 -4.100156e-06)
(1.6055654e-06 0.25513985 -4.0992877e-06)
(-1.5930656e-06 0.25514483 -4.0930563e-06)
(4.7918651e-06 0.25513417 -4.0838353e-06)
(-1.2574266e-06 0.25514314 -4.0715249e-06)
(9.05459e-06 0.25512779 -4.0703396e-06)
(-1.6928834e-06 0.25513908 -4.0658183e-06)
(8.8439283e-06 0.25512406 -4.0852525e-06)
(4.9302916e-06 0.25513249 -4.0832591e-06)
(-1.8594223e-05 0.25433752 -4.1052466e-06)
(3.3341497e-05 -0.30475398 -2.9075751e-06)
(-3.9111944e-06 -0.30575295 -2.8362033e-06)
(1.7885181e-05 -0.30572319 -2.8694628e-06)
(6.0204804e-06 -0.30575299 -2.8565575e-06)
(4.804066e-06 -0.30572832 -2.8609106e-06)
(1.0334504e-05 -0.3057489 -2.8565475e-06)
(-4.7006901e-06 -0.30573376 -2.8637881e-06)
(1.0586032e-05 -0.30574625 -2.8662372e-06)
(-9.9806659e-06 -0.30573939 -2.865626e-06)
(1.1223603e-05 -0.30574363 -2.857356e-06)
(-1.0746421e-05 -0.3057435 -2.8552043e-06)
(1.0268927e-05 -0.30573924 -2.8600585e-06)
(-1.0540039e-05 -0.30574622 -2.8649424e-06)
(4.5862458e-06 -0.30573419 -2.8738481e-06)
(-1.0785781e-05 -0.30574985 -2.8742512e-06)
(-5.6757422e-06 -0.30572972 -2.8749468e-06)
(-6.8254719e-06 -0.30575472 -2.8599009e-06)
(-1.8497372e-05 -0.3057251 -2.8651274e-06)
(3.5698415e-06 -0.30575494 -2.831349e-06)
(-3.3457519e-05 -0.30475601 -2.9063283e-06)
(-1.3217678e-05 0.35301582 1.8880496e-06)
(-4.1498844e-06 0.35417402 1.8396061e-06)
(-1.234358e-05 0.35413168 1.8617289e-06)
(-4.5490501e-06 0.35417721 1.8505957e-06)
(-7.3854331e-06 0.35413932 1.8596877e-06)
(-6.3964866e-06 0.35417081 1.8569672e-06)
(-2.6220534e-06 0.35414755 1.8554965e-06)
(-6.7130479e-06 0.35416677 1.8473971e-06)
(1.7051943e-06 0.35415715 1.8466135e-06)
(-4.9174104e-06 0.35416378 1.8463369e-06)
(4.3688776e-06 0.35416356 1.8462285e-06)
(-2.7094045e-06 0.35415674 1.8486843e-06)
(5.2538173e-06 0.35416615 1.8493012e-06)
(1.0282764e-06 0.35414693 1.8536497e-06)
(5.0613446e-06 0.35417001 1.854197e-06)
(6.4553268e-06 0.35413862 1.8611879e-06)
(4.0189717e-06 0.3541769 1.8550336e-06)
(1.2047385e-05 0.35413193 1.8625957e-06)
(4.1186043e-06 0.35417488 1.8289549e-06)
(1.3181072e-05 0.35301707 1.8692139e-06)
(9.1295198e-05 -0.42096813 -1.3499395e-05)
(-5.4480686e-06 -0.42235772 -1.336202e-05)
(2.5365845e-05 -0.422321 -1.3443879e-05)
(1.7277167e-05 -0.42236373 -1.3350344e-05)
(-1.0934092e-06 -0.42232884 -1.3424483e-05)
(2.3386137e-05 -0.42236225 -1.3390505e-05)
(-1.0092336e-05 -0.42233861 -1.341754e-05)
(2.5422227e-05 -0.42235918 -1.3408341e-05)
(-1.5681514e-05 -0.42234762 -1.3414101e-05)
(2.190378e-05 -0.42235458 -1.340772e-05)
(-2.2048404e-05 -0.42235455 -1.3409537e-05)
(1.5687961e-05 -0.42234741 -1.3416823e-05)
(-2.5391286e-05 -0.42235867 -1.3405486e-05)
(1.0013346e-05 -0.42233765 -1.3416782e-05)
(-2.3773068e-05 -0.42236079 -1.3381036e-05)
(8.4011232e-07 -0.42232687 -1.3409802e-05)
(-1.6964526e-05 -0.42236142 -1.3328476e-05)
(-2.4577044e-05 -0.42231836 -1.3426411e-05)
(6.3036669e-06 -0.42235494 -1.3365052e-05)
(-9.0949204e-05 -0.42096529 -1.3507994e-05)
(-7.4676547e-05 0.4923117 1.0088964e-05)
(2.5615033e-06 0.49408262 1.002998e-05)
(-2.6317922e-05 0.49393078 1.0129041e-05)
(-1.910538e-05 0.49403728 9.8704715e-06)
(-6.7328804e-06 0.49395333 9.9362754e-06)
(-2.5359101e-05 0.49401364 9.9153298e-06)
(2.8971517e-06 0.49396751 9.9365353e-06)
(-2.5055654e-05 0.49399852 9.995702e-06)
(1.1192686e-05 0.49397748 1.0084021e-05)
(-1.9375957e-05 0.49398692 1.0084819e-05)
(1.9095221e-05 0.49398711 1.0088899e-05)
(-1.1659901e-05 0.49397798 1.000061e-05)
(2.4438345e-05 0.49399942 9.9818127e-06)
(-3.3780225e-06 0.49396859 9.9811779e-06)
(2.5317248e-05 0.49401522 9.8742715e-06)
(6.9143435e-06 0.49395497 9.9000294e-06)
(1.941858e-05 0.49403926 9.9227952e-06)
(2.6535594e-05 0.49393236 1.0110177e-05)
(-2.4546908e-06 0.49408404 9.9291375e-06)
(7.466486e-05 0.49231273 1.0018163e-05)
(-6.2249321e-05 -0.58416547 -0.00050589161)
(7.1639547e-05 -0.58624538 -0.00050963999)
(-4.6733457e-05 -0.58609725 -0.00050888916)
(6.1857183e-05 -0.58620835 -0.00050893905)
(-4.0378946e-05 -0.5861173 -0.00050886712)
(5.561678e-05 -0.58618387 -0.00050893745)
(-3.7966957e-05 -0.5861305 -0.00050890534)
(5.0753125e-05 -0.58616632 -0.00050899682)
(-3.988231e-05 -0.58614142 -0.00050903944)
(4.5133583e-05 -0.58615272 -0.00050905875)
(-4.4061001e-05 -0.58615284 -0.00050906039)
(4.1154402e-05 -0.58614167 -0.00050897668)
(-4.9727911e-05 -0.58616682 -0.00050898641)
(3.914463e-05 -0.58613092 -0.00050896638)
(-5.5063121e-05 -0.58618468 -0.0005089157)
(4.0734424e-05 -0.58611797 -0.00050886221)
(-6.1678199e-05 -0.58620945 -0.0005090201)
(4.6622827e-05 -0.58609819 -0.00050887874)
(-7.1556699e-05 -0.58624655 -0.00050957538)
(6.2033983e-05 -0.58416652 -0.00050581594)
(-0.00033323805 0.13216513 0.00061606715)
(2.628033e-05 0.13243168 0.00061822477)
(-4.1004536e-05 0.13250785 0.00061888737)
(5.7432684e-06 0.13249789 0.00061879975)
(-1.1743044e-05 0.13250415 0.00061883379)
(3.2701781e-06 0.1325068 0.00061883948)
(-7.3347704e-06 0.13250451 0.00061883641)
(3.2339895e-06 0.13250771 0.00061884985)
(-6.2272681e-06 0.13250526 0.00061884555)
(4.1871549e-06 0.13250645 0.00061884918)
(-4.3715342e-06 0.13250651 0.00061884787)
(6.2144797e-06 0.13250542 0.00061884393)
(-2.8919776e-06 0.13250802 0.00061885035)
(8.2038325e-06 0.13250495 0.000618842)
(-2.2229267e-06 0.13250733 0.00061884686)
(1.2506741e-05 0.13250474 0.00061883743)
(-5.3440687e-06 0.13249844 0.00061879655)
(4.0992879e-05 0.1325083 0.00061888352)
(-2.644938e-05 0.13243199 0.00061822752)
(0.00033314171 0.13216534 0.00061607545)
(5.6364984e-05 -0.15906814 -5.6042819e-05)
(7.3957463e-06 -0.15966114 -5.6562185e-05)
(-9.4627023e-06 -0.15960169 -5.6457002e-05)
(4.009015e-06 -0.15961165 -5.6493817e-05)
(-7.5135105e-06 -0.15960438 -5.6472844e-05)
(3.4984774e-06 -0.1596098 -5.6482824e-05)
(-6.9560447e-06 -0.15960493 -5.6473823e-05)
(3.6546818e-06 -0.15960894 -5.6474056e-05)
(-6.9040038e-06 -0.15960562 -5.6472128e-05)
(4.8546889e-06 -0.15960691 -5.6473272e-05)
(-4.9300026e-06 -0.15960696 -5.647403e-05)
(7.0106485e-06 -0.15960584 -5.6473578e-05)
(-3.1779238e-06 -0.1596094 -5.6473567e-05)
(7.935679e-06 -0.15960568 -5.6470413e-05)
(-2.3752332e-06 -0.15961101 -5.6479233e-05)
(8.2848386e-06 -0.15960587 -5.6476558e-05)
(-3.6774579e-06 -0.15961329 -5.6506504e-05)
(9.33471e-06 -0.1596034 -5.6472091e-05)
(-7.6805289e-06 -0.15966274 -5.6570274e-05)
(-5.6508329e-05 -0.15906966 -5.6045888e-05)
(5.4210799e-05 0.18135534 -3.5952499e-05)
(4.5804722e-06 0.18185444 -3.6034538e-05)
(-1.8325016e-05 0.18188794 -3.6130238e-05)
(4.5460234e-06 0.18187999 -3.6100554e-05)
(-1.1553007e-05 0.1818863 -3.6133637e-05)
(2.9573922e-06 0.1818907 -3.6129775e-05)
(-6.9832052e-06 0.18188819 -3.613546e-05)
(2.8148661e-06 0.18189316 -3.6134211e-05)
(-5.0094187e-06 0.18189013 -3.6133444e-05)
(3.3560891e-06 0.18189225 -3.6135462e-05)
(-3.720496e-06 0.18189238 -3.613695e-05)
(4.7441239e-06 0.18189032 -3.61351e-05)
(-2.7985667e-06 0.18189338 -3.61331e-05)
(7.4052286e-06 0.18188808 -3.6127783e-05)
(-2.3451048e-06 0.18189017 -3.611798e-05)
(1.2061217e-05 0.18188511 -3.6121973e-05)
(-4.2609364e-06 0.18187822 -3.6092704e-05)
(1.83608e-05 0.18188571 -3.6122892e-05)
(-4.6210395e-06 0.18185199 -3.6023649e-05)
(-5.4253926e-05 0.18135276 -3.5937868e-05)
(2.7978116e-05 -0.21869891 -1.8517251e-05)
(-1.619367e-06 -0.21943229 -1.8731271e-05)
(9.1901274e-06 -0.21939328 -1.8666771e-05)
(2.8178584e-06 -0.21941488 -1.8696618e-05)
(3.4340639e-07 -0.21939743 -1.8671215e-05)
(4.8694868e-06 -0.21940922 -1.8680274e-05)
(-5.3079582e-06 -0.21939959 -1.86718e-05)
(5.1048575e-06 -0.21940658 -1.867232e-05)
(-7.8372991e-06 -0.21940157 -1.8669484e-05)
(6.6183983e-06 -0.21940371 -1.8668593e-05)
(-6.4382383e-06 -0.21940374 -1.8668543e-05)
(8.0691912e-06 -0.21940182 -1.8669252e-05)
(-4.7488565e-06 -0.21940708 -1.8672373e-05)
(5.8778254e-06 -0.2194007 -1.8672703e-05)
(-4.3831066e-06 -0.21941085 -1.8683227e-05)
(-3.5587907e-07 -0.21939975 -1.8679121e-05)
(-3.1774364e-06 -0.21941755 -1.8709264e-05)
(-9.8052997e-06 -0.21939625 -1.8678941e-05)
(1.0647403e-06 -0.21943528 -1.8737287e-05)
(-2.8218011e-05 -0.21870191 -1.8518903e-05)
(1.8566056e-05 0.25124169 9.4060416e-06)
(-4.8301803e-06 0.25202266 9.4791916e-06)
(-8.8396868e-06 0.25201442 9.4563295e-06)
(1.6004981e-06 0.25202925 9.4690444e-06)
(-9.1796389e-06 0.25201768 9.4564211e-06)
(9.4237776e-07 0.2520323 9.4569696e-06)
(-5.2228124e-06 0.25202284 9.4536233e-06)
(8.8614719e-07 0.25203303 9.4538038e-06)
(-2.3046405e-06 0.25202795 9.453638e-06)
(1.1115442e-06 0.25203181 9.4523062e-06)
(-1.7805064e-06 0.25203187 9.4507788e-06)
(1.5820787e-06 0.25202806 9.4521089e-06)
(-1.5923266e-06 0.25203298 9.4551815e-06)
(4.7434336e-06 0.25202241 9.4603474e-06)
(-1.2633655e-06 0.2520313 9.4681896e-06)