/*--------------------------------*- C++ -*----------------------------------*\
  =========                 |
  \\      /  F ield         | OpenFOAM: The Open Source CFD Toolbox
   \\    /   O peration     | Website:  https://openfoam.org
    \\  /    A nd           | Version:  8
     \\/     M anipulation  |
\*---------------------------------------------------------------------------*/
FoamFile
{
    version     2.0;
    format      ascii;
    class       volScalarField;
    location    "1";
    object      N;
}
// * * * * * * * * * * * * * * * * * * * * * * * * * * * * * * * * * * * * * //

dimensions      [0 -3 0 0 0 0 0];

internalField   nonuniform List<scalar> 
200
(
2.7581667e+11
2.5698412e+11
5.5192229e+10
3.9831597e+09
1.148419e+08
1961844.3
23498.579
215.89165
1.7051927
0.11006655
0.10011502
0.10005816
0.10006287
0.10006041
0.10006393
0.10006246
0.10006501
0.10006428
0.10006622
0.10006591
0.10006734
0.10006731
0.10006833
0.10006842
0.10006912
0.10006927
0.10006977
0.10006994
0.1000703
0.10007054
0.10007084
0.10007108
0.10007139
0.10007164
0.10007192
0.10007219
0.10007245
0.1000727
0.10007296
0.1000732
0.10007344
0.10007367
0.10007391
0.10007413
0.10007436
0.10007459
0.10007483
0.10007505
0.10007529
0.10007553
0.10007578
0.10007602
0.10007627
0.10007653
0.10007678
0.10007704
0.1000773
0.10007757
0.10007782
0.10007807
0.10007832
0.10007855
0.10007876
0.10007895
0.1000791
0.10007919
0.10007922
0.10007916
0.10007897
0.10007862
0.10007804
0.10007717
0.1000759
0.10007414
0.10007174
0.10006856
0.10006443
0.10005919
0.10005263
0.10004461
0.10003499
0.10002365
0.10001057
0.099995788
0.099979429
0.099961718
0.099942993
0.099923669
0.099904264
0.099885336
0.099867497
0.09985133
0.099837401
0.099826202
0.099818132
0.099813427
0.099812219
0.099814481
0.099820075
0.099828707
0.099840017
0.099853525
0.099868761
0.099885177
0.099902296
0.09991961
0.099936727
0.099953251
0.099968932
0.099983511
0.099996883
0.10000892
0.10001966
0.10002907
0.10003726
0.10004428
0.10005027
0.10005526
0.10005952
0.10006297
0.10006588
0.10006824
0.10007025
0.10007187
0.10007327
0.10007439
0.1000754
0.1000762
0.10007698
0.10007758
0.10007821
0.10007869
0.10007924
0.10007966
0.10008016
0.10008054
0.10008101
0.10008136
0.1000818
0.10008209
0.10008245
0.10008261
0.10008277
0.10008264
0.10008239
0.10008165
0.10008056
0.10007884
0.10007651
0.10007302
0.10006843
0.10006245
0.10005509
0.10004622
0.10003586
0.1000241
0.10001107
0.099997135
0.099982588
0.099968056
0.099953878
0.099940859
0.099929243
0.099919851
0.099912696
0.099908426
0.099906763
0.099908012
0.099911758
0.099917781
0.099925848
0.099934986
0.099945742
0.099956039
0.099967871
0.099977443
0.099989397
0.099996474
0.10000901
0.10001121
0.10002685
0.1000205
0.10004253
0.10002234
0.10005688
0.10002252
0.10006641
0.10001952
0.10007289
0.10001286
0.1000763
0.10000652
0.10007208
0.10000041
0.10006662
0.099981634
0.10007528
0.099938314
0.1001052
0.099858248
)
;

boundaryField
{
    left
    {
        type            zeroGradient;
    }
    right
    {
        type            zeroGradient;
    }
    walls
    {
        type            zeroGradient;
    }
    centreline
    {
        type            zeroGradient;
    }
    frontAndBack
    {
        type            zeroGradient;
    }
}


// ************************************************************************* //
