/*--------------------------------*- C++ -*----------------------------------*\
  =========                 |
  \\      /  F ield         | OpenFOAM: The Open Source CFD Toolbox
   \\    /   O peration     | Website:  https://openfoam.org
    \\  /    A nd           | Version:  8
     \\/     M anipulation  |
\*---------------------------------------------------------------------------*/
FoamFile
{
    version     2.0;
    format      ascii;
    class       volScalarField;
    location    "1";
    object      p;
}
// * * * * * * * * * * * * * * * * * * * * * * * * * * * * * * * * * * * * * //

dimensions      [1 -1 -2 0 0 0 0];

internalField   nonuniform List<scalar> 
200
(
100992.31
101267.34
101347.78
101374
101393.62
101388.18
101401.81
101392.42
101404.93
101396.41
101407.24
101400.54
101408.97
101404.34
101410.38
101407.59
101411.8
101410.34
101413.36
101412.72
101414.95
101414.79
101416.39
101416.5
101417.6
101417.84
101418.58
101418.87
101419.42
101419.74
101420.18
101420.52
101420.93
101421.29
101421.67
101422.03
101422.4
101422.76
101423.11
101423.45
101423.78
101424.11
101424.43
101424.75
101425.06
101425.38
101425.69
101426.01
101426.33
101426.66
101426.99
101427.32
101427.66
101428.01
101428.36
101428.71
101429.07
101429.43
101429.79
101430.14
101430.49
101430.82
101431.13
101431.4
101431.64
101431.82
101431.93
101431.92
101431.78
101431.44
101430.84
101429.9
101428.5
101426.51
101423.78
101420.1
101415.28
101409.08
101401.25
101391.58
101379.85
101365.9
101349.63
101331.03
101310.22
101287.41
101262.98
101237.42
101211.36
101185.51
101160.66
101137.6
101117.14
101099.97
101086.7
101077.78
101073.48
101073.86
101078.85
101088.14
101101.34
101117.84
101137.06
101158.27
101180.82
101204
101227.24
101249.96
101271.76
101292.24
101311.21
101328.44
101343.94
101357.61
101369.6
101379.92
101388.78
101396.24
101402.58
101407.76
101412.13
101415.68
101418.67
101421.1
101423.17
101424.84
101426.31
101427.5
101428.6
101429.48
101430.35
101431.06
101431.79
101432.4
101433.06
101433.61
101434.24
101434.75
101435.33
101435.78
101436.28
101436.58
101436.86
101436.82
101436.62
101435.83
101434.66
101432.69
101429.91
101425.69
101420.25
101412.79
101403.64
101392.34
101379.19
101363.88
101346.99
101328.45
101309.2
101289.34
101270.11
101251.69
101235.41
101221.33
101210.71
101203.17
101199.83
101199.66
101203.78
101210.23
101220.56
101231.62
101246.09
101259.13
101275.65
101288.03
101305.28
101314.43
101332.92
101335.46
101358.26
101349.26
101380.6
101352.64
101402.45
101353.36
101417.04
101349.73
101427.78
101341.21
101434.47
101330.8
101431.76
101320.21
101427.04
101290.95
101440.99
101227.29
101484.05
101141.34
)
;

boundaryField
{
    left
    {
        type            zeroGradient;
    }
    right
    {
        type            zeroGradient;
    }
    walls
    {
        type            zeroGradient;
    }
    centreline
    {
        type            fixedValue;
        value           uniform 101325;
    }
    frontAndBack
    {
        type            zeroGradient;
    }
}


// ************************************************************************* //
