/*--------------------------------*- C++ -*----------------------------------*\
  =========                 |
  \\      /  F ield         | OpenFOAM: The Open Source CFD Toolbox
   \\    /   O peration     | Website:  https://openfoam.org
    \\  /    A nd           | Version:  8
     \\/     M anipulation  |
\*---------------------------------------------------------------------------*/
FoamFile
{
    version     2.0;
    format      ascii;
    class       volScalarField;
    location    "1";
    object      rho;
}
// * * * * * * * * * * * * * * * * * * * * * * * * * * * * * * * * * * * * * //

dimensions      [1 -3 0 0 0 0 0];

internalField   nonuniform List<scalar> 
200
(
0.90743013
0.88415433
0.61360074
0.59447569
0.59360683
0.5935466
0.59363332
0.59357545
0.59364841
0.5935972
0.59365845
0.59361934
0.59366618
0.59363954
0.59367264
0.59365647
0.59367925
0.59367057
0.59368668
0.59368269
0.59369443
0.59369331
0.59370168
0.59370216
0.59370793
0.59370916
0.59371302
0.59371452
0.59371726
0.59371884
0.59372103
0.5937227
0.59372465
0.5937264
0.59372827
0.59373003
0.59373185
0.59373358
0.5937353
0.59373698
0.59373861
0.5937402
0.59374177
0.59374332
0.59374485
0.59374637
0.59374788
0.59374942
0.59375095
0.59375251
0.59375408
0.5937557
0.59375732
0.59375897
0.59376066
0.59376238
0.5937641
0.59376583
0.59376757
0.59376931
0.593771
0.59377266
0.59377422
0.59377566
0.59377694
0.59377798
0.59377869
0.59377897
0.59377863
0.59377747
0.59377522
0.59377147
0.59376577
0.59375749
0.59374592
0.59373016
0.59370925
0.59368204
0.59364741
0.59360415
0.5935512
0.5934876
0.59341278
0.59332642
0.59322887
0.59312093
0.59300421
0.59288083
0.59275369
0.5926261
0.5925019
0.59238495
0.59227928
0.59218851
0.59211588
0.59206386
0.59203425
0.59202756
0.5920438
0.59208176
0.59213973
0.592215
0.59230475
0.59240543
0.5925139
0.59262652
0.5927405
0.5928527
0.59296118
0.59306359
0.59315906
0.59324608
0.59332479
0.59339435
0.59345578
0.59350863
0.59355431
0.59359265
0.59362558
0.59365222
0.59367503
0.5936932
0.59370893
0.5937212
0.59373219
0.59374047
0.59374837
0.59375404
0.59376005
0.59376406
0.59376894
0.5937719
0.59377619
0.59377855
0.59378254
0.59378453
0.5937884
0.59379012
0.5937939
0.5937953
0.59379876
0.59379951
0.59380207
0.59380134
0.59380175
0.59379771
0.59379388
0.59378459
0.593773
0.5937534
0.59372997
0.59369498
0.59365347
0.59360008
0.59353903
0.59346587
0.59338599
0.59329615
0.59320345
0.59310571
0.59301135
0.59291887
0.59283714
0.59276423
0.59270873
0.59266675
0.59264639
0.59264022
0.59265672
0.59268354
0.59273175
0.59278195
0.59285235
0.59291343
0.59299564
0.59305456
0.59314189
0.59318582
0.59328038
0.59329237
0.59340817
0.5933639
0.59352171
0.59338347
0.5936365
0.59338789
0.59371505
0.59337248
0.59377534
0.59333395
0.59381695
0.5932799
0.59381668
0.59322598
0.59380688
0.5930778
0.5938911
0.59276218
0.59411839
0.59237342
)
;

boundaryField
{
    left
    {
        type            calculated;
        value           nonuniform List<scalar> 
200
(
0.90743013
0.88415433
0.61360074
0.59447569
0.59360683
0.5935466
0.59363332
0.59357545
0.59364841
0.5935972
0.59365845
0.59361934
0.59366618
0.59363954
0.59367264
0.59365647
0.59367925
0.59367057
0.59368668
0.59368269
0.59369443
0.59369331
0.59370168
0.59370216
0.59370793
0.59370916
0.59371302
0.59371452
0.59371726
0.59371884
0.59372103
0.5937227
0.59372465
0.5937264
0.59372827
0.59373003
0.59373185
0.59373358
0.5937353
0.59373698
0.59373861
0.5937402
0.59374177
0.59374332
0.59374485
0.59374637
0.59374788
0.59374942
0.59375095
0.59375251
0.59375408
0.5937557
0.59375732
0.59375897
0.59376066
0.59376238
0.5937641
0.59376583
0.59376757
0.59376931
0.593771
0.59377266
0.59377422
0.59377566
0.59377694
0.59377798
0.59377869
0.59377897
0.59377863
0.59377747
0.59377522
0.59377147
0.59376577
0.59375749
0.59374592
0.59373016
0.59370925
0.59368204
0.59364741
0.59360415
0.5935512
0.5934876
0.59341278
0.59332642
0.59322887
0.59312093
0.59300421
0.59288083
0.59275369
0.5926261
0.5925019
0.59238495
0.59227928
0.59218851
0.59211588
0.59206386
0.59203425
0.59202756
0.5920438
0.59208176
0.59213973
0.592215
0.59230475
0.59240543
0.5925139
0.59262652
0.5927405
0.5928527
0.59296118
0.59306359
0.59315906
0.59324608
0.59332479
0.59339435
0.59345578
0.59350863
0.59355431
0.59359265
0.59362558
0.59365222
0.59367503
0.5936932
0.59370893
0.5937212
0.59373219
0.59374047
0.59374837
0.59375404
0.59376005
0.59376406
0.59376894
0.5937719
0.59377619
0.59377855
0.59378254
0.59378453
0.5937884
0.59379012
0.5937939
0.5937953
0.59379876
0.59379951
0.59380207
0.59380134
0.59380175
0.59379771
0.59379388
0.59378459
0.593773
0.5937534
0.59372997
0.59369498
0.59365347
0.59360008
0.59353903
0.59346587
0.59338599
0.59329615
0.59320345
0.59310571
0.59301135
0.59291887
0.59283714
0.59276423
0.59270873
0.59266675
0.59264639
0.59264022
0.59265672
0.59268354
0.59273175
0.59278195
0.59285235
0.59291343
0.59299564
0.59305456
0.59314189
0.59318582
0.59328038
0.59329237
0.59340817
0.5933639
0.59352171
0.59338347
0.5936365
0.59338789
0.59371505
0.59337248
0.59377534
0.59333395
0.59381695
0.5932799
0.59381668
0.59322598
0.59380688
0.5930778
0.5938911
0.59276218
0.59411839
0.59237342
)
;
    }
    right
    {
        type            calculated;
        value           nonuniform List<scalar> 
200
(
0.90743013
0.88415433
0.61360074
0.59447569
0.59360683
0.5935466
0.59363332
0.59357545
0.59364841
0.5935972
0.59365845
0.59361934
0.59366618
0.59363954
0.59367264
0.59365647
0.59367925
0.59367057
0.59368668
0.59368269
0.59369443
0.59369331
0.59370168
0.59370216
0.59370793
0.59370916
0.59371302
0.59371452
0.59371726
0.59371884
0.59372103
0.5937227
0.59372465
0.5937264
0.59372827
0.59373003
0.59373185
0.59373358
0.5937353
0.59373698
0.59373861
0.5937402
0.59374177
0.59374332
0.59374485
0.59374637
0.59374788
0.59374942
0.59375095
0.59375251
0.59375408
0.5937557
0.59375732
0.59375897
0.59376066
0.59376238
0.5937641
0.59376583
0.59376757
0.59376931
0.593771
0.59377266
0.59377422
0.59377566
0.59377694
0.59377798
0.59377869
0.59377897
0.59377863
0.59377747
0.59377522
0.59377147
0.59376577
0.59375749
0.59374592
0.59373016
0.59370925
0.59368204
0.59364741
0.59360415
0.5935512
0.5934876
0.59341278
0.59332642
0.59322887
0.59312093
0.59300421
0.59288083
0.59275369
0.5926261
0.5925019
0.59238495
0.59227928
0.59218851
0.59211588
0.59206386
0.59203425
0.59202756
0.5920438
0.59208176
0.59213973
0.592215
0.59230475
0.59240543
0.5925139
0.59262652
0.5927405
0.5928527
0.59296118
0.59306359
0.59315906
0.59324608
0.59332479
0.59339435
0.59345578
0.59350863
0.59355431
0.59359265
0.59362558
0.59365222
0.59367503
0.5936932
0.59370893
0.5937212
0.59373219
0.59374047
0.59374837
0.59375404
0.59376005
0.59376406
0.59376894
0.5937719
0.59377619
0.59377855
0.59378254
0.59378453
0.5937884
0.59379012
0.5937939
0.5937953
0.59379876
0.59379951
0.59380207
0.59380134
0.59380175
0.59379771
0.59379388
0.59378459
0.593773
0.5937534
0.59372997
0.59369498
0.59365347
0.59360008
0.59353903
0.59346587
0.59338599
0.59329615
0.59320345
0.59310571
0.59301135
0.59291887
0.59283714
0.59276423
0.59270873
0.59266675
0.59264639
0.59264022
0.59265672
0.59268354
0.59273175
0.59278195
0.59285235
0.59291343
0.59299564
0.59305456
0.59314189
0.59318582
0.59328038
0.59329237
0.59340817
0.5933639
0.59352171
0.59338347
0.5936365
0.59338789
0.59371505
0.59337248
0.59377534
0.59333395
0.59381695
0.5932799
0.59381668
0.59322598
0.59380688
0.5930778
0.5938911
0.59276218
0.59411839
0.59237342
)
;
    }
    walls
    {
        type            calculated;
        value           uniform 0.59359177;
    }
    centreline
    {
        type            calculated;
        value           uniform 0.59325508;
    }
    frontAndBack
    {
        type            calculated;
        value           nonuniform List<scalar> 
400
(
0.90743013
0.88415433
0.61360074
0.59447569
0.59360683
0.5935466
0.59363332
0.59357545
0.59364841
0.5935972
0.59365845
0.59361934
0.59366618
0.59363954
0.59367264
0.59365647
0.59367925
0.59367057
0.59368668
0.59368269
0.59369443
0.59369331
0.59370168
0.59370216
0.59370793
0.59370916
0.59371302
0.59371452
0.59371726
0.59371884
0.59372103
0.5937227
0.59372465
0.5937264
0.59372827
0.59373003
0.59373185
0.59373358
0.5937353
0.59373698
0.59373861
0.5937402
0.59374177
0.59374332
0.59374485
0.59374637
0.59374788
0.59374942
0.59375095
0.59375251
0.59375408
0.5937557
0.59375732
0.59375897
0.59376066
0.59376238
0.5937641
0.59376583
0.59376757
0.59376931
0.593771
0.59377266
0.59377422
0.59377566
0.59377694
0.59377798
0.59377869
0.59377897
0.59377863
0.59377747
0.59377522
0.59377147
0.59376577
0.59375749
0.59374592
0.59373016
0.59370925
0.59368204
0.59364741
0.59360415
0.5935512
0.5934876
0.59341278
0.59332642
0.59322887
0.59312093
0.59300421
0.59288083
0.59275369
0.5926261
0.5925019
0.59238495
0.59227928
0.59218851
0.59211588
0.59206386
0.59203425
0.59202756
0.5920438
0.59208176
0.59213973
0.592215
0.59230475
0.59240543
0.5925139
0.59262652
0.5927405
0.5928527
0.59296118
0.59306359
0.59315906
0.59324608
0.59332479
0.59339435
0.59345578
0.59350863
0.59355431
0.59359265
0.59362558
0.59365222
0.59367503
0.5936932
0.59370893
0.5937212
0.59373219
0.59374047
0.59374837
0.59375404
0.59376005
0.59376406
0.59376894
0.5937719
0.59377619
0.59377855
0.59378254
0.59378453
0.5937884
0.59379012
0.5937939
0.5937953
0.59379876
0.59379951
0.59380207
0.59380134
0.59380175
0.59379771
0.59379388
0.59378459
0.593773
0.5937534
0.59372997
0.59369498
0.59365347
0.59360008
0.59353903
0.59346587
0.59338599
0.59329615
0.59320345
0.59310571
0.59301135
0.59291887
0.59283714
0.59276423
0.59270873
0.59266675
0.59264639
0.59264022
0.59265672
0.59268354
0.59273175
0.59278195
0.59285235
0.59291343
0.59299564
0.59305456
0.59314189
0.59318582
0.59328038
0.59329237
0.59340817
0.5933639
0.59352171
0.59338347
0.5936365
0.59338789
0.59371505
0.59337248
0.59377534
0.59333395
0.59381695
0.5932799
0.59381668
0.59322598
0.59380688
0.5930778
0.5938911
0.59276218
0.59411839
0.59237342
0.90743013
0.88415433
0.61360074
0.59447569
0.59360683
0.5935466
0.59363332
0.59357545
0.59364841
0.5935972
0.59365845
0.59361934
0.59366618
0.59363954
0.59367264
0.59365647
0.59367925
0.59367057
0.59368668
0.59368269
0.59369443
0.59369331
0.59370168
0.59370216
0.59370793
0.59370916
0.59371302
0.59371452
0.59371726
0.59371884
0.59372103
0.5937227
0.59372465
0.5937264
0.59372827
0.59373003
0.59373185
0.59373358
0.5937353
0.59373698
0.59373861
0.5937402
0.59374177
0.59374332
0.59374485
0.59374637
0.59374788
0.59374942
0.59375095
0.59375251
0.59375408
0.5937557
0.59375732
0.59375897
0.59376066
0.59376238
0.5937641
0.59376583
0.59376757
0.59376931
0.593771
0.59377266
0.59377422
0.59377566
0.59377694
0.59377798
0.59377869
0.59377897
0.59377863
0.59377747
0.59377522
0.59377147
0.59376577
0.59375749
0.59374592
0.59373016
0.59370925
0.59368204
0.59364741
0.59360415
0.5935512
0.5934876
0.59341278
0.59332642
0.59322887
0.59312093
0.59300421
0.59288083
0.59275369
0.5926261
0.5925019
0.59238495
0.59227928
0.59218851
0.59211588
0.59206386
0.59203425
0.59202756
0.5920438
0.59208176
0.59213973
0.592215
0.59230475
0.59240543
0.5925139
0.59262652
0.5927405
0.5928527
0.59296118
0.59306359
0.59315906
0.59324608
0.59332479
0.59339435
0.59345578
0.59350863
0.59355431
0.59359265
0.59362558
0.59365222
0.59367503
0.5936932
0.59370893
0.5937212
0.59373219
0.59374047
0.59374837
0.59375404
0.59376005
0.59376406
0.59376894
0.5937719
0.59377619
0.59377855
0.59378254
0.59378453
0.5937884
0.59379012
0.5937939
0.5937953
0.59379876
0.59379951
0.59380207
0.59380134
0.59380175
0.59379771
0.59379388
0.59378459
0.593773
0.5937534
0.59372997
0.59369498
0.59365347
0.59360008
0.59353903
0.59346587
0.59338599
0.59329615
0.59320345
0.59310571
0.59301135
0.59291887
0.59283714
0.59276423
0.59270873
0.59266675
0.59264639
0.59264022
0.59265672
0.59268354
0.59273175
0.59278195
0.59285235
0.59291343
0.59299564
0.59305456
0.59314189
0.59318582
0.59328038
0.59329237
0.59340817
0.5933639
0.59352171
0.59338347
0.5936365
0.59338789
0.59371505
0.59337248
0.59377534
0.59333395
0.59381695
0.5932799
0.59381668
0.59322598
0.59380688
0.5930778
0.5938911
0.59276218
0.59411839
0.59237342
)
;
    }
}


// ************************************************************************* //
