/*--------------------------------*- C++ -*----------------------------------*\
  =========                 |
  \\      /  F ield         | OpenFOAM: The Open Source CFD Toolbox
   \\    /   O peration     | Website:  https://openfoam.org
    \\  /    A nd           | Version:  8
     \\/     M anipulation  |
\*---------------------------------------------------------------------------*/
FoamFile
{
    version     2.0;
    format      ascii;
    class       volScalarField;
    location    "1";
    object      T;
}
// * * * * * * * * * * * * * * * * * * * * * * * * * * * * * * * * * * * * * //

dimensions      [0 0 0 1 0 0 0];

internalField   nonuniform List<scalar> 
200
(
246.81813
253.83648
360.93083
372.40285
373.02166
373.04462
373.04334
373.04484
373.04628
373.04658
373.04884
373.04843
373.05068
373.0502
373.05203
373.05182
373.05326
373.05327
373.05447
373.05461
373.05559
373.05577
373.05654
373.05674
373.05729
373.05748
373.0579
373.05808
373.05841
373.05862
373.0589
373.05912
373.05939
373.05962
373.05988
373.06012
373.06035
373.06059
373.06082
373.06103
373.06125
373.06146
373.06167
373.06187
373.06208
373.06229
373.0625
373.06271
373.06293
373.06315
373.06337
373.06359
373.06383
373.06406
373.0643
373.06453
373.06477
373.06502
373.06525
373.06548
373.06571
373.06591
373.06611
373.06628
373.06642
373.06651
373.06655
373.0665
373.06635
373.06606
373.06557
373.06483
373.06375
373.06225
373.06021
373.05749
373.05397
373.04948
373.04388
373.03702
373.02878
373.01908
373.0079
372.99525
372.98126
372.96611
372.9501
372.93358
372.91699
372.90081
372.88557
372.87176
372.85986
372.8503
372.84342
372.83943
372.83841
372.84038
372.84519
372.85261
372.86231
372.87391
372.88697
372.90106
372.91572
372.93059
372.94524
372.95943
372.97285
372.98538
372.99681
373.00717
373.01633
373.02445
373.03141
373.03749
373.04254
373.0469
373.05045
373.05351
373.05588
373.05803
373.05959
373.06114
373.06214
373.0633
373.06393
373.06486
373.06522
373.06604
373.06622
373.06702
373.06706
373.06784
373.0678
373.06861
373.06852
373.06933
373.06915
373.06996
373.06972
373.07042
373.07
373.07048
373.06971
373.06963
373.06818
373.06728
373.0648
373.06231
373.05795
373.0533
373.04661
373.03945
373.03024
373.02052
373.00907
372.99749
372.98476
372.97262
372.96026
372.94933
372.93922
372.93135
372.92508
372.92158
372.92002
372.92126
372.92428
372.92962
372.93621
372.94449
372.95311
372.96257
372.97193
372.98093
372.9903
372.99725
373.00687
373.00991
373.02178
373.01814
373.03434
373.02001
373.04582
373.02125
373.05225
373.0193
373.05586
373.01429
373.05625
373.0095
373.04899
373.00445
373.03949
372.9882
373.03948
372.94928
373.05382
372.87799
)
;

boundaryField
{
    left
    {
        type            zeroGradient;
    }
    right
    {
        type            zeroGradient;
    }
    walls
    {
        type            fixedValue;
        value           uniform 371;
    }
    centreline
    {
        type            fixedValue;
        value           uniform 373;
    }
    frontAndBack
    {
        type            zeroGradient;
    }
}


// ************************************************************************* //
