/*--------------------------------*- C++ -*----------------------------------*\
  =========                 |
  \\      /  F ield         | OpenFOAM: The Open Source CFD Toolbox
   \\    /   O peration     | Website:  https://openfoam.org
    \\  /    A nd           | Version:  8
     \\/     M anipulation  |
\*---------------------------------------------------------------------------*/
FoamFile
{
    version     2.0;
    format      ascii;
    class       volVectorField;
    location    "1";
    object      U;
}
// * * * * * * * * * * * * * * * * * * * * * * * * * * * * * * * * * * * * * //

dimensions      [0 1 -1 0 0 0 0];

internalField   nonuniform List<vector> 
200
(
(0 -3.6833438 0)
(0 0.6075338 0)
(0 -2.4709717 0)
(0 2.1712621 0)
(0 -2.0083288 0)
(0 1.9921035 0)
(0 -1.6973288 0)
(0 1.7148384 0)
(0 -1.3818102 0)
(0 1.4222667 0)
(0 -1.0733694 0)
(0 1.1446701 0)
(0 -0.79270503 0)
(0 0.90048742 0)
(0 -0.5547388 0)
(0 0.69957497 0)
(0 -0.36293062 0)
(0 0.54117049 0)
(0 -0.21138207 0)
(0 0.41806381 0)
(0 -0.092675025 0)
(0 0.32400739 0)
(0 -0.0027808879 0)
(0 0.25554977 0)
(0 0.060777126 0)
(0 0.20957432 0)
(0 0.10184191 0)
(0 0.18150829 0)
(0 0.12624071 0)
(0 0.16608318 0)
(0 0.13964385 0)
(0 0.15867628 0)
(0 0.14673281 0)
(0 0.15569768 0)
(0 0.15057498 0)
(0 0.15485149 0)
(0 0.15285168 0)
(0 0.15499539 0)
(0 0.15425044 0)
(0 0.15553814 0)
(0 0.15526931 0)
(0 0.15608272 0)
(0 0.15612371 0)
(0 0.15664347 0)
(0 0.15680465 0)
(0 0.15724984 0)
(0 0.15745121 0)
(0 0.15782622 0)
(0 0.15814836 0)
(0 0.15848746 0)
(0 0.15880368 0)
(0 0.15928073 0)
(0 0.15958377 0)
(0 0.1600348 0)
(0 0.16051004 0)
(0 0.16090067 0)
(0 0.16142277 0)
(0 0.1618297 0)
(0 0.1623784 0)
(0 0.16274076 0)
(0 0.16322569 0)
(0 0.16354419 0)
(0 0.16391941 0)
(0 0.16400844 0)
(0 0.16415996 0)
(0 0.16391199 0)
(0 0.16363813 0)
(0 0.16267983 0)
(0 0.16160331 0)
(0 0.15948616 0)
(0 0.15691061 0)
(0 0.1525947 0)
(0 0.147431 0)
(0 0.13934547 0)
(0 0.12976828 0)
(0 0.11560327 0)
(0 0.098999221 0)
(0 0.07574819 0)
(0 0.048895135 0)
(0 0.013210681 0)
(0 -0.027112742 0)
(0 -0.078365238 0)
(0 -0.13433027 0)
(0 -0.20274029 0)
(0 -0.27450437 0)
(0 -0.35871597 0)
(0 -0.44312479 0)
(0 -0.53845061 0)
(0 -0.62842654 0)
(0 -0.72652293 0)
(0 -0.81195286 0)
(0 -0.90213074 0)
(0 -0.97165251 0)
(0 -1.0428664 0)
(0 -1.0861285 0)
(0 -1.1302173 0)
(0 -1.1402331 0)
(0 -1.1534016 0)
(0 -1.1284825 0)
(0 -1.1119008 0)
(0 -1.0554027 0)
(0 -1.0150758 0)
(0 -0.93419619 0)
(0 -0.87921046 0)
(0 -0.78311046 0)
(0 -0.72350728 0)
(0 -0.62133769 0)
(0 -0.56594047 0)
(0 -0.46504754 0)
(0 -0.4208109 0)
(0 -0.32577847 0)
(0 -0.29703571 0)
(0 -0.20983205 0)
(0 -0.19818387 0)
(0 -0.11857244 0)
(0 -0.12381258 0)
(0 -0.050072421 0)
(0 -0.07088132 0)
(0 -0.00068376143 0)
(0 -0.035188315 0)
(0 0.034101104 0)
(0 -0.012596834 0)
(0 0.05835771 0)
(0 0.0009189218 0)
(0 0.07563526 0)
(0 0.0083466084 0)
(0 0.088417519 0)
(0 0.01184899 0)
(0 0.098471273 0)
(0 0.012838856 0)
(0 0.10702697 0)
(0 0.012303966 0)
(0 0.11476771 0)
(0 0.010869687 0)
(0 0.12212224 0)
(0 0.00886628 0)
(0 0.12934666 0)
(0 0.0062300242 0)
(0 0.13657679 0)
(0 0.0027549817 0)
(0 0.14337945 0)
(0 -0.0020758419 0)
(0 0.14876472 0)
(0 -0.0095324221 0)
(0 0.15104747 0)
(0 -0.022196255 0)
(0 0.146931 0)
(0 -0.044730494 0)
(0 0.13108435 0)
(0 -0.080388029 0)
(0 0.099048946 0)
(0 -0.13942175 0)
(0 0.041738936 0)
(0 -0.22659126 0)
(0 -0.043781112 0)
(0 -0.34380136 0)
(0 -0.15641379 0)
(0 -0.48728192 0)
(0 -0.28794173 0)
(0 -0.64529704 0)
(0 -0.42224146 0)
(0 -0.79927111 0)
(0 -0.53780954 0)
(0 -0.92802978 0)
(0 -0.61264405 0)
(0 -1.0140185 0)
(0 -0.62949343 0)
(0 -1.0494022 0)
(0 -0.57940057 0)
(0 -1.0392947 0)
(0 -0.46249511 0)
(0 -1.0005889 0)
(0 -0.28656972 0)
(0 -0.95752335 0)
(0 -0.063533846 0)
(0 -0.93706481 0)
(0 0.19593859 0)
(0 -0.96653375 0)
(0 0.48752424 0)
(0 -1.0699529 0)
(0 0.808263 0)
(0 -1.248502 0)
(0 1.1439506 0)
(0 -1.4902212 0)
(0 1.4947329 0)
(0 -1.8491651 0)
(0 1.9339023 0)
(0 -2.3577055 0)
(0 2.4612548 0)
(0 -3.0164827 0)
(0 3.0680232 0)
(0 -3.8295181 0)
(0 3.8182495 0)
(0 -4.8592101 0)
(0 4.7691028 0)
(0 -6.1715567 0)
(0 6.0700282 0)
(0 -7.9580143 0)
(0 7.9539017 0)
(0 -10.295254 0)
)
;

boundaryField
{
    left
    {
        type            noSlip;
    }
    right
    {
        type            noSlip;
    }
    walls
    {
        type            noSlip;
    }
    centreline
    {
        type            noSlip;
    }
    frontAndBack
    {
        type            noSlip;
    }
}


// ************************************************************************* //
