/*--------------------------------*- C++ -*----------------------------------*\
  =========                 |
  \\      /  F ield         | OpenFOAM: The Open Source CFD Toolbox
   \\    /   O peration     | Website:  https://openfoam.org
    \\  /    A nd           | Version:  8
     \\/     M anipulation  |
\*---------------------------------------------------------------------------*/
FoamFile
{
    version     2.0;
    format      ascii;
    class       surfaceScalarField;
    location    "0.6";
    object      phi;
}
// * * * * * * * * * * * * * * * * * * * * * * * * * * * * * * * * * * * * * //

dimensions      [1 0 -1 0 0 0 0];

internalField   nonuniform List<scalar> 
2080
(
-1.1316909e-05
-0.00031745995
-3.1362191e-05
-5.1820237e-07
-0.00033934579
-3.1261417e-05
-8.9762174e-07
-0.00032817419
-3.1416776e-05
-1.9173759e-07
-0.00032931154
-3.139517e-05
-2.2847747e-07
-0.00032852706
-3.1407526e-05
-1.0199783e-07
-0.00032865335
-3.1406486e-05
-6.4763951e-08
-0.00032854524
-3.1407369e-05
-2.1141053e-08
-0.00032856099
-3.1407889e-05
-8.7558801e-09
-0.00032856088
-3.1407511e-05
-1.502002e-13
-0.00032856101
-3.1407756e-05
8.7556392e-09
-0.00032856101
-3.1407756e-05
2.1140874e-08
-0.00032856088
-3.1407511e-05
6.4763893e-08
-0.00032856099
-3.1407889e-05
1.0199784e-07
-0.00032854524
-3.1407369e-05
2.284775e-07
-0.00032865335
-3.1406486e-05
1.9173754e-07
-0.00032852706
-3.1407526e-05
8.9762162e-07
-0.00032931154
-3.139517e-05
5.1820214e-07
-0.00032817419
-3.1416776e-05
1.1316909e-05
-0.00033934579
-3.1261417e-05
-0.00031745995
-3.1362192e-05
3.596583e-06
-0.00037767233
1.628799e-05
-1.1812591e-07
-0.00039224977
1.6219309e-05
-4.6563468e-07
-0.00038450718
1.6304934e-05
-1.62614e-07
-0.00038631614
1.6295482e-05
-1.9528091e-07
-0.00038516583
1.6304251e-05
-9.2716574e-08
-0.00038537245
1.6303606e-05
-3.8248511e-08
-0.00038518323
1.6304403e-05
-7.7071145e-11
-0.00038519147
1.6304717e-05
7.2249953e-09
-0.00038520249
1.6304593e-05
-1.5137648e-13
-0.00038520458
1.6304723e-05
-7.2253149e-09
-0.00038520458
1.6304723e-05
7.6925121e-11
-0.00038520249
1.6304593e-05
3.8248481e-08
-0.00038519147
1.6304717e-05
9.2716615e-08
-0.00038518323
1.6304403e-05
1.9528095e-07
-0.00038537245
1.6303606e-05
1.6261397e-07
-0.00038516583
1.6304251e-05
4.6563454e-07
-0.00038631614
1.6295482e-05
1.181256e-07
-0.00038450718
1.6304934e-05
-3.5965833e-06
-0.00039224977
1.6219309e-05
-0.00037767232
1.628799e-05
1.9452853e-06
-0.00039199769
6.3087715e-06
-6.0886336e-07
-0.00040191408
6.3618919e-06
-5.3545037e-07
-0.00039684026
6.3521182e-06
-2.9428333e-07
-0.00039887182
6.3523952e-06
-3.172987e-07
-0.00039743099
6.3546285e-06
-1.594275e-07
-0.00039782115
6.3544324e-06
-1.4458912e-07
-0.00039749695
6.3548481e-06
-7.3292823e-08
-0.00039756862
6.3549294e-06
-4.692086e-08
-0.00039754479
6.3547331e-06
-2.1016139e-13
-0.00039755504
6.354808e-06
4.6920503e-08
-0.00039755504
6.354808e-06
7.3292593e-08
-0.00039754478
6.3547331e-06
1.4458905e-07
-0.00039756862
6.3549294e-06
1.5942754e-07
-0.00039749695
6.3548482e-06
3.1729875e-07
-0.00039782114
6.3544324e-06
2.942833e-07
-0.00039743099
6.3546285e-06
5.3545022e-07
-0.00039887182
6.3523952e-06
6.0886307e-07
-0.00039684025
6.3521182e-06
-1.9452856e-06
-0.00040191407
6.3618919e-06
-0.00039199769
6.3087715e-06
2.0347798e-06
-0.00041957124
3.388791e-06
2.5149375e-07
-0.00042595886
3.385016e-06
4.3131296e-07
-0.00042279165
3.3945021e-06
1.1881688e-08
-0.0004240947
3.3951105e-06
1.6363645e-07
-0.0004232601
3.3937898e-06
4.2885323e-09
-0.00042334181
3.3939371e-06
1.1385474e-07
-0.00042323158
3.3937093e-06
5.0708305e-08
-0.00042314122
3.3936381e-06
6.4137572e-08
-0.00042320835
3.3937882e-06
-1.6687764e-14
-0.00042317768
3.3937697e-06
-6.4137565e-08
-0.00042317768
3.3937697e-06
-5.0708215e-08
-0.00042320835
3.3937882e-06
-1.1385451e-07
-0.00042314122
3.3936381e-06
-4.2883121e-09
-0.00042323158
3.3937093e-06
-1.6363616e-07
-0.00042334181
3.3939371e-06
-1.1881571e-08
-0.0004232601
3.3937898e-06
-4.3131292e-07
-0.0004240947
3.3951105e-06
-2.5149379e-07
-0.00042279165
3.3945021e-06
-2.0347799e-06
-0.00042595886
3.385016e-06
-0.00041957123
3.388791e-06
3.9745714e-07
-0.00035663079
-8.2550491e-07
-8.2744096e-07
-0.00036126045
-8.3189292e-07
-4.9576011e-07
-0.00035962692
-8.3046178e-07
-4.5772652e-07
-0.00036073397
-8.3322225e-07
-4.4049441e-07
-0.00035988248
-8.3100924e-07
-2.760503e-07
-0.00036023949
-8.3179361e-07
-3.2485822e-07
-0.00035997298
-8.3122823e-07
-2.1325036e-07
-0.00036001753
-8.3112386e-07
-1.5617614e-07
-0.00035995959
-8.3113389e-07
-2.3057504e-13
-0.00035993832
-8.3097978e-07
1.5617575e-07
-0.00035993832
-8.3097978e-07
2.132502e-07
-0.00035995959
-8.3113389e-07
3.248583e-07
-0.00036001753
-8.3112387e-07
2.7605055e-07
-0.00035997298
-8.3122823e-07
4.4049469e-07
-0.00036023948
-8.3179362e-07
4.5772668e-07
-0.00035988248
-8.3100923e-07
4.9576011e-07
-0.00036073397
-8.3322225e-07
8.2744084e-07
-0.00035962691
-8.3046179e-07
-3.9745732e-07
-0.00036126045
-8.3189291e-07
-0.00035663078
-8.2550488e-07
1.7843557e-06
-0.0003056993
2.2040682e-06
7.0281209e-07
-0.00030780419
2.2067439e-06
1.158943e-06
-0.00030766418
2.2102691e-06
3.4256877e-07
-0.0003071397
2.2086622e-06
7.7285751e-07
-0.00030752383
2.2089716e-06
2.8429183e-07
-0.00030702961
2.208353e-06
5.1012422e-07
-0.00030745471
2.209001e-06
2.3442238e-07
-0.0003071305
2.2083303e-06
2.1569594e-07
-0.00030737171
2.2088491e-06
2.8130649e-13
-0.00030725658
2.208542e-06
-2.1569536e-07
-0.00030725658
2.2085421e-06
-2.3442178e-07
-0.00030737171
2.2088491e-06
-5.1012366e-07
-0.0003071305
2.2083303e-06
-2.8429126e-07
-0.00030745471
2.209001e-06
-7.7285707e-07
-0.00030702961
2.208353e-06
-3.4256843e-07
-0.00030752383
2.2089716e-06
-1.1589428e-06
-0.0003071397
2.2086622e-06
-7.0281195e-07
-0.00030766418
2.2102691e-06
-1.7843557e-06
-0.00030780419
2.2067439e-06
-0.0003056993
2.2040682e-06
-1.3043928e-06
-0.00022329689
-2.4806961e-06
-1.0941213e-06
-0.00022667158
-2.5008703e-06
-1.0620442e-06
-0.00022646097
-2.4995797e-06
-8.0096832e-07
-0.00022634532
-2.4993468e-06
-9.5142784e-07
-0.00022639459
-2.4997452e-06
-6.2201558e-07
-0.00022631556
-2.4989959e-06
-7.1109421e-07
-0.00022635406
-2.4998532e-06
-4.069654e-07
-0.00022631885
-2.4991836e-06
-2.7957996e-07
-0.00022634196
-2.4997445e-06
9.6948436e-14
-0.00022633718
-2.4994892e-06
2.7958027e-07
-0.00022633718
-2.4994892e-06
4.06966e-07
-0.00022634196
-2.4997445e-06
7.1109512e-07
-0.00022631885
-2.4991836e-06
6.220167e-07
-0.00022635406
-2.4998532e-06
9.5142894e-07
-0.00022631556
-2.4989958e-06
8.0096915e-07
-0.0002263946
-2.4997452e-06
1.0620447e-06
-0.00022634532
-2.4993468e-06
1.0941215e-06
-0.00022646097
-2.4995797e-06
1.3043928e-06
-0.00022667158
-2.5008703e-06
-0.00022329689
-2.4806961e-06
5.5899373e-06
-6.6506523e-05
6.2430411e-06
1.4103483e-06
-5.8515538e-05
6.2428865e-06
3.1997381e-06
-6.5358731e-05
6.2626504e-06
1.045392e-06
-6.1201011e-05
6.2502496e-06
1.6954129e-06
-6.4084276e-05
6.2544501e-06
7.5714613e-07
-6.2318622e-05
6.2515777e-06
9.6393309e-07
-6.3529645e-05
6.2536461e-06
4.4417324e-07
-6.2823554e-05
6.2527096e-06
3.306417e-07
-6.3272151e-05
6.2532803e-06
-9.3064874e-14
-6.3084617e-05
6.2530835e-06
-3.3064189e-07
-6.3084617e-05
6.2530835e-06
-4.4417347e-07
-6.3272151e-05
6.2532803e-06
-9.6393336e-07
-6.2823555e-05
6.2527096e-06
-7.5714648e-07
-6.3529646e-05
6.2536461e-06
-1.6954133e-06
-6.2318623e-05
6.2515778e-06
-1.0453924e-06
-6.4084277e-05
6.25445e-06
-3.1997384e-06
-6.1201012e-05
6.2502496e-06
-1.4103486e-06
-6.5358732e-05
6.2626505e-06
-5.5899374e-06
-5.851554e-05
6.2428864e-06
-6.6506524e-05
6.2430411e-06
-5.3204324e-06
-0.00034925834
-6.8494961e-06
-2.0090702e-06
-0.00035129332
-6.8487586e-06
-3.5727253e-06
-0.00035236562
-6.8759763e-06
-1.5679108e-06
-0.00035187999
-6.8623058e-06
-2.2775639e-06
-0.0003521278
-6.8675451e-06
-1.2568292e-06
-0.0003520532
-6.8647513e-06
-1.430837e-06
-0.00035203699
-6.8665391e-06
-7.3556548e-07
-0.00035207417
-6.8660706e-06
-4.9613527e-07
-0.00035202638
-6.86624e-06
-5.0798383e-13
-0.00035205119
-6.8662475e-06
4.9613432e-07
-0.00035205119
-6.8662474e-06
7.3556464e-07
-0.00035202638
-6.86624e-06
1.4308364e-06
-0.00035207417
-6.8660706e-06
1.2568287e-06
-0.00035203699
-6.8665391e-06
2.2775635e-06
-0.0003520532
-6.8647513e-06
1.5679103e-06
-0.0003521278
-6.8675451e-06
3.5727248e-06
-0.00035187999
-6.8623058e-06
2.0090697e-06
-0.00035236562
-6.8759763e-06
5.3204321e-06
-0.00035129332
-6.8487586e-06
-0.00034925834
-6.849496e-06
2.7981947e-06
6.5439504e-06
2.8657265e-06
7.2057273e-06
2.2973408e-06
6.8243816e-06
2.1420655e-06
6.9060385e-06
1.8162926e-06
6.8770749e-06
1.455853e-06
6.8878613e-06
1.1161734e-06
6.8811559e-06
7.280289e-07
6.8854006e-06
3.5132501e-07
6.8826159e-06
5.7029264e-14
6.8839365e-06
-3.513249e-07
6.8839366e-06
-7.2802876e-07
6.8826159e-06
-1.1161732e-06
6.8854006e-06
-1.4558528e-06
6.8811559e-06
-1.8162924e-06
6.8878613e-06
-2.1420653e-06
6.877075e-06
-2.2973407e-06
6.9060385e-06
-2.8657264e-06
6.8243815e-06
-2.7981946e-06
7.2057273e-06
6.5439504e-06
-1.1511488e-05
-0.00037909345
-8.1782602e-13
-5.1469509e-07
-0.00040116253
-8.7281059e-13
-9.2046843e-07
-0.00039007886
-8.4231655e-13
-1.9386344e-07
-0.00039121994
-8.5312836e-13
-2.3192384e-07
-0.0003904381
-8.4695277e-13
-1.0309647e-07
-0.00039056584
-8.4768333e-13
-6.5715253e-08
-0.00039045727
-8.6402731e-13
-2.1589809e-08
-0.00039047444
-8.6673928e-13
-8.9799799e-09
-0.00039047336
-8.6240765e-13
-1.5033564e-13
-0.00039047399
-8.6050518e-13
8.9797419e-09
-0.00039047399
-8.6339355e-13
2.1589632e-08
-0.00039047336
-8.6023601e-13
6.5715195e-08
-0.00039047444
-8.2975722e-13
1.0309649e-07
-0.00039045727
-8.6367969e-13
2.3192385e-07
-0.00039056584
-8.2401161e-13
1.9386338e-07
-0.0003904381
-8.7520304e-13
9.2046831e-07
-0.00039121994
-8.6910867e-13
5.1469485e-07
-0.00039007886
-8.6786703e-13
1.1511488e-05
-0.00040116253
-8.7941594e-13
-0.00037909345
-9.1704521e-13
3.6137866e-06
-0.00040688895
-1.1488108e-12
-1.1302282e-07
-0.00042176265
-1.2403704e-12
-4.6011694e-07
-0.00041394726
-1.2293738e-12
-1.6318494e-07
-0.0004157722
-1.2418594e-12
-1.9598015e-07
-0.00041461308
-1.2334211e-12
-9.3383584e-08
-0.00041482259
-1.2413012e-12
-3.8718058e-08
-0.00041463153
-1.2434426e-12
-6.0650626e-10
-0.00041464041
-1.2402762e-12
7.0224284e-09
-0.0004146508
-1.2389937e-12
-1.49807e-13
-0.00041465305
-1.2287567e-12
-7.0227492e-09
-0.00041465305
-1.2327558e-12
6.0625259e-10
-0.0004146508
-1.2328077e-12
3.8718026e-08
-0.00041464041
-1.2468939e-12
9.3383627e-08
-0.00041463153
-1.233798e-12
1.9598019e-07
-0.00041482259
-1.2390309e-12
1.6318491e-07
-0.00041461308
-1.2342019e-12
4.601168e-07
-0.0004157722
-1.2316663e-12
1.130225e-07
-0.00041394726
-1.2175707e-12
-3.613787e-06
-0.00042176265
-1.215378e-12
-0.00040688895
-1.0319909e-12
1.9695373e-06
-0.00040849377
-9.8463448e-13
-6.1520514e-07
-0.0004185504
-9.8693793e-13
-5.4326999e-07
-0.00041344927
-9.8760003e-13
-2.9792467e-07
-0.00041550298
-9.8598083e-13
-3.2102533e-07
-0.0004140442
-9.9240896e-13
-1.6150806e-07
-0.00041443972
-9.8250099e-13
-1.4640445e-07
-0.00041411142
-9.8434035e-13
-7.4245117e-08
-0.00041418413
-9.7647584e-13
-4.7457273e-08
-0.00041415949
-9.807283e-13
-2.0727485e-13
-0.00041416982
-9.851175e-13
4.7456916e-08
-0.00041416982
-9.8759041e-13
7.4244884e-08
-0.00041415949
-9.7683094e-13
1.4640438e-07
-0.00041418413
-9.9252609e-13
1.615081e-07
-0.00041411141
-9.8939296e-13
3.2102538e-07
-0.00041443972
-9.9205929e-13
2.9792464e-07
-0.0004140442
-9.8583376e-13
5.4326984e-07
-0.00041550298
-9.8936207e-13
6.1520486e-07
-0.00041344927
-9.878914e-13
-1.9695376e-06
-0.0004185504
-9.901202e-13
-0.00040849377
-9.3932644e-13
2.0533452e-06
-0.00042944212
-3.3120451e-13
2.5457601e-07
-0.00043594095
-3.5553991e-13
4.3819359e-07
-0.00043274881
-3.5495903e-13
1.2550797e-08
-0.0004340619
-3.6640569e-13
1.6557485e-07
-0.00043322011
-3.7628226e-13
4.5664471e-09
-0.00043330353
-3.4842085e-13
1.146887e-07
-0.00043319194
-3.5560562e-13
5.0869177e-08
-0.00043310146
-3.5431751e-13
6.437481e-08
-0.00043316829
-3.5138742e-13
-1.7567383e-14
-0.00043313749
-3.5303019e-13
-6.4374803e-08
-0.00043313749
-3.5817322e-13
-5.0869092e-08
-0.00043316829
-3.529675e-13
-1.1468846e-07
-0.00043310146
-3.4661247e-13
-4.5662275e-09
-0.00043319194
-3.4880338e-13
-1.6557456e-07
-0.00043330353
-3.5365551e-13
-1.2550662e-08
-0.00043322011
-3.6210362e-13
-4.3819354e-07
-0.0004340619
-3.5058999e-13
-2.5457607e-07
-0.00043274881
-3.4283658e-13
-2.0533453e-06
-0.00043594095
-3.3821088e-13
-0.00042944212
-2.9592673e-13
3.9374429e-07
-0.00036815187
-5.7092159e-13
-8.3836838e-07
-0.00037289915
-5.9826149e-13
-5.0415794e-07
-0.00037124799
-5.9958963e-13
-4.6479951e-07
-0.0003723689
-5.656797e-13
-4.4702142e-07
-0.00037150535
-5.8313939e-13
-2.8022138e-07
-0.0003718673
-6.1423086e-13
-3.2851064e-07
-0.00037159646
-5.9992892e-13
-2.1517005e-07
-0.00037164209
-5.9238513e-13
-1.5732174e-07
-0.000371583
-6.0316359e-13
-2.3427668e-13
-0.00037156177
-5.8270382e-13
1.5732136e-07
-0.00037156177
-6.0613468e-13
2.1516988e-07
-0.000371583
-6.1940806e-13
3.2851073e-07
-0.00037164209
-6.0976692e-13
2.8022165e-07
-0.00037159646
-5.9114761e-13
4.4702169e-07
-0.0003718673
-5.8450535e-13
4.6479966e-07
-0.00037150535
-6.002749e-13
5.0415796e-07
-0.0003723689
-5.6300115e-13
8.3836825e-07
-0.00037124798
-5.6749068e-13
-3.937445e-07
-0.00037289915
-6.039892e-13
-0.00036815187
-5.8100746e-13
1.8091856e-06
-0.00031292069
4.4374041e-14
7.1101544e-07
-0.00031509748
-2.4260601e-15
1.1749751e-06
-0.0003149561
3.7519829e-14
3.487714e-07
-0.00031443135
6.2368787e-14
7.8174476e-07
-0.00031481565
3.5239839e-14
2.8789973e-07
-0.00031431995
6.4926862e-14
5.1442156e-07
-0.00031474523
5.5857715e-14
2.360552e-07
-0.00031442014
5.5901203e-14
2.1695579e-07
-0.00031466139
3.2819072e-14
2.7947177e-13
-0.00031454604
3.2584958e-14
-2.169552e-07
-0.00031454604
2.2633616e-14
-2.360546e-07
-0.00031466139
3.16021e-14
-5.1442101e-07
-0.00031442014
4.669547e-14
-2.8789915e-07
-0.00031474523
2.8001693e-14
-7.8174431e-07
-0.00031431995
5.2981712e-14
-3.4877106e-07
-0.00031481565
3.0118412e-14
-1.1749749e-06
-0.00031443135
4.3391942e-14
-7.110153e-07
-0.0003149561
3.4974578e-14
-1.8091855e-06
-0.00031509748
2.9939859e-14
-0.00031292069
2.8671837e-14
-1.3314053e-06
-0.00023539995
-5.2838812e-13
-1.109264e-06
-0.00023892626
-5.1122491e-13
-1.0785957e-06
-0.00023869968
-5.2374804e-13
-8.1318901e-07
-0.00023858882
-5.2957553e-13
-9.6378269e-07
-0.00023863428
-5.0479372e-13
-6.3001121e-07
-0.00023855647
-5.1567577e-13
-7.1832775e-07
-0.0002385934
-4.7695941e-13
-4.1084423e-07
-0.00023855856
-5.0916402e-13
-2.8192805e-07
-0.00023858107
-5.2734696e-13
9.3577194e-14
-0.00023857638
-4.9039174e-13
2.8192835e-07
-0.00023857638
-4.9512936e-13
4.1084484e-07
-0.00023858107
-4.7277514e-13
7.1832866e-07
-0.00023855856
-4.8714862e-13
6.3001232e-07
-0.0002385934
-5.0618475e-13
9.6378379e-07
-0.00023855647
-5.0364728e-13
8.1318982e-07
-0.00023863428
-4.9864526e-13
1.0785962e-06
-0.00023858883
-5.0067065e-13
1.1092642e-06
-0.00023869968
-5.1251513e-13
1.3314053e-06
-0.00023892626
-4.8734931e-13
-0.00023539995
-4.9293464e-13
5.668343e-06
-6.6449818e-05
3.0493858e-14
1.423876e-06
-5.8456778e-05
9.8970602e-14
3.2365862e-06
-6.5339096e-05
5.7429716e-14
1.0599762e-06
-6.116353e-05
4.2176285e-14
1.7146287e-06
-6.4057311e-05
9.9185429e-14
7.6698161e-07
-6.2285944e-05
5.7458959e-14
9.7348659e-07
-6.3500339e-05
1.2179336e-13
4.4892289e-07
-6.2792272e-05
5.5137991e-14
3.3354075e-07
-6.3241876e-05
1.5797321e-14
-8.0919477e-14
-6.3053856e-05
7.3256218e-14
-3.3354093e-07
-6.3053857e-05
1.0754537e-13
-4.4892314e-07
-6.3241876e-05
5.9545754e-14
-9.7348689e-07
-6.2792273e-05
4.4001602e-14
-7.6698198e-07
-6.3500339e-05
5.8595858e-14
-1.714629e-06
-6.2285944e-05
5.126034e-14
-1.0599767e-06
-6.4057312e-05
3.3023123e-15
-3.2365866e-06
-6.1163531e-05
3.3337361e-14
-1.4238761e-06
-6.5339098e-05
1.2204576e-13
-5.6683431e-06
-5.845678e-05
8.3728796e-14
-6.6449819e-05
7.2470231e-14
-5.3999928e-06
-0.00036278625
-2.2226741e-13
-2.0299991e-06
-0.00036496706
-2.2321788e-13
-3.615322e-06
-0.00036604639
-2.1970207e-13
-1.5882186e-06
-0.00036556128
-2.3749176e-13
-2.3026034e-06
-0.0003658069
-2.6541492e-13
-1.2710854e-06
-0.00036573549
-2.5284103e-13
-1.4443544e-06
-0.00036571602
-2.4013129e-13
-7.4270793e-07
-0.0003657557
-2.5422375e-13
-5.0041846e-07
-0.00036570592
-2.3216523e-13
-5.223169e-13
-0.00036573163
-2.2437785e-13
5.0041751e-07
-0.00036573163
-2.4193162e-13
7.427071e-07
-0.00036570592
-2.4087527e-13
1.4443538e-06
-0.0003657557
-2.2579593e-13
1.2710849e-06
-0.00036571602
-2.3521997e-13
2.3026031e-06
-0.00036573549
-2.4729728e-13
1.5882181e-06
-0.0003658069
-2.3687846e-13
3.6153215e-06
-0.00036556128
-2.5160675e-13
2.0299985e-06
-0.00036604639
-2.2072699e-13
5.3999924e-06
-0.00036496706
-1.9971414e-13
-0.00036278625
-2.0652599e-13
2.2686574e-06
-5.2501101e-14
2.9824642e-06
6.4355368e-14
2.2911404e-06
5.5541568e-14
2.1754339e-06
-1.2998832e-13
1.8333852e-06
-8.3732125e-14
1.4751472e-06
1.3794503e-15
1.1274883e-06
-1.9356569e-14
7.3738436e-07
-2.5161234e-14
3.5512488e-07
-1.5645276e-14
6.1101728e-14
-4.4585305e-14
-3.5512476e-07
1.1418425e-14
-7.3738421e-07
-7.7379623e-14
-1.1274881e-06
-3.2103012e-14
-1.4751471e-06
-5.1332415e-15
-1.8333849e-06
1.9288796e-14
-2.1754337e-06
-4.8781466e-14
-2.2911403e-06
-8.082277e-14
-2.9824641e-06
1.2023685e-14
-2.2686573e-06
1.0803051e-14
3.5528626e-14
-1.1511488e-05
-0.00037909345
3.136219e-05
-5.1469509e-07
-0.00040116253
3.1261416e-05
-9.2046844e-07
-0.00039007886
3.1416775e-05
-1.9386344e-07
-0.00039121994
3.1395169e-05
-2.3192383e-07
-0.0003904381
3.1407525e-05
-1.0309646e-07
-0.00039056584
3.1406485e-05
-6.5715249e-08
-0.00039045727
3.1407368e-05
-2.1589808e-08
-0.00039047444
3.1407888e-05
-8.9799806e-09
-0.00039047336
3.140751e-05
-1.5207752e-13
-0.00039047399
3.1407755e-05
8.9797369e-09
-0.00039047399
3.1407755e-05
2.1589626e-08
-0.00039047336
3.140751e-05
6.5715193e-08
-0.00039047444
3.1407888e-05
1.0309649e-07
-0.00039045727
3.1407368e-05
2.3192386e-07
-0.00039056584
3.1406485e-05
1.9386339e-07
-0.0003904381
3.1407525e-05
9.2046831e-07
-0.00039121993
3.1395169e-05
5.1469483e-07
-0.00039007886
3.1416775e-05
1.1511488e-05
-0.00040116253
3.1261416e-05
-0.00037909345
3.136219e-05
3.6137866e-06
-0.00040688895
-1.6287992e-05
-1.1302283e-07
-0.00042176265
-1.6219311e-05
-4.6011694e-07
-0.00041394726
-1.6304936e-05
-1.6318494e-07
-0.0004157722
-1.6295483e-05
-1.9598015e-07
-0.00041461308
-1.6304253e-05
-9.3383582e-08
-0.00041482259
-1.6303607e-05
-3.8718056e-08
-0.00041463153
-1.6304405e-05
-6.0649885e-10
-0.00041464041
-1.6304718e-05
7.0224294e-09
-0.0004146508
-1.6304595e-05
-1.5175076e-13
-0.00041465305
-1.6304724e-05
-7.0227532e-09
-0.00041465305
-1.6304724e-05
6.0624594e-10
-0.0004146508
-1.6304595e-05
3.8718026e-08
-0.00041464041
-1.6304718e-05
9.3383625e-08
-0.00041463152
-1.6304405e-05
1.9598019e-07
-0.00041482259
-1.6303607e-05
1.6318492e-07
-0.00041461308
-1.6304253e-05
4.601168e-07
-0.0004157722
-1.6295483e-05
1.1302253e-07
-0.00041394726
-1.6304936e-05
-3.6137869e-06
-0.00042176265
-1.6219311e-05
-0.00040688895
-1.6287992e-05
1.9695373e-06
-0.00040849377
-6.3087727e-06
-6.1520514e-07
-0.0004185504
-6.3618931e-06
-5.4326999e-07
-0.00041344927
-6.3521194e-06
-2.9792466e-07
-0.00041550298
-6.3523964e-06
-3.2102533e-07
-0.0004140442
-6.3546297e-06
-1.6150806e-07
-0.00041443972
-6.3544336e-06
-1.4640445e-07
-0.00041411141
-6.3548494e-06
-7.4245114e-08
-0.00041418413
-6.3549306e-06
-4.745727e-08
-0.00041415949
-6.3547343e-06
-2.0703372e-13
-0.00041416982
-6.3548092e-06
4.7456911e-08
-0.00041416982
-6.3548092e-06
7.424488e-08
-0.00041415949
-6.3547343e-06
1.4640438e-07
-0.00041418413
-6.3549306e-06
1.615081e-07
-0.00041411141
-6.3548494e-06
3.2102538e-07
-0.00041443972
-6.3544336e-06
2.9792464e-07
-0.0004140442
-6.3546297e-06
5.4326984e-07
-0.00041550298
-6.3523964e-06
6.1520484e-07
-0.00041344927
-6.3521194e-06
-1.9695376e-06
-0.0004185504
-6.3618932e-06
-0.00040849377
-6.3087726e-06
2.0533452e-06
-0.00042944212
-3.3887915e-06
2.5457602e-07
-0.00043594095
-3.3850166e-06
4.381936e-07
-0.00043274881
-3.3945027e-06
1.2550797e-08
-0.0004340619
-3.3951111e-06
1.6557483e-07
-0.00043322011
-3.3937904e-06
4.566447e-09
-0.00043330353
-3.3939377e-06
1.146887e-07
-0.00043319194
-3.3937099e-06
5.0869182e-08
-0.00043310146
-3.3936386e-06
6.4374815e-08
-0.00043316829
-3.3937888e-06
-1.8256388e-14
-0.00043313749
-3.3937702e-06
-6.4374807e-08
-0.00043313749
-3.3937702e-06
-5.0869094e-08
-0.00043316829
-3.3937888e-06
-1.1468847e-07
-0.00043310146
-3.3936386e-06
-4.566228e-09
-0.00043319194
-3.3937099e-06
-1.6557456e-07
-0.00043330353
-3.3939377e-06
-1.2550663e-08
-0.00043322011
-3.3937904e-06
-4.3819354e-07
-0.0004340619
-3.3951111e-06
-2.5457606e-07
-0.00043274881
-3.3945027e-06
-2.0533453e-06
-0.00043594095
-3.3850165e-06
-0.00042944212
-3.3887915e-06
3.9374432e-07
-0.00036815187
8.2550413e-07
-8.3836839e-07
-0.00037289915
8.3189213e-07
-5.0415796e-07
-0.00037124799
8.3046099e-07
-4.6479949e-07
-0.0003723689
8.3322146e-07
-4.4702141e-07
-0.00037150535
8.3100843e-07
-2.8022138e-07
-0.0003718673
8.3179281e-07
-3.2851064e-07
-0.00037159646
8.3122744e-07
-2.1517004e-07
-0.00037164209
8.3112308e-07
-1.5732173e-07
-0.000371583
8.3113309e-07
-2.3483444e-13
-0.00037156177
8.30979e-07
1.5732135e-07
-0.00037156177
8.3097898e-07
2.1516988e-07
-0.000371583
8.3113308e-07
3.2851073e-07
-0.00037164209
8.3112307e-07
2.8022164e-07
-0.00037159646
8.3122745e-07
4.4702169e-07
-0.0003718673
8.3179283e-07
4.6479964e-07
-0.00037150535
8.3100844e-07
5.0415796e-07
-0.0003723689
8.3322145e-07
8.3836828e-07
-0.00037124798
8.3046099e-07
-3.9374449e-07
-0.00037289915
8.3189213e-07
-0.00036815187
8.2550415e-07
1.8091856e-06
-0.00031292069
-2.2040681e-06
7.110154e-07
-0.00031509748
-2.2067438e-06
1.1749751e-06
-0.0003149561
-2.210269e-06
3.4877141e-07
-0.00031443135
-2.2086621e-06
7.8174476e-07
-0.00031481565
-2.2089716e-06
2.8789975e-07
-0.00031431995
-2.2083529e-06
5.1442158e-07
-0.00031474523
-2.2090009e-06
2.360552e-07
-0.00031442014
-2.2083303e-06
2.1695577e-07
-0.00031466139
-2.208849e-06
2.8279139e-13
-0.00031454604
-2.208542e-06
-2.1695521e-07
-0.00031454604
-2.208542e-06
-2.3605461e-07
-0.00031466139
-2.208849e-06
-5.14421e-07
-0.00031442014
-2.2083303e-06
-2.8789915e-07
-0.00031474523
-2.209001e-06
-7.8174431e-07
-0.00031431995
-2.2083529e-06
-3.4877107e-07
-0.00031481565
-2.2089716e-06
-1.1749749e-06
-0.00031443135
-2.2086621e-06
-7.1101529e-07
-0.0003149561
-2.210269e-06
-1.8091855e-06
-0.00031509748
-2.2067438e-06
-0.00031292069
-2.2040681e-06
-1.3314053e-06
-0.00023539995
2.4806954e-06
-1.109264e-06
-0.00023892626
2.5008695e-06
-1.0785957e-06
-0.00023869968
2.499579e-06
-8.1318902e-07
-0.00023858882
2.4993461e-06
-9.6378269e-07
-0.00023863428
2.4997445e-06
-6.3001123e-07
-0.00023855647
2.4989951e-06
-7.1832772e-07
-0.0002385934
2.4998525e-06
-4.108442e-07
-0.00023855856
2.4991828e-06
-2.8192807e-07
-0.00023858107
2.4997438e-06
1.0112506e-13
-0.00023857638
2.4994885e-06
2.8192835e-07
-0.00023857638
2.4994885e-06
4.1084483e-07
-0.00023858107
2.4997438e-06
7.1832867e-07
-0.00023855856
2.4991829e-06
6.3001232e-07
-0.0002385934
2.4998525e-06
9.637838e-07
-0.00023855647
2.4989951e-06
8.1318982e-07
-0.00023863428
2.4997445e-06
1.0785962e-06
-0.00023858883
2.4993461e-06
1.1092642e-06
-0.00023869968
2.499579e-06
1.3314053e-06
-0.00023892626
2.5008696e-06
-0.00023539995
2.4806954e-06
5.6683429e-06
-6.6449818e-05
-6.243041e-06
1.423876e-06
-5.8456778e-05
-6.2428864e-06
3.2365862e-06
-6.5339096e-05
-6.2626504e-06
1.0599762e-06
-6.116353e-05
-6.2502495e-06
1.7146287e-06
-6.4057311e-05
-6.2544499e-06
7.6698162e-07
-6.2285944e-05
-6.2515776e-06
9.7348663e-07
-6.3500339e-05
-6.253646e-06
4.4892292e-07
-6.2792272e-05
-6.2527095e-06
3.3354071e-07
-6.3241876e-05
-6.2532802e-06
-1.1361017e-13
-6.3053856e-05
-6.2530834e-06
-3.3354091e-07
-6.3053857e-05
-6.2530834e-06
-4.4892313e-07
-6.3241876e-05
-6.2532802e-06
-9.7348686e-07
-6.2792273e-05
-6.2527095e-06
-7.6698195e-07
-6.3500339e-05
-6.253646e-06
-1.714629e-06
-6.2285944e-05
-6.2515776e-06
-1.0599767e-06
-6.4057312e-05
-6.25445e-06
-3.2365866e-06
-6.1163531e-05
-6.2502495e-06
-1.4238762e-06
-6.5339098e-05
-6.2626503e-06
-5.6683431e-06
-5.845678e-05
-6.2428864e-06
-6.6449819e-05
-6.243041e-06
-5.3999928e-06
-0.00036278625
6.8494957e-06
-2.0299991e-06
-0.00036496706
6.8487583e-06
-3.615322e-06
-0.00036604639
6.875976e-06
-1.5882186e-06
-0.00036556128
6.8623055e-06
-2.3026034e-06
-0.0003658069
6.8675447e-06
-1.2710854e-06
-0.00036573549
6.864751e-06
-1.4443544e-06
-0.00036571602
6.8665388e-06
-7.4270794e-07
-0.0003657557
6.8660703e-06
-5.0041845e-07
-0.00036570592
6.8662396e-06
-5.1040617e-13
-0.00036573163
6.8662471e-06
5.0041751e-07
-0.00036573163
6.8662471e-06
7.4270711e-07
-0.00036570592
6.8662396e-06
1.4443538e-06
-0.0003657557
6.8660703e-06
1.2710849e-06
-0.00036571602
6.8665388e-06
2.3026031e-06
-0.00036573549
6.864751e-06
1.5882181e-06
-0.0003658069
6.8675447e-06
3.6153215e-06
-0.00036556128
6.8623055e-06
2.0299986e-06
-0.00036604639
6.875976e-06
5.3999924e-06
-0.00036496706
6.8487583e-06
-0.00036278625
6.8494957e-06
2.2686573e-06
-6.5439504e-06
2.9824642e-06
-7.2057273e-06
2.2911405e-06
-6.8243815e-06
2.1754339e-06
-6.9060387e-06
1.8333852e-06
-6.8770751e-06
1.4751472e-06
-6.8878612e-06
1.1274883e-06
-6.881156e-06
7.3738436e-07
-6.8854006e-06
3.5512487e-07
-6.8826159e-06
5.9470921e-14
-6.8839366e-06
-3.5512476e-07
-6.8839365e-06
-7.3738421e-07
-6.882616e-06
-1.1274881e-06
-6.8854006e-06
-1.475147e-06
-6.8811559e-06
-1.8333849e-06
-6.8878613e-06
-2.1754337e-06
-6.8770751e-06
-2.2911403e-06
-6.9060386e-06
-2.9824641e-06
-6.8243815e-06
-2.2686573e-06
-7.2057273e-06
-6.5439504e-06
-1.1316909e-05
-0.00031745995
-5.1820238e-07
-0.00033934579
-8.9762175e-07
-0.00032817419
-1.917376e-07
-0.00032931154
-2.2847747e-07
-0.00032852706
-1.0199782e-07
-0.00032865335
-6.4763952e-08
-0.00032854524
-2.1141049e-08
-0.00032856099
-8.7558784e-09
-0.00032856088
-1.5182797e-13
-0.00032856101
8.7556385e-09
-0.00032856101
2.1140871e-08
-0.00032856088
6.4763872e-08
-0.00032856099
1.0199784e-07
-0.00032854524
2.2847752e-07
-0.00032865335
1.9173755e-07
-0.00032852706
8.9762162e-07
-0.00032931154
5.1820213e-07
-0.00032817419
1.1316909e-05
-0.00033934579
-0.00031745995
3.596583e-06
-0.00037767233
-1.1812593e-07
-0.00039224977
-4.6563468e-07
-0.00038450718
-1.62614e-07
-0.00038631614
-1.9528091e-07
-0.00038516583
-9.2716573e-08
-0.00038537245
-3.824851e-08
-0.00038518323
-7.7070752e-11
-0.00038519147
7.2249957e-09
-0.00038520249
-1.5094753e-13
-0.00038520458
-7.2253156e-09
-0.00038520458
7.6924934e-11
-0.00038520249
3.824848e-08
-0.00038519147
9.2716614e-08
-0.00038518323
1.9528095e-07
-0.00038537245
1.6261397e-07
-0.00038516583
4.6563455e-07
-0.00038631614
1.1812564e-07
-0.00038450718
-3.5965833e-06
-0.00039224977
-0.00037767232
1.9452853e-06
-0.00039199769
-6.0886337e-07
-0.00040191408
-5.3545037e-07
-0.00039684026
-2.9428333e-07
-0.00039887182
-3.172987e-07
-0.00039743099
-1.594275e-07
-0.00039782115
-1.4458912e-07
-0.00039749695
-7.3292824e-08
-0.00039756862
-4.6920861e-08
-0.00039754478
-2.0872447e-13
-0.00039755504
4.6920502e-08
-0.00039755504
7.3292593e-08
-0.00039754478
1.4458905e-07
-0.00039756862
1.5942754e-07
-0.00039749695
3.1729875e-07
-0.00039782114
2.9428331e-07
-0.00039743099
5.3545022e-07
-0.00039887182
6.0886309e-07
-0.00039684025
-1.9452856e-06
-0.00040191407
-0.00039199769
2.0347798e-06
-0.00041957124
2.5149374e-07
-0.00042595886
4.3131296e-07
-0.00042279165
1.1881683e-08
-0.0004240947
1.6363645e-07
-0.0004232601
4.2885352e-09
-0.00042334181
1.1385474e-07
-0.00042323158
5.0708305e-08
-0.00042314122
6.4137574e-08
-0.00042320835
-1.5581081e-14
-0.00042317768
-6.4137565e-08
-0.00042317768
-5.0708216e-08
-0.00042320835
-1.1385451e-07
-0.00042314122
-4.2883197e-09
-0.00042323158
-1.6363617e-07
-0.00042334181
-1.1881551e-08
-0.0004232601
-4.3131291e-07
-0.0004240947
-2.514938e-07
-0.00042279165
-2.0347799e-06
-0.00042595886
-0.00041957123
3.9745713e-07
-0.00035663079
-8.2744097e-07
-0.00036126045
-4.9576011e-07
-0.00035962691
-4.5772652e-07
-0.00036073397
-4.4049441e-07
-0.00035988248
-2.7605029e-07
-0.00036023948
-3.2485822e-07
-0.00035997298
-2.1325036e-07
-0.00036001753
-1.5617613e-07
-0.00035995959
-2.3713294e-13
-0.00035993832
1.5617575e-07
-0.00035993832
2.1325021e-07
-0.00035995959
3.2485831e-07
-0.00036001753
2.7605055e-07
-0.00035997298
4.4049468e-07
-0.00036023948
4.5772668e-07
-0.00035988248
4.9576011e-07
-0.00036073397
8.2744085e-07
-0.00035962691
-3.9745731e-07
-0.00036126045
-0.00035663078
1.7843557e-06
-0.0003056993
7.0281208e-07
-0.00030780419
1.158943e-06
-0.00030766418
3.4256878e-07
-0.0003071397
7.7285751e-07
-0.00030752383
2.8429183e-07
-0.00030702961
5.1012422e-07
-0.00030745471
2.3442238e-07
-0.0003071305
2.1569594e-07
-0.00030737171
2.8540899e-13
-0.00030725658
-2.1569536e-07
-0.00030725658
-2.3442179e-07
-0.00030737171
-5.1012366e-07
-0.0003071305
-2.8429126e-07
-0.00030745471
-7.7285706e-07
-0.00030702961
-3.4256842e-07
-0.00030752383
-1.1589428e-06
-0.0003071397
-7.0281196e-07
-0.00030766418
-1.7843557e-06
-0.00030780419
-0.0003056993
-1.3043928e-06
-0.00022329689
-1.0941213e-06
-0.00022667158
-1.0620442e-06
-0.00022646097
-8.0096832e-07
-0.00022634532
-9.5142785e-07
-0.00022639459
-6.2201558e-07
-0.00022631556
-7.1109421e-07
-0.00022635406
-4.069654e-07
-0.00022631885
-2.7957996e-07
-0.00022634196
1.0360153e-13
-0.00022633718
2.7958027e-07
-0.00022633718
4.06966e-07
-0.00022634196
7.1109512e-07
-0.00022631885
6.220167e-07
-0.00022635406
9.5142895e-07
-0.00022631556
8.0096915e-07
-0.0002263946
1.0620447e-06
-0.00022634532
1.0941215e-06
-0.00022646097
1.3043928e-06
-0.00022667158
-0.00022329689
5.5899373e-06
-6.6506523e-05
1.4103483e-06
-5.8515538e-05
3.1997381e-06
-6.5358731e-05
1.045392e-06
-6.1201011e-05
1.6954129e-06
-6.4084276e-05
7.5714613e-07
-6.2318622e-05
9.6393309e-07
-6.3529645e-05
4.4417323e-07
-6.2823554e-05
3.306417e-07
-6.3272151e-05
-9.4224632e-14
-6.3084617e-05
-3.3064189e-07
-6.3084617e-05
-4.4417347e-07
-6.3272151e-05
-9.6393334e-07
-6.2823555e-05