/*--------------------------------*- C++ -*----------------------------------*\
  =========                 |
  \\      /  F ield         | OpenFOAM: The Open Source CFD Toolbox
   \\    /   O peration     | Website:  https://openfoam.org
    \\  /    A nd           | Version:  8
     \\/     M anipulation  |
\*---------------------------------------------------------------------------*/
FoamFile
{
    version     2.0;
    format      ascii;
    class       volVectorField;
    location    "0.6";
    object      U;
}
// * * * * * * * * * * * * * * * * * * * * * * * * * * * * * * * * * * * * * //

dimensions      [0 1 -1 0 0 0 0];

internalField   nonuniform List<vector> 
800
(
(-0.0034254682 1.2673093 -0.0065208168)
(0.00018316531 1.2703849 -0.0065327432)
(-0.00031894025 1.2708339 -0.0065460674)
(5.2857617e-05 1.270828 -0.0065443821)
(-0.00010280523 1.27083 -0.0065453828)
(3.345833e-05 1.2708662 -0.0065453866)
(-5.9131342e-05 1.2708373 -0.0065453938)
(3.8520456e-05 1.2708718 -0.0065455134)
(-4.3538284e-05 1.2708533 -0.0065454453)
(4.0233683e-05 1.2708674 -0.0065454966)
(-4.0233727e-05 1.2708674 -0.0065454966)
(4.353825e-05 1.2708533 -0.0065454453)
(-3.852047e-05 1.2708718 -0.0065455134)
(5.9131339e-05 1.2708373 -0.0065453938)
(-3.3458323e-05 1.2708662 -0.0065453866)
(0.00010280522 1.27083 -0.0065453828)
(-5.2857629e-05 1.270828 -0.0065443821)
(0.00031894022 1.2708339 -0.0065460674)
(-0.00018316535 1.2703849 -0.0065327432)
(0.0034254682 1.2673093 -0.0065208168)
(0.00072023806 -1.5174923 0.0010092682)
(0.00015599314 -1.5231041 0.0010053949)
(-0.00017839015 -1.5226045 0.0010108548)
(5.4215133e-05 -1.5227024 0.0010102876)
(-9.0274957e-05 -1.5226328 0.0010108174)
(3.7891976e-05 -1.5226871 0.0010107899)
(-5.7972838e-05 -1.5226431 0.0010108301)
(4.6833762e-05 -1.5226849 0.001010854)
(-4.6597499e-05 -1.5226631 0.0010108424)
(4.7797889e-05 -1.5226798 0.0010108524)
(-4.7797927e-05 -1.5226798 0.0010108524)
(4.6597472e-05 -1.5226631 0.0010108424)
(-4.6833771e-05 -1.5226849 0.001010854)
(5.7972839e-05 -1.5226431 0.0010108301)
(-3.7891967e-05 -1.5226871 0.0010107899)
(9.0274958e-05 -1.5226328 0.0010108174)
(-5.4215141e-05 -1.5227024 0.0010102876)
(0.00017839013 -1.5226045 0.0010108548)
(-0.00015599319 -1.5231041 0.0010053949)
(-0.00072023809 -1.5174923 0.0010092681)
(0.00041546006 1.7283906 0.00028402772)
(1.0798044e-05 1.7330605 0.00028670427)
(-0.00014728912 1.7334772 0.00028641245)
(3.4740655e-05 1.7333617 0.00028635615)
(-9.6458024e-05 1.7334283 0.00028651487)
(2.6880267e-05 1.7334661 0.00028649318)
(-5.8661251e-05 1.7334384 0.0002865148)
(2.6074062e-05 1.7334862 0.00028652201)
(-4.0934318e-05 1.7334585 0.00028651215)
(3.0062902e-05 1.733478 0.00028652131)
(-3.0062947e-05 1.733478 0.00028652131)
(4.0934285e-05 1.7334585 0.00028651215)
(-2.6074077e-05 1.7334862 0.00028652201)
(5.8661249e-05 1.7334384 0.0002865148)
(-2.6880257e-05 1.7334661 0.00028649318)
(9.6458026e-05 1.7334283 0.00028651486)
(-3.4740663e-05 1.7333617 0.00028635615)
(0.0001472891 1.7334772 0.00028641245)
(-1.0798086e-05 1.7330605 0.00028670427)
(-0.00041546009 1.7283906 0.00028402771)
(0.00034190005 -2.0881632 0.00021261064)
(8.7612552e-06 -2.0952109 0.00021336698)
(4.6843471e-05 -2.0948809 0.00021363886)
(2.3852931e-05 -2.0950754 0.00021373791)
(-2.0242917e-05 -2.0949218 0.000213627)
(4.6728926e-05 -2.0950294 0.00021365255)
(-4.5308683e-05 -2.0949447 0.00021363199)
(6.3954912e-05 -2.0950119 0.00021363243)
(-5.338366e-05 -2.094975 0.00021363505)
(6.3984996e-05 -2.0949994 0.00021363272)
(-6.3984999e-05 -2.0949994 0.00021363272)
(5.3383664e-05 -2.094975 0.00021363505)
(-6.3954899e-05 -2.0950119 0.00021363243)
(4.5308712e-05 -2.0949447 0.00021363199)
(-4.67289e-05 -2.0950294 0.00021365255)
(2.0242944e-05 -2.0949218 0.000213627)
(-2.3852927e-05 -2.0950754 0.00021373791)
(-4.6843466e-05 -2.0948809 0.00021363885)
(-8.7612697e-06 -2.0952109 0.00021336698)
(-0.00034190006 -2.0881632 0.00021261064)
(0.0001286054 2.3974051 -9.4254097e-05)
(-5.7693406e-05 2.4048747 -9.4810828e-05)
(-8.0495516e-05 2.404866 -9.4680681e-05)
(5.9443015e-06 2.40494 -9.4812852e-05)
(-7.6968632e-05 2.4048604 -9.4711069e-05)
(6.3690298e-06 2.4049765 -9.47405e-05)
(-4.8612306e-05 2.4048905 -9.471874e-05)
(-3.3844087e-06 2.4049796 -9.4710775e-05)
(-2.9778491e-05 2.4049276 -9.471265e-05)
(5.7663892e-06 2.4049599 -9.4704886e-05)
(-5.7664259e-06 2.4049599 -9.4704886e-05)
(2.9778468e-05 2.4049276 -9.4712651e-05)
(3.3844072e-06 2.4049796 -9.4710775e-05)
(4.8612321e-05 2.4048905 -9.4718741e-05)
(-6.369004e-06 2.4049765 -9.4740496e-05)
(7.696865e-05 2.4048604 -9.4711066e-05)
(-5.944295e-06 2.40494 -9.4812852e-05)
(8.0495511e-05 2.404866 -9.468069e-05)
(5.769339e-05 2.4048747 -9.4810828e-05)
(-0.00012860541 2.3974051 -9.4254097e-05)
(0.00028205466 -2.8716555 0.00013878059)
(-4.8478914e-05 -2.881169 0.00013963288)
(0.000141791 -2.8808788 0.00013973545)
(1.8052273e-05 -2.881156 0.00013969225)
(2.544721e-05 -2.8809177 0.00013969482)
(8.0829355e-05 -2.8811136 0.00013967329)
(-4.2754082e-05 -2.8809672 0.00013969214)
(0.00010955843 -2.8810786 0.00013966734)
(-7.6201617e-05 -2.8810072 0.00013968168)
(0.00010386319 -2.8810415 0.0001396696)
(-0.00010386315 -2.8810415 0.0001396696)
(7.6201659e-05 -2.8810072 0.00013968168)
(-0.0001095584 -2.8810786 0.00013966734)
(4.2754121e-05 -2.8809672 0.00013969214)
(-8.082932e-05 -2.8811136 0.00013967329)
(-2.5447183e-05 -2.8809177 0.00013969481)
(-1.8052255e-05 -2.881156 0.00013969225)
(-0.00014179099 -2.8808788 0.00013973545)
(4.8478919e-05 -2.881169 0.00013963287)
(-0.00028205466 -2.8716555 0.00013878059)
(-0.00012667313 3.3329399 -0.00013952433)
(-2.5003971e-05 3.3438281 -0.0001406214)
(-9.6088126e-05 3.3435052 -0.00014060544)
(-3.1340837e-05 3.3438798 -0.00014057724)
(-5.7330125e-05 3.3435645 -0.00014060342)
(-5.4485071e-05 3.343841 -0.00014056772)
(-1.7801848e-05 3.3436279 -0.00014059817)
(-6.2130602e-05 3.3437899 -0.00014057255)
(1.4183503e-05 3.3436824 -0.00014059005)
(-4.4807376e-05 3.3437341 -0.00014058086)
(4.4807388e-05 3.3437341 -0.00014058086)
(-1.4183479e-05 3.3436824 -0.00014059005)
(6.2130648e-05 3.3437899 -0.00014057255)
(1.7801907e-05 3.3436279 -0.00014059817)
(5.4485141e-05 3.343841 -0.00014056772)
(5.7330181e-05 3.3435645 -0.00014060342)
(3.1340878e-05 3.3438798 -0.00014057724)
(9.6088142e-05 3.3435052 -0.00014060544)
(2.5003975e-05 3.3438281 -0.0001406214)
(0.00012667313 3.3329399 -0.00013952433)
(0.00069385701 -3.9487193 0.0002206599)
(-0.0001133567 -3.9620759 0.00022185564)
(0.00023358445 -3.9616613 0.00022245411)
(0.00010171713 -3.9620738 0.00022209145)
(-9.0499901e-06 -3.9617167 0.00022225935)
(0.00018468638 -3.9620227 0.00022216696)
(-0.00011299213 -3.9617813 0.00022222547)
(0.00020830939 -3.9619635 0.00022220005)
(-0.00016336393 -3.9618425 0.00022221282)
(0.00019523022 -3.9619021 0.00022220855)
(-0.00019523023 -3.9619021 0.00022220856)
(0.00016336392 -3.9618425 0.00022221281)
(-0.0002083094 -3.9619635 0.00022220005)
(0.00011299212 -3.9617813 0.00022222547)
(-0.0001846864 -3.9620227 0.00022216697)
(9.0499653e-06 -3.9617167 0.00022225935)
(-0.00010171713 -3.9620738 0.00022209145)
(-0.00023358447 -3.9616613 0.00022245412)
(0.00011335669 -3.9620759 0.00022185564)
(-0.00069385701 -3.9487193 0.00022065991)
(-0.00055232349 4.6257122 -0.00021726603)
(7.8242787e-05 4.6424293 -0.00021836744)
(-0.00022805272 4.6409727 -0.00021907252)
(-9.3038977e-05 4.6420448 -0.00021872371)
(-2.8338287e-05 4.641218 -0.00021889157)
(-0.00017224678 4.6418259 -0.00021881862)
(6.830193e-05 4.6413709 -0.00021885851)
(-0.00018821152 4.6416847 -0.00021885211)
(0.00012481767 4.6414789 -0.0002188518)
(-0.00016543554 4.6415757 -0.00021885484)
(0.0001654355 4.6415757 -0.00021885484)
(-0.00012481771 4.6414789 -0.0002188518)
(0.00018821149 4.6416847 -0.00021885211)
(-6.8301951e-05 4.6413709 -0.00021885851)
(0.00017224676 4.6418259 -0.00021881862)
(2.8338272e-05 4.641218 -0.00021889157)
(9.3038955e-05 4.6420448 -0.00021872372)
(0.00022805269 4.6409727 -0.00021907253)
(-7.8242809e-05 4.6424293 -0.00021836744)
(0.00055232348 4.6257122 -0.00021726603)
(-0.00051059769 -5.4903344 -0.0047175136)
(0.00068567327 -5.510226 -0.0047311874)
(-0.00044602949 -5.5087247 -0.0047370135)
(0.00058650827 -5.509887 -0.0047362115)
(-0.00040765962 -5.5089666 -0.0047362318)
(0.00051983179 -5.5096638 -0.0047364004)
(-0.00039812362 -5.5091278 -0.0047362457)
(0.00046686618 -5.5095026 -0.0047363595)
(-0.00040594044 -5.5092526 -0.0047362844)
(0.00042740042 -5.5093709 -0.0047363203)
(-0.00042740042 -5.5093709 -0.0047363203)
(0.00040594045 -5.5092526 -0.0047362844)
(-0.00046686617 -5.5095026 -0.0047363595)
(0.00039812362 -5.5091278 -0.0047362457)
(-0.00051983178 -5.5096638 -0.0047364004)
(0.00040765962 -5.5089666 -0.0047362318)
(-0.00058650826 -5.509887 -0.0047362114)
(0.00044602949 -5.5087247 -0.0047370135)
(-0.00068567326 -5.510226 -0.0047311874)
(0.00051059769 -5.4903344 -0.0047175136)
(-0.0034884522 1.2803177 0.0020168348)
(0.0001912211 1.2834082 0.0020438533)
(-0.00032616617 1.2838787 0.0020346279)
(5.3566437e-05 1.2838703 0.0020360534)
(-0.00010410871 1.283874 0.0020352688)
(3.3761557e-05 1.2839103 0.0020354304)
(-5.9732338e-05 1.2838814 0.0020353225)
(3.8837677e-05 1.283916 0.0020353683)
(-4.397585e-05 1.2838974 0.0020353484)
(4.0598718e-05 1.2839117 0.0020353601)
(-4.0598761e-05 1.2839117 0.0020353601)
(4.3975817e-05 1.2838974 0.0020353484)
(-3.8837692e-05 1.283916 0.0020353683)
(5.9732335e-05 1.2838814 0.0020353224)
(-3.3761549e-05 1.2839103 0.0020354304)
(0.0001041087 1.283874 0.0020352688)
(-5.3566449e-05 1.2838703 0.0020360534)
(0.00032616615 1.2838787 0.0020346279)
(-0.00019122114 1.2834082 0.0020438533)
(0.0034884522 1.2803177 0.0020168348)
(0.00072404081 -1.5384728 0.0010016768)
(0.00015619802 -1.5442093 0.00099650051)
(-0.00017740339 -1.5436959 0.0010018973)
(5.4602695e-05 -1.5437962 0.0010012885)
(-9.0798215e-05 -1.5437255 0.0010018491)
(3.823847e-05 -1.5437805 0.0010018014)
(-5.8478282e-05 -1.543736 0.0010018567)
(4.7215301e-05 -1.5437783 0.0010018713)
(-4.7062837e-05 -1.5437562 0.0010018655)
(4.8222078e-05 -1.543773 0.0010018724)
(-4.8222116e-05 -1.543773 0.0010018724)
(4.706281e-05 -1.5437562 0.0010018655)
(-4.721531e-05 -1.5437783 0.0010018713)
(5.8478283e-05 -1.543736 0.0010018567)
(-3.8238461e-05 -1.5437805 0.0010018014)
(9.0798215e-05 -1.5437255 0.0010018491)
(-5.4602703e-05 -1.5437962 0.0010012885)
(0.00017740336 -1.5436959 0.0010018973)
(-0.00015619806 -1.5442093 0.00099650051)
(-0.00072404085 -1.5384728 0.0010016768)
(0.00041991966 1.7490656 0.0003963871)
(1.1457545e-05 1.7538336 0.00039924426)
(-0.00014925637 1.7542485 0.00039861977)
(3.495889e-05 1.7541326 0.00039863744)
(-9.7417469e-05 1.7541998 0.00039874798)
(2.7027672e-05 1.7542379 0.00039872814)
(-5.924243e-05 1.75421 0.0003987485)
(2.6262487e-05 1.7542582 0.00039874943)
(-4.1323658e-05 1.7542303 0.00039874257)
(3.0336952e-05 1.75425 0.000398749)
(-3.0336997e-05 1.75425 0.000398749)
(4.1323625e-05 1.7542303 0.00039874257)
(-2.6262503e-05 1.7542582 0.00039874943)
(5.9242429e-05 1.75421 0.00039874851)
(-2.7027662e-05 1.7542379 0.00039872814)
(9.741747e-05 1.7541998 0.00039874798)
(-3.4958899e-05 1.7541326 0.00039863744)
(0.00014925635 1.7542485 0.00039861977)
(-1.1457587e-05 1.7538336 0.00039924426)
(-0.00041991969 1.7490656 0.00039638711)
(0.00034558802 -2.1149126 8.8921279e-05)
(8.4315054e-06 -2.1220927 8.7861189e-05)
(4.7778948e-05 -2.1217585 8.8421205e-05)
(2.4145375e-05 -2.1219553 8.8403188e-05)
(-2.0377298e-05 -2.1218 8.8377e-05)
(4.7207278e-05 -2.1219087 8.8373333e-05)
(-4.5716977e-05 -2.1218233 8.837498e-05)
(6.4510364e-05 -2.1218912 8.8368243e-05)
(-5.3908333e-05 -2.1218538 8.8376501e-05)
(6.4550868e-05 -2.1218785 8.8372638e-05)
(-6.4550871e-05 -2.1218785 8.8372637e-05)
(5.3908337e-05 -2.1218538 8.8376501e-05)
(-6.4510351e-05 -2.1218912 8.8368243e-05)
(4.5717007e-05 -2.1218233 8.8374981e-05)
(-4.7207253e-05 -2.1219087 8.8373329e-05)
(2.0377325e-05 -2.1218 8.8377e-05)
(-2.414537e-05 -2.1219553 8.8403189e-05)
(-4.7778943e-05 -2.1217585 8.8421205e-05)
(-8.4315222e-06 -2.1220927 8.7861186e-05)
(-0.00034558803 -2.1149126 8.892128e-05)
(0.0001286404 2.427429 3.3083971e-05)
(-5.8335454e-05 2.4350379 3.3164968e-05)
(-8.1592677e-05 2.4350283 3.3156845e-05)
(5.7279464e-06 2.4351034 3.3073037e-05)
(-7.7857363e-05 2.4350229 3.3140538e-05)
(6.2318176e-06 2.4351402 3.3110099e-05)
(-4.9127832e-05 2.4350533 3.3130163e-05)
(-3.4410277e-06 2.4351433 3.3130848e-05)
(-3.0023196e-05 2.4350908 3.3131498e-05)
(5.8331817e-06 2.4351234 3.3136439e-05)
(-5.833219e-06 2.4351234 3.3136439e-05)
(3.0023174e-05 2.4350908 3.3131498e-05)
(3.4410246e-06 2.4351433 3.3130847e-05)
(4.9127849e-05 2.4350533 3.3130163e-05)
(-6.2317929e-06 2.4351402 3.3110095e-05)
(7.7857381e-05 2.4350229 3.3140536e-05)
(-5.7279397e-06 2.4351034 3.3073037e-05)
(8.1592675e-05 2.4350283 3.3156854e-05)
(5.8335435e-05 2.4350379 3.3164968e-05)
(-0.00012864041 2.427429 3.3083973e-05)
(0.00028592049 -2.9086503 7.1752219e-06)
(-4.9028295e-05 -2.9183437 6.5000282e-06)
(0.00014343982 -2.9180504 6.6355722e-06)
(1.8574716e-05 -2.9183305 6.5833046e-06)
(2.5744275e-05 -2.9180897 6.6025238e-06)
(8.1726309e-05 -2.9182876 6.5797333e-06)
(-4.316182e-05 -2.9181397 6.6059493e-06)
(0.00011053779 -2.9182521 6.5799828e-06)
(-7.6957327e-05 -2.9181801 6.5977733e-06)
(0.00010478505 -2.9182148 6.5850803e-06)
(-0.00010478501 -2.9182148 6.5850804e-06)
(7.695737e-05 -2.9181801 6.5977736e-06)
(-0.00011053775 -2.9182521 6.5799824e-06)
(4.3161859e-05 -2.9181397 6.6059482e-06)
(-8.1726273e-05 -2.9182876 6.5797323e-06)
(-2.5744248e-05 -2.9180897 6.6025234e-06)
(-1.8574699e-05 -2.9183305 6.5833037e-06)
(-0.0001434398 -2.9180504 6.6355723e-06)
(4.90283e-05 -2.9183437 6.5000292e-06)
(-0.00028592048 -2.9086503 7.175221e-06)
(-0.0001292723 3.3753712 -8.9701837e-06)
(-2.5487214e-05 3.386461 -9.0089259e-06)
(-9.7347744e-05 3.3861347 -8.9598648e-06)
(-3.2001813e-05 3.386513 -8.9769033e-06)
(-5.8066632e-05 3.3861946 -8.9759064e-06)
(-5.5170456e-05 3.3864738 -8.9655051e-06)
(-1.8039607e-05 3.3862587 -8.9837629e-06)
(-6.2720503e-05 3.3864222 -8.9676359e-06)
(1.4324686e-05 3.3863138 -8.981137e-06)
(-4.5215138e-05 3.386366 -8.9739359e-06)
(4.5215149e-05 3.386366 -8.9739364e-06)
(-1.4324661e-05 3.3863138 -8.9811355e-06)
(6.2720549e-05 3.3864222 -8.9676352e-06)
(1.8039665e-05 3.3862587 -8.9837637e-06)
(5.5170527e-05 3.3864738 -8.9655047e-06)
(5.8066687e-05 3.3861946 -8.9759065e-06)
(3.2001852e-05 3.386513 -8.9769021e-06)
(9.7347762e-05 3.3861347 -8.959864e-06)
(2.5487219e-05 3.386461 -9.0089261e-06)
(0.0001292723 3.3753712 -8.9701836e-06)
(0.00070274675 -4.0005702 9.1371225e-05)
(-0.00011433752 -4.0141854 9.0295677e-05)
(0.0002357959 -4.0137643 9.0562144e-05)
(0.00010323674 -4.0141821 9.0361802e-05)
(-9.1781917e-06 -4.0138205 9.0440766e-05)
(0.00018672741 -4.01413 9.0384586e-05)
(-0.00011406772 -4.0138859 9.0430889e-05)
(0.00021032426 -4.0140701 9.0405619e-05)
(-0.00016490624 -4.0139477 9.042228e-05)
(0.00019705674 -4.014008 9.041532e-05)
(-0.00019705674 -4.014008 9.0415312e-05)
(0.00016490623 -4.0139477 9.0422291e-05)
(-0.00021032428 -4.0140701 9.0405619e-05)
(0.0001140677 -4.0138859 9.043089e-05)
(-0.00018672743 -4.01413 9.0384583e-05)
(9.1781742e-06 -4.0138205 9.044076e-05)
(-0.00010323677 -4.0141821 9.0361799e-05)
(-0.0002357959 -4.0137643 9.0562143e-05)
(0.00011433752 -4.0141854 9.0295676e-05)
(-0.00070274676 -4.0005702 9.1371223e-05)
(-0.00055983413 4.6862064 -6.9084949e-05)
(7.8879437e-05 4.7032254 -6.806778e-05)
(-0.00023034987 4.7017556 -6.8425538e-05)
(-9.442726e-05 4.7028365 -6.8232231e-05)
(-2.8624429e-05 4.7020031 -6.8318244e-05)
(-0.00017408848 4.7026158 -6.8269542e-05)
(6.8939175e-05 4.7021571 -6.8306598e-05)
(-0.00018998801 4.7024734 -6.8291245e-05)
(0.00012598745 4.702266 -6.8300222e-05)
(-0.00016696474 4.7023636 -6.8297244e-05)
(0.0001669647 4.7023636 -6.8297244e-05)
(-0.00012598749 4.702266 -6.8300222e-05)
(0.00018998798 4.7024734 -6.8291244e-05)
(-6.8939197e-05 4.7021571 -6.8306597e-05)
(0.00017408846 4.7026158 -6.8269541e-05)
(2.8624414e-05 4.7020031 -6.8318243e-05)
(9.4427238e-05 4.7028365 -6.8232225e-05)
(0.00023034985 4.7017556 -6.8425538e-05)
(-7.8879458e-05 4.7032254 -6.806778e-05)
(0.00055983412 4.6862064 -6.9084949e-05)
(-0.0005629535 -5.5634547 0.0049285843)
(0.0007015955 -5.5837227 0.0049653072)
(-0.00045297134 -5.5822061 0.0049578133)
(0.00059301331 -5.5833793 0.0049598576)
(-0.00041160468 -5.5824505 0.0049588693)
(0.00052494727 -5.583154 0.0049594125)
(-0.00040175891 -5.5826131 0.0049590253)
(0.00047127591 -5.5829913 0.0049592863)
(-0.00040963214 -5.5827391 0.0049591148)
(0.00043135137 -5.5828585 0.0049591965)
(-0.00043135136 -5.5828585 0.0049591965)
(0.00040963214 -5.5827391 0.0049591148)
(-0.0004712759 -5.5829913 0.0049592863)
(0.00040175892 -5.5826131 0.0049590253)
(-0.00052494726 -5.583154 0.0049594125)
(0.00041160468 -5.5824505 0.0049588693)
(-0.00059301331 -5.5833793 0.0049598576)
(0.00045297134 -5.5822061 0.0049578133)
(-0.00070159549 -5.5837227 0.0049653072)
(0.0005629535 -5.5634547 0.0049285843)
(-0.0034884522 1.2803177 -0.002016835)
(0.0001912211 1.2834082 -0.0020438535)
(-0.00032616617 1.2838787 -0.0020346281)
(5.3566437e-05 1.2838703 -0.0020360535)
(-0.00010410871 1.283874 -0.002035269)
(3.3761559e-05 1.2839103 -0.0020354305)
(-5.9732337e-05 1.2838814 -0.0020353226)
(3.8837677e-05 1.283916 -0.0020353685)
(-4.397585e-05 1.2838974 -0.0020353486)
(4.0598717e-05 1.2839117 -0.0020353603)
(-4.0598762e-05 1.2839117 -0.0020353603)
(4.3975816e-05 1.2838974 -0.0020353486)
(-3.8837692e-05 1.283916 -0.0020353685)
(5.9732334e-05 1.2838814 -0.0020353226)
(-3.3761549e-05 1.2839103 -0.0020354305)
(0.00010410871 1.283874 -0.002035269)
(-5.3566449e-05 1.2838703 -0.0020360535)
(0.00032616615 1.2838787 -0.0020346281)
(-0.00019122115 1.2834082 -0.0020438535)
(0.0034884522 1.2803177 -0.002016835)
(0.00072404081 -1.5384728 -0.001001677)
(0.00015619802 -1.5442093 -0.00099650068)
(-0.00017740339 -1.5436959 -0.0010018975)
(5.4602696e-05 -1.5437962 -0.0010012886)
(-9.0798216e-05 -1.5437255 -0.0010018493)
(3.8238471e-05 -1.5437805 -0.0010018015)
(-5.8478283e-05 -1.543736 -0.0010018568)
(4.7215301e-05 -1.5437783 -0.0010018715)
(-4.7062836e-05 -1.5437562 -0.0010018657)
(4.8222078e-05 -1.543773 -0.0010018726)
(-4.8222116e-05 -1.543773 -0.0010018726)
(4.7062809e-05 -1.5437562 -0.0010018657)
(-4.721531e-05 -1.5437783 -0.0010018715)
(5.8478284e-05 -1.543736 -0.0010018568)
(-3.8238462e-05 -1.5437805 -0.0010018015)
(9.0798218e-05 -1.5437255 -0.0010018493)
(-5.4602704e-05 -1.5437962 -0.0010012886)
(0.00017740336 -1.5436959 -0.0010018975)
(-0.00015619806 -1.5442093 -0.00099650067)
(-0.00072404085 -1.5384728 -0.001001677)
(0.00041991966 1.7490656 -0.00039638721)
(1.1457548e-05 1.7538336 -0.00039924437)
(-0.00014925637 1.7542485 -0.00039861989)
(3.4958893e-05 1.7541326 -0.00039863756)
(-9.7417469e-05 1.7541998 -0.00039874809)
(2.7027673e-05 1.7542379 -0.00039872825)
(-5.924243e-05 1.75421 -0.00039874862)
(2.6262487e-05 1.7542582 -0.00039874954)
(-4.1323658e-05 1.7542303 -0.00039874268)
(3.0336952e-05 1.75425 -0.00039874911)
(-3.0336996e-05 1.75425 -0.00039874911)
(4.1323623e-05 1.7542303 -0.00039874268)
(-2.6262502e-05 1.7542582 -0.00039874955)
(5.9242429e-05 1.75421 -0.00039874862)
(-2.7027663e-05 1.7542379 -0.00039872825)
(9.7417472e-05 1.7541998 -0.00039874809)
(-3.49589e-05 1.7541326 -0.00039863756)
(0.00014925635 1.7542485 -0.00039861989)
(-1.1457591e-05 1.7538336 -0.00039924437)
(-0.00041991969 1.7490656 -0.00039638721)
(0.00034558802 -2.1149126 -8.8921311e-05)
(8.4315068e-06 -2.1220927 -8.7861223e-05)
(4.7778948e-05 -2.1217585 -8.842124e-05)
(2.4145378e-05 -2.1219553 -8.8403224e-05)
(-2.0377301e-05 -2.1218 -8.8377036e-05)
(4.7207278e-05 -2.1219087 -8.8373367e-05)
(-4.5716977e-05 -2.1218233 -8.8375015e-05)
(6.4510364e-05 -2.1218912 -8.8368278e-05)
(-5.3908332e-05 -2.1218538 -8.8376535e-05)
(6.4550868e-05 -2.1218785 -8.8372672e-05)
(-6.4550871e-05 -2.1218785 -8.8372672e-05)
(5.3908336e-05 -2.1218538 -8.8376535e-05)
(-6.4510351e-05 -2.1218911 -8.8368277e-05)
(4.5717006e-05 -2.1218233 -8.8375015e-05)
(-4.7207252e-05 -2.1219087 -8.8373364e-05)
(2.0377325e-05 -2.1218 -8.8377035e-05)
(-2.414537e-05 -2.1219553 -8.8403223e-05)
(-4.7778943e-05 -2.1217585 -8.8421239e-05)
(-8.431521e-06 -2.1220927 -8.7861219e-05)
(-0.00034558803 -2.1149126 -8.8921309e-05)
(0.0001286404 2.427429 -3.3084018e-05)
(-5.8335451e-05 2.4350379 -3.3165017e-05)
(-8.1592681e-05 2.4350283 -3.3156895e-05)
(5.7279475e-06 2.4351034 -3.3073083e-05)
(-7.7857362e-05 2.4350229 -3.3140587e-05)
(6.2318192e-06 2.4351402 -3.311015e-05)
(-4.9127833e-05 2.4350533 -3.3130212e-05)
(-3.4410266e-06 2.4351433 -3.3130897e-05)
(-3.0023196e-05 2.4350908 -3.3131547e-05)
(5.8331822e-06 2.4351234 -3.3136487e-05)
(-5.8332192e-06 2.4351234 -3.3136488e-05)
(3.0023173e-05 2.4350908 -3.3131548e-05)
(3.4410254e-06 2.4351433 -3.3130898e-05)
(4.9127848e-05 2.4350533 -3.3130212e-05)
(-6.2317924e-06 2.4351402 -3.3110143e-05)
(7.785738e-05 2.4350229 -3.3140585e-05)
(-5.7279424e-06 2.4351034 -3.3073084e-05)
(8.1592676e-05 2.4350283 -3.31569e-05)
(5.8335437e-05 2.4350379 -3.3165017e-05)
(-0.00012864041 2.427429 -3.3084021e-05)
(0.00028592049 -2.9086503 -7.1752193e-06)
(-4.9028293e-05 -2.9183437 -6.5000286e-06)
(0.00014343981 -2.9180504 -6.63557e-06)
(1.8574721e-05 -2.9183305 -6.5833011e-06)
(2.5744272e-05 -2.9180897 -6.6025218e-06)
(8.1726312e-05 -2.9182876 -6.5797295e-06)
(-4.316182e-05 -2.9181397 -6.6059461e-06)
(0.00011053779 -2.9182521 -6.5799795e-06)
(-7.6957329e-05 -2.9181801 -6.5977714e-06)
(0.00010478505 -2.9182148 -6.5850786e-06)
(-0.00010478501 -2.9182148 -6.5850791e-06)
(7.6957368e-05 -2.9181801 -6.5977717e-06)
(-0.00011053775 -2.9182521 -6.5799796e-06)
(4.3161859e-05 -2.9181397 -6.6059467e-06)
(-8.1726274e-05 -2.9182876 -6.5797291e-06)
(-2.5744248e-05 -2.9180897 -6.6025217e-06)
(-1.85747e-05 -2.9183305 -6.5833012e-06)
(-0.0001434398 -2.9180504 -6.6355703e-06)
(4.90283e-05 -2.9183437 -6.5000275e-06)
(-0.00028592048 -2.9086503 -7.1752194e-06)
(-0.0001292723 3.3753712 8.9701527e-06)
(-2.5487215e-05 3.386461 9.0088958e-06)
(-9.7347741e-05 3.3861347 8.9598338e-06)
(-3.2001815e-05 3.386513 8.9768719e-06)
(-5.8066632e-05 3.3861946 8.9758765e-06)
(-5.5170457e-05 3.3864738 8.9654745e-06)
(-1.803961e-05 3.3862587 8.9837345e-06)
(-6.2720497e-05 3.3864222 8.9676058e-06)
(1.4324683e-05 3.3863138 8.9811059e-06)
(-4.5215138e-05 3.386366 8.9739068e-06)
(4.521515e-05 3.386366 8.9739071e-06)
(-1.4324663e-05 3.3863138 8.9811071e-06)
(6.272055e-05 3.3864222 8.9676063e-06)
(1.8039664e-05 3.3862587 8.9837339e-06)
(5.5170528e-05 3.3864738 8.965475e-06)
(5.8066687e-05 3.3861946 8.9758771e-06)
(3.2001853e-05 3.386513 8.9768723e-06)
(9.7347761e-05 3.3861347 8.9598338e-06)
(2.548722e-05 3.386461 9.008897e-06)
(0.0001292723 3.3753712 8.9701544e-06)
(0.00070274675 -4.0005702 -9.1371224e-05)
(-0.00011433753 -4.0141854 -9.0295672e-05)
(0.0002357959 -4.0137643 -9.0562141e-05)
(0.00010323674 -4.0141821 -9.03618e-05)
(-9.178191e-06 -4.0138205 -9.0440761e-05)
(0.00018672741 -4.01413 -9.0384583e-05)
(-0.00011406772 -4.0138859 -9.0430883e-05)
(0.00021032427 -4.0140701 -9.0405616e-05)
(-0.00016490624 -4.0139477 -9.0422279e-05)
(0.00019705673 -4.014008 -9.0415316e-05)
(-0.00019705674 -4.014008 -9.0415306e-05)
(0.00016490624 -4.0139477 -9.0422288e-05)
(-0.00021032428 -4.0140701 -9.0405616e-05)
(0.0001140677 -4.0138859 -9.0430887e-05)
(-0.00018672743 -4.01413 -9.0384581e-05)
(9.1781743e-06 -4.0138205 -9.0440759e-05)
(-0.00010323677 -4.0141821 -9.0361798e-05)
(-0.00023579591 -4.0137643 -9.0562137e-05)
(0.00011433751 -4.0141854 -9.0295672e-05)
(-0.00070274676 -4.0005702 -9.137122e-05)
(-0.00055983413 4.6862064 6.908494e-05)
(7.8879435e-05 4.7032254 6.806777e-05)
(-0.00023034987 4.7017556 6.8425529e-05)
(-9.4427261e-05 4.7028365 6.8232221e-05)
(-2.8624429e-05 4.7020031 6.8318233e-05)
(-0.00017408848 4.7026158 6.8269531e-05)
(6.8939176e-05 4.7021571 6.8306588e-05)
(-0.00018998801 4.7024734 6.8291234e-05)
(0.00012598745 4.702266 6.8300212e-05)
(-0.00016696474 4.7023636 6.8297235e-05)
(0.0001669647 4.7023636 6.8297234e-05)
(-0.00012598749 4.702266 6.8300212e-05)
(0.00018998798 4.7024734 6.8291235e-05)
(-6.8939197e-05 4.7021571 6.8306587e-05)
(0.00017408846 4.7026158 6.8269531e-05)
(2.8624414e-05 4.7020031 6.8318233e-05)
(9.4427238e-05 4.7028365 6.8232214e-05)
(0.00023034985 4.7017556 6.8425529e-05)
(-7.8879457e-05 4.7032254 6.8067771e-05)
(0.00055983412 4.6862064 6.9084941e-05)
(-0.0005629535 -5.5634547 -0.0049285843)
(0.00070159549 -5.5837227 -0.0049653072)
(-0.00045297133 -5.5822061 -0.0049578133)
(0.00059301331 -5.5833793 -0.0049598576)
(-0.00041160468 -5.5824505 -0.0049588693)
(0.00052494727 -5.583154 -0.0049594125)
(-0.00040175891 -5.5826131 -0.0049590253)
(0.00047127591 -5.5829913 -0.0049592863)
(-0.00040963214 -5.5827391 -0.0049591148)
(0.00043135137 -5.5828585 -0.0049591965)
(-0.00043135136 -5.5828585 -0.0049591965)
(0.00040963214 -5.5827391 -0.0049591148)
(-0.0004712759 -5.5829913 -0.0049592863)
(0.00040175892 -5.5826131 -0.0049590253)
(-0.00052494726 -5.583154 -0.0049594125)
(0.00041160469 -5.5824505 -0.0049588693)
(-0.00059301331 -5.5833793 -0.0049598576)
(0.00045297134 -5.5822061 -0.0049578133)
(-0.00070159549 -5.5837227 -0.0049653072)
(0.0005629535 -5.5634547 -0.0049285843)
(-0.0034254682 1.2673093 0.0065208168)
(0.0001831653 1.2703849 0.0065327431)
(-0.00031894025 1.2708339 0.0065460674)
(5.2857617e-05 1.270828 0.0065443821)
(-0.00010280523 1.27083 0.0065453828)
(3.3458332e-05 1.2708662 0.0065453866)
(-5.9131342e-05 1.2708373 0.0065453938)
(3.8520456e-05 1.2708718 0.0065455134)
(-4.3538283e-05 1.2708533 0.0065454452)
(4.0233683e-05 1.2708674 0.0065454966)
(-4.0233727e-05 1.2708674 0.0065454966)
(4.353825e-05 1.2708533 0.0065454452)
(-3.852047e-05 1.2708718 0.0065455134)
(5.9131333e-05 1.2708373 0.0065453938)
(-3.3458317e-05 1.2708662 0.0065453866)
(0.00010280522 1.27083 0.0065453828)
(-5.2857628e-05 1.270828 0.0065443821)
(0.00031894022 1.2708339 0.0065460674)
(-0.00018316535 1.2703849 0.0065327431)
(0.0034254682 1.2673093 0.0065208168)
(0.00072023805 -1.5174923 -0.0010092682)
(0.00015599314 -1.5231041 -0.0010053949)
(-0.00017839015 -1.5226045 -0.0010108549)
(5.4215133e-05 -1.5227024 -0.0010102877)
(-9.0274957e-05 -1.5226328 -0.0010108175)
(3.7891976e-05 -1.5226871 -0.00101079)
(-5.7972838e-05 -1.5226431 -0.0010108301)
(4.6833762e-05 -1.5226849 -0.0010108541)
(-4.6597499e-05 -1.5226631 -0.0010108425)
(4.7797889e-05 -1.5226798 -0.0010108524)
(-4.7797927e-05 -1.5226798 -0.0010108524)
(4.6597472e-05 -1.5226631 -0.0010108425)
(-4.6833771e-05 -1.5226849 -0.0010108541)
(5.7972839e-05 -1.5226431 -0.0010108301)
(-3.7891967e-05 -1.5226871 -0.00101079)
(9.0274958e-05 -1.5226328 -0.0010108175)
(-5.421514e-05 -1.5227024 -0.0010102877)
(0.00017839013 -1.5226045 -0.0010108549)
(-0.00015599318 -1.5231041 -0.0010053949)
(-0.00072023809 -1.5174923 -0.0010092682)
(0.00041546006 1.7283906 -0.00028402774)
(1.0798043e-05 1.7330605 -0.0002867043)
(-0.00014728912 1.7334772 -0.00028641248)
(3.4740655e-05 1.7333617 -0.00028635618)
(-9.6458025e-05 1.7334283 -0.00028651489)
(2.6880267e-05 1.7334661 -0.0002864932)
(-5.866125e-05 1.7334384 -0.00028651483)
(2.6074062e-05 1.7334862 -0.00028652203)
(-4.0934319e-05 1.7334585 -0.00028651218)
(3.0062902e-05 1.733478 -0.00028652133)
(-3.0062946e-05 1.733478 -0.00028652133)
(4.0934285e-05 1.7334585 -0.00028651218)
(-2.6074077e-05 1.7334862 -0.00028652203)
(5.866125e-05 1.7334384 -0.00028651482)
(-2.6880257e-05 1.7334661 -0.0002864932)
(9.6458026e-05 1.7334283 -0.00028651489)
(-3.4740663e-05 1.7333617 -0.00028635618)
(0.0001472891 1.7334772 -0.00028641248)
(-1.0798082e-05 1.7330605 -0.0002867043)
(-0.00041546008 1.7283906 -0.00028402773)
(0.00034190005 -2.0881632 -0.00021261065)
(8.7612545e-06 -2.0952109 -0.000213367)
(4.6843471e-05 -2.0948809 -0.00021363887)
(2.3852931e-05 -2.0950754 -0.00021373793)
(-2.0242918e-05 -2.0949218 -0.00021362702)
(4.6728926e-05 -2.0950294 -0.00021365256)
(-4.5308683e-05 -2.0949447 -0.00021363201)
(6.3954912e-05 -2.0950119 -0.00021363244)
(-5.338366e-05 -2.094975 -0.00021363507)
(6.3984996e-05 -2.0949994 -0.00021363274)
(-6.3984999e-05 -2.0949994 -0.00021363274)
(5.3383664e-05 -2.094975 -0.00021363507)
(-6.3954899e-05 -2.0950119 -0.00021363244)
(4.5308712e-05 -2.0949447 -0.00021363201)
(-4.6728901e-05 -2.0950294 -0.00021365256)
(2.0242944e-05 -2.0949218 -0.00021362702)
(-2.3852924e-05 -2.0950754 -0.00021373793)
(-4.6843468e-05 -2.0948809 -0.00021363887)
(-8.7612685e-06 -2.0952109 -0.000213367)
(-0.00034190005 -2.0881632 -0.00021261065)
(0.0001286054 2.3974051 9.4254081e-05)
(-5.7693406e-05 2.4048747 9.4810813e-05)
(-8.0495516e-05 2.404866 9.4680667e-05)
(5.9443014e-06 2.40494 9.4812835e-05)
(-7.6968632e-05 2.4048604 9.4711053e-05)
(6.3690303e-06 2.4049765 9.4740486e-05)
(-4.8612306e-05 2.4048905 9.4718726e-05)
(-3.3844088e-06 2.4049796 9.471076e-05)
(-2.9778491e-05 2.4049276 9.4712636e-05)
(5.766389e-06 2.4049599 9.4704871e-05)
(-5.7664265e-06 2.4049599 9.4704871e-05)
(2.9778468e-05 2.4049276 9.4712636e-05)
(3.3844077e-06 2.4049796 9.471076e-05)
(4.8612321e-05 2.4048905 9.4718726e-05)
(-6.3690042e-06 2.4049765 9.4740481e-05)
(7.696865e-05 2.4048604 9.4711051e-05)
(-5.944295e-06 2.40494 9.4812835e-05)
(8.0495511e-05 2.404866 9.4680672e-05)
(5.7693391e-05 2.4048747 9.4810813e-05)
(-0.00012860541 2.3974051 9.4254085e-05)
(0.00028205466 -2.8716555 -0.00013878059)
(-4.8478914e-05 -2.881169 -0.00013963287)
(0.000141791 -2.8808788 -0.00013973545)
(1.8052274e-05 -2.881156 -0.00013969225)
(2.5447211e-05 -2.8809177 -0.00013969481)
(8.0829355e-05 -2.8811136 -0.00013967329)
(-4.2754082e-05 -2.8809672 -0.00013969214)
(0.00010955843 -2.8810786 -0.00013966734)
(-7.6201618e-05 -2.8810072 -0.00013968168)
(0.00010386319 -2.8810415 -0.0001396696)
(-0.00010386315 -2.8810415 -0.00013966959)
(7.6201659e-05 -2.8810072 -0.00013968168)
(-0.0001095584 -2.8810786 -0.00013966734)
(4.2754122e-05 -2.8809672 -0.00013969214)
(-8.082932e-05 -2.8811136 -0.00013967329)
(-2.5447183e-05 -2.8809177 -0.00013969481)
(-1.8052255e-05 -2.881156 -0.00013969225)
(-0.00014179099 -2.8808788 -0.00013973545)