/*--------------------------------*- C++ -*----------------------------------*\
  =========                 |
  \\      /  F ield         | OpenFOAM: The Open Source CFD Toolbox
   \\    /   O peration     | Website:  https://openfoam.org
    \\  /    A nd           | Version:  8
     \\/     M anipulation  |
\*---------------------------------------------------------------------------*/
FoamFile
{
    version     2.0;
    format      ascii;
    class       surfaceScalarField;
    location    "1";
    object      phi;
}
// * * * * * * * * * * * * * * * * * * * * * * * * * * * * * * * * * * * * * //

dimensions      [1 0 -1 0 0 0 0];

internalField   nonuniform List<scalar> 
4780
(
-1.2855847e-08
-1.009873e-05
3.21675e-12
-2.6664508e-09
-1.0120603e-05
-5.5072709e-12
-8.6691963e-12
-1.0113564e-05
7.1963827e-13
-4.9863384e-10
-1.0110568e-05
6.0679343e-12
2.5831518e-12
-1.0111529e-05
5.6607117e-13
4.9558632e-10
-1.0111585e-05
-4.6939302e-12
5.3235315e-12
-1.0110593e-05
2.148391e-13
2.6604827e-09
-1.0113551e-05
2.5605278e-12
1.2859777e-08
-1.0120535e-05
2.7067823e-13
-1.0098734e-05
-1.3967356e-13
-3.0555808e-08
-2.5116922e-05
2.6611321e-12
-5.7837713e-09
-2.5192321e-05
-3.6598411e-12
-1.1440946e-11
-2.5167026e-05
6.015135e-13
-1.0861437e-09
-2.5157349e-05
4.2278787e-12
2.0144158e-12
-2.5160445e-05
4.4629458e-13
1.0831996e-09
-2.5160555e-05
-3.1129203e-12
8.4722394e-12
-2.5157398e-05
1.9377882e-13
5.7785995e-09
-2.5167e-05
1.7434518e-12
3.0560144e-08
-2.5192188e-05
1.3888288e-13
-2.5116916e-05
-1.7111511e-13
-2.6673584e-08
-4.5043373e-05
2.6859269e-12
-7.8071229e-09
-4.5164903e-05
-3.5627327e-12
-4.8371482e-11
-4.5128238e-05
6.1952523e-13
-1.4745446e-09
-4.5109597e-05
4.2820035e-12
2.0159034e-12
-4.5115505e-05
4.6493978e-13
1.4714841e-09
-4.5115671e-05
-3.0035717e-12
4.5282334e-11
-4.5109671e-05
2.1395799e-13
7.8018876e-09
-4.51282e-05
1.795089e-12
2.667792e-08
-4.5164705e-05
1.7735561e-13
-4.5043361e-05
-1.3419514e-13
-1.9425094e-08
-6.6822562e-05
2.7758228e-12
-8.9012898e-09
-6.6975499e-05
-3.1607021e-12
-7.6602212e-11
-6.6936683e-05
6.7729014e-13
-1.6961588e-09
-6.6907552e-05
4.3739054e-12
2.0087614e-12
-6.6916792e-05
5.2363501e-13
1.6931121e-09
-6.6917008e-05
-2.6197484e-12
7.3576849e-11
-6.690765e-05
2.6309355e-13
8.8960521e-09
-6.6936632e-05
1.8935207e-12
1.9429414e-08
-6.6975241e-05
2.7407185e-13
-6.6822561e-05
-5.8439697e-14
-1.483438e-08
-8.299981e-05
2.835855e-12
-9.4124868e-09
-8.3174926e-05
-2.7389138e-12
-1.1954951e-10
-8.313962e-05
7.3341886e-13
-1.8165045e-09
-8.3098995e-05
4.4069381e-12
1.9921341e-12
-8.3111961e-05
5.8641244e-13
1.8134447e-09
-8.3112222e-05
-2.20314e-12
1.1667382e-10
-8.3099118e-05
3.0906168e-13
9.4072446e-09
-8.3139557e-05
1.9463643e-12
1.4838669e-08
-8.3174615e-05
3.3340453e-13
-8.2999813e-05
-9.2843996e-15
-1.2097297e-08
-8.7684811e-05
2.9138204e-12
-9.6222779e-09
-8.7876341e-05
-2.1746161e-12
-1.0068917e-10
-8.7847693e-05
8.253805e-13
-1.8799301e-09
-8.7795366e-05
4.4311864e-12
1.9571102e-12
-8.7812164e-05
6.8743712e-13
1.8769501e-09
-8.7812464e-05
-1.6355302e-12
9.7824814e-11
-8.7795512e-05
3.8572911e-13
9.6171074e-09
-8.7847621e-05
2.0094812e-12
1.2101504e-08
-8.7875985e-05
4.1316079e-13
-8.7684831e-05
5.7569522e-14
-1.1162127e-08
-8.0824377e-05
2.9059991e-12
-9.6791575e-09
-8.10292e-05
-1.6065885e-12
-1.3266427e-10
-8.1008284e-05
8.6142579e-13
-1.9215142e-09
-8.0944879e-05
4.3384015e-12
1.9056283e-12
-8.09653e-05
7.1353955e-13
1.9185229e-09
-8.096563e-05
-1.1649357e-12
1.3000138e-10
-8.0945047e-05
4.24511e-13
9.6740448e-09
-8.1008203e-05
1.9713887e-12
1.1166238e-08
-8.1028808e-05
4.0759736e-13
-8.0824412e-05
5.1071136e-14
-1.0330661e-08
-6.7304848e-05
2.8105307e-12
-9.6893341e-09
-6.7519479e-05
-1.1684622e-12
-6.6795158e-11
-6.7507936e-05
8.4027406e-13
-1.947497e-09
-6.7433265e-05
4.1304565e-12
1.8403907e-12
-6.7457476e-05
6.6621941e-13
1.9446282e-09
-6.7457828e-05
-7.4651695e-13
6.407998e-11
-6.7433451e-05
4.1749214e-13
9.6843562e-09
-6.7507847e-05
1.836929e-12
1.0334605e-08
-6.751906e-05
3.2950119e-13
-6.7304888e-05
4.7861543e-15
-1.039855e-08
-5.3822129e-05
2.7064135e-12
-9.6604203e-09
-5.4045858e-05
-6.529259e-13
-1.1788933e-10
-5.4043693e-05
8.1429397e-13
-1.9770964e-09
-5.3958107e-05
3.9001953e-12
1.7568262e-12
-5.3986029e-05
6.1602092e-13
1.9742047e-09
-5.3986395e-05
-2.6049365e-13
1.1544644e-10
-5.395831e-05
4.0590125e-13
9.6555419e-09
-5.4043599e-05
1.6917868e-12
1.0402336e-08
-5.4045424e-05
2.4293259e-13
-5.3822178e-05
-3.7916503e-14
-9.7568607e-09
-4.5637792e-05
2.5638516e-12
-9.6474545e-09
-4.5869495e-05
-1.5174619e-13
-4.1415124e-12
-4.5876501e-05
7.6500408e-13
-1.9951351e-09
-4.5781028e-05
3.6259036e-12
1.6647499e-12
-4.5812276e-05
5.4288508e-13
1.9924144e-09
-4.5812646e-05
2.1236661e-13
1.4736412e-12
-4.5781245e-05
3.7806796e-13
9.6427697e-09
-4.5876403e-05
1.5189729e-12
9.7604085e-09
-4.5869057e-05
1.3480703e-13
-4.5637844e-05
-1.3175423e-13
-1.0142308e-08
-4.4520732e-05
2.4860075e-12
-9.598208e-09
-4.4762017e-05
4.1563429e-13
-1.0201292e-10
-4.4777771e-05
7.6572035e-13
-2.026465e-09
-4.4671936e-05
3.406824e-12
1.5552995e-12
-4.4706759e-05
5.2280105e-13
2.0236986e-09
-4.4707125e-05
6.1572571e-13
9.9885895e-11
-4.4672167e-05
3.9224519e-13
9.5936467e-09
-4.477767e-05
1.4112838e-12
1.0145657e-08
-4.4761583e-05
9.599789e-14
-4.4520792e-05
-1.5758309e-13
-9.2466577e-09
-4.9100033e-05
2.4526696e-12
-9.5903589e-09
-4.9349938e-05
7.9518158e-13
1.1289666e-10
-4.9376643e-05
8.0848936e-13
-2.0367292e-09
-4.9257941e-05
3.2388119e-12
1.4437421e-12
-4.9297457e-05
5.5996612e-13
2.0341971e-09
-4.9297814e-05
1.0179488e-12
-1.1521228e-10
-4.9258183e-05
4.4091805e-13
9.5860422e-09
-4.9376542e-05
1.3693585e-12
9.2497154e-09
-4.9349518e-05
1.0722518e-13
-4.9100107e-05
-1.1980278e-13
-9.9913311e-09
-5.6175791e-05
2.4656246e-12
-9.5161082e-09
-5.6436283e-05
1.2693461e-12
-1.0959874e-10
-5.647324e-05
9.0742584e-13
-2.0722316e-09
-5.6341228e-05
3.0764126e-12
1.3111992e-12
-5.6385696e-05
6.4245541e-13
2.0696153e-09
-5.6386034e-05
1.5041717e-12
1.0804383e-10
-5.6341481e-05
5.2796121e-13
9.5119332e-09
-5.6473139e-05
1.3372599e-12
9.9941435e-09
-5.6435885e-05
1.4693205e-13
-5.6175883e-05
-7.3712962e-14
-8.6261525e-09
-6.2054383e-05
2.4770477e-12
-9.5264488e-09
-6.2322198e-05
1.7183186e-12
2.6664196e-10
-6.2372529e-05
1.0627843e-12
-2.071011e-09
-6.2224603e-05
2.9304492e-12
1.1865574e-12
-6.2275237e-05
7.493243e-13
2.0687211e-09
-6.2275552e-05
2.0040313e-12
-2.6845586e-10
-6.2224864e-05
6.9324566e-13
9.522557e-09
-6.237243e-05
1.3358264e-12
8.628626e-09
-6.232183e-05
2.2341977e-13
-6.2054499e-05
4.3918955e-15
-9.9418362e-09
-6.423892e-05
2.4572998e-12
-9.4135884e-09
-6.4516971e-05
2.3278557e-12
-1.5613447e-10
-6.4578507e-05
1.157258e-12
-2.1165352e-09
-6.4415796e-05
2.7233123e-12
1.0322532e-12
-6.4472191e-05
7.8725108e-13
2.1142027e-09
-6.4472476e-05
2.7123493e-12
1.5457497e-10
-6.4416063e-05
8.0474632e-13
9.4098828e-09
-6.4578411e-05
1.273801e-12
9.944012e-09
-6.4516637e-05
2.3962712e-13
-6.423906e-05
3.2559319e-14
-7.8431943e-09
-6.2362455e-05
2.2681389e-12
-9.4689873e-09
-6.2646774e-05
2.8085811e-12
4.9593308e-10
-6.2721195e-05
1.1442129e-12
-2.1017708e-09
-6.2543975e-05
2.4469949e-12
9.0457984e-13
-6.2606075e-05
7.5700609e-13
2.0997656e-09
-6.260633e-05
3.1050396e-12
-4.9744813e-10
-6.2544246e-05
8.2768721e-13
9.4655542e-09
-6.2721103e-05
1.1629239e-12
7.8449772e-09
-6.2646477e-05
2.2452793e-13
-6.2362617e-05
3.368666e-14
-1.0033848e-08
-5.7947891e-05
2.0895939e-12
-9.2947188e-09
-5.8242807e-05
3.1255651e-12
-2.5286683e-10
-5.832612e-05
1.0981696e-12
-2.1664187e-09
-5.8137154e-05
2.1326859e-12
7.2808714e-13
-5.8203889e-05
6.8719243e-13
2.1644361e-09
-5.8204111e-05
3.3787368e-12
2.5153806e-10
-5.8137427e-05
8.0597643e-13
9.2915166e-09
-5.8326033e-05
1.0078995e-12
1.0035281e-08
-5.8242546e-05
1.6372951e-13
-5.7948072e-05
4.9408751e-15
-6.8441694e-09
-5.3621302e-05
1.7166356e-12
-9.4285846e-09
-5.3920987e-05
2.8922511e-12
8.4212194e-10
-5.4013625e-05
9.4446559e-13
-2.1304381e-09
-5.381604e-05
1.7428768e-12
6.1184127e-13
-5.3886133e-05
5.5052317e-13
2.1287204e-09
-5.3886322e-05
3.2157433e-12
-8.434044e-10
-5.3816311e-05
7.0146564e-13
9.4256211e-09
-5.4013543e-05
8.0769423e-13
6.8451673e-09
-5.3920759e-05
8.8249213e-14
-5.3621494e-05
-2.793524e-14
-1.0314984e-08
-5.1364512e-05
1.4704881e-12
-9.1580281e-09
-5.1676064e-05
2.8877979e-12
-4.2701846e-10
-5.1772467e-05
8.5153623e-13
-2.226444e-09
-5.1569367e-05
1.4015147e-12
4.0572334e-13
-5.1641631e-05
4.4925508e-13
2.2248264e-09
-5.1641785e-05
3.2349252e-12
4.2592919e-10
-5.1569634e-05
6.3382646e-13
9.1553615e-09
-5.1772391e-05
6.3468627e-13
1.0315575e-08
-5.1675872e-05
1.8988562e-14
-5.1364713e-05
-8.4131078e-14
-5.5704841e-09
-5.2098375e-05
1.0395402e-12
-9.3943638e-09
-5.2411644e-05
2.2395469e-12
1.325665e-09
-5.2520908e-05
6.9504053e-13
-2.1455109e-09
-5.2305786e-05
1.0403746e-12
3.2417183e-13
-5.2383121e-05
3.4527356e-13
2.1440697e-09
-5.2383242e-05
2.7596639e-12
-1.3267639e-09
-5.2306047e-05
5.4138352e-13
9.3918711e-09
-5.2520837e-05
4.9609079e-13
5.5706439e-09
-5.241148e-05
3.2406334e-15
-5.2098583e-05
-7.4240352e-14
-1.084773e-08
-5.5541911e-05
8.0218398e-13
-8.9888175e-09
-5.5867874e-05
2.0927742e-12
-7.2868952e-10
-5.5981374e-05
6.3416137e-13
-2.2946887e-09
-5.5759026e-05
7.7008103e-13
7.0428356e-14
-5.5839547e-05
2.9370924e-13
2.2934457e-09
-5.5839631e-05
2.6821357e-12
7.2777748e-10
-5.5759278e-05
5.0567958e-13
8.9867127e-09
-5.598131e-05
3.9067693e-13
1.0847402e-08
-5.5867744e-05
-1.7620913e-14
-5.5542126e-05
-7.3829936e-14
-3.9569963e-09
-5.9889508e-05
3.0582332e-13
-9.3586323e-09
-6.021238e-05
1.0146929e-12
1.9734716e-09
-6.03484e-05
4.6985832e-13
-2.1353378e-09
-6.0103051e-05
4.9142574e-13
5.2598377e-14
-6.0193671e-05
2.1740426e-13
2.1341716e-09
-6.0193719e-05
1.9076175e-12
-1.9744845e-09
-6.0103295e-05
4.1893076e-13
9.3566035e-09
-6.0348342e-05
3.1877931e-13
3.9563238e-09
-6.0212275e-05
7.1813945e-15
-5.9889732e-05
-9.5783721e-15
-1.1707853e-08
-6.4131337e-05
2.0631118e-14
-8.7794308e-09
-6.4467614e-05
6.6471086e-13
-1.2116487e-09
-6.46116e-05
3.9901487e-13
-2.3731462e-09
-6.435297e-05
2.4904767e-13
-1.9096351e-13
-6.4449716e-05
1.6967318e-13
2.3722578e-09
-6.4449726e-05
1.7094879e-12
1.2108701e-09
-6.4353201e-05
3.7222634e-13
8.77788e-09
-6.4611549e-05
2.2574891e-13
1.1706556e-08
-6.4467541e-05
-8.0447156e-16
-6.4131565e-05
-8.3467835e-16
-1.9311006e-09
-6.6955645e-05
-4.1817891e-13
-9.3423878e-09
-6.7284538e-05
-6.1817325e-13
2.8589033e-09
-6.7455043e-05
1.0743919e-13
-2.1034038e-09
-6.7170239e-05
-5.2317594e-15
-1.5686004e-13
-6.7278695e-05
1.5653186e-14
2.1024753e-09
-6.7278671e-05
3.9990682e-13
-2.8599312e-09
-6.7170458e-05
1.8755499e-13
9.3407758e-09
-6.7454998e-05
1.1796755e-13
1.9297605e-09
-6.7284484e-05
6.0336949e-15
-6.6955874e-05
3.7376152e-14
-1.2981707e-08
-6.8694253e-05
-6.4604192e-13
-8.5451206e-09
-6.9039662e-05
-8.9156507e-13
-1.9095843e-09
-6.9215253e-05
6.9401832e-15
-2.4759839e-09
-6.8919309e-05
-3.4675098e-13
-4.9077123e-13
-6.9033214e-05
-4.7225343e-14
2.4754052e-09
-6.9033157e-05
6.7397218e-14
1.9088888e-09
-6.8919511e-05
6.8261068e-14
8.5440728e-09
-6.9215215e-05
-2.3828432e-14
1.2979421e-08
-6.903963e-05
-3.4330508e-14
-6.8694477e-05
1.6091802e-16
5.8956625e-10
-6.9859253e-05
-1.3354746e-12
-9.3603444e-09
-7.0193379e-05
-2.374697e-12
4.0625773e-09
-7.0395195e-05
-2.118201e-13
-2.0513374e-09
-7.0075896e-05
-6.8414064e-13
-3.1632213e-13
-7.0200363e-05
-1.7780061e-13
2.0505627e-09
-7.0200285e-05
-1.0537143e-12
-4.0636938e-09
-7.007608e-05
-1.0284567e-13
9.3590698e-09
-7.0395162e-05
-1.4784885e-13
-5.9134643e-10
-7.0193349e-05
-5.5212706e-14
-6.9859465e-05
1.9075041e-14
-1.4775839e-08
-7.1486796e-05
-1.5795451e-12
-8.2968463e-09
-7.1842372e-05
-2.6865233e-12
-2.8674243e-09
-7.2041389e-05
-3.0216541e-13
-2.6151728e-09
-7.1718935e-05
-1.0332839e-12
-7.2650913e-13
-7.1845449e-05
-2.5079568e-13
2.6148506e-09
-7.1845353e-05
-1.4579856e-12
2.8667602e-09
-7.1719097e-05
-1.9188135e-13
8.2962194e-09
-7.2041363e-05
-3.3152949e-13
1.4772588e-08
-7.1842346e-05
-1.3584952e-13
-7.148699e-05
-4.239051e-14
3.8836446e-09
-7.358526e-05
-2.3088636e-12
-9.3971837e-09
-7.3922589e-05
-4.6087847e-12
5.6380076e-09
-7.4154588e-05
-5.4527565e-13
-1.9641812e-09
-7.3803715e-05
-1.3028655e-12
-4.0826092e-13
-7.3942836e-05
-3.9093608e-13
1.9634897e-09
-7.3942739e-05
-3.1530186e-12
-5.6392679e-09
-7.3803855e-05
-3.614899e-13
9.3961794e-09
-7.4154566e-05
-3.9557572e-13
-3.8865539e-09
-7.3922548e-05
-1.0528032e-13
-7.3585433e-05
1.3393797e-14
-1.7227136e-08
-7.663376e-05
-2.4751964e-12
-8.0240196e-09
-7.6997238e-05
-4.9284968e-12
-4.1705792e-09
-7.7223297e-05
-6.1850012e-13
-2.7889569e-09
-7.6870803e-05
-1.6270005e-12
-9.1882998e-13
-7.7011134e-05
-4.3364593e-13
2.7888572e-09
-7.7011043e-05
-3.8763259e-12
4.1699097e-09
-7.6870918e-05
-4.5646616e-13
8.0237291e-09
-7.722328e-05
-5.6380012e-13
1.7222984e-08
-7.6997186e-05
-1.6546014e-13
-7.6633909e-05
-2.4305337e-14
7.9472662e-09
-7.9267305e-05
-3.1669626e-12
-9.4424861e-09
-7.9603047e-05
-7.3857336e-12
7.6546345e-09
-7.9874046e-05
-8.5845069e-13
-1.8251271e-09
-7.9482556e-05
-1.8278114e-12
-4.5618748e-13
-7.9639587e-05
-5.5178017e-13
1.8244872e-09
-7.9639526e-05
-6.7604781e-12
-7.6560708e-09
-7.9482648e-05
-6.3353078e-13
9.4417059e-09
-7.9874033e-05
-5.7408551e-13
-7.9511204e-09
-7.9602961e-05
-9.9756941e-14
-7.9267427e-05
5.3099025e-14
-2.0501034e-08
-8.1826578e-05
-3.2935988e-12
-7.7237334e-09
-8.2194355e-05
-7.6444761e-12
-5.9115033e-09
-8.2458854e-05
-9.2865034e-13
-2.9952416e-09
-8.2063566e-05
-2.1479834e-12
-1.0977242e-12
-8.2222355e-05
-6.0208377e-13
2.9953839e-09
-8.2222331e-05
-8.0423851e-12
5.9108145e-09
-8.2063632e-05
-7.4923099e-13
7.7237033e-09
-8.2458845e-05
-7.5142268e-13
2.0496057e-08
-8.2194242e-05
-1.6032653e-13
-8.1826672e-05
6.9324473e-15
1.2999386e-08
-8.3442884e-05
-3.993998e-12
-9.5056953e-09
-8.3773018e-05
-1.0830454e-11
1.0222943e-08
-8.4090574e-05
-1.2083028e-12
-1.6256922e-09
-8.3651629e-05
-2.3386687e-12
-5.2497358e-13
-8.3828205e-05
-7.6133351e-13
1.6251004e-09
-8.3828253e-05
-1.2432607e-11
-1.0224534e-08
-8.3651671e-05
-1.0083438e-12
9.5051184e-09
-8.4090567e-05
-7.5752461e-13
-1.3004096e-08
-8.3772853e-05
-1.0749578e-13
-8.3442945e-05
7.5757575e-14
-2.4793999e-08
-8.4943882e-05
-4.1140542e-12
-7.4203862e-09
-8.531578e-05
-1.0719128e-11
-8.161336e-09
-8.5618388e-05
-1.3189996e-12
-3.2448155e-09
-8.5182464e-05
-2.6829347e-12
-1.307213e-12
-8.535723e-05
-8.7570521e-13
3.2452736e-09
-8.5357354e-05
-1.3756347e-11
8.1606559e-09
-8.5182481e-05
-1.1920986e-12
7.4205628e-09
-8.5618383e-05
-9.8618611e-13
2.4788291e-08
-8.5315572e-05
-2.0971244e-13
-8.4943908e-05
-6.9269785e-15
1.9268013e-08
-8.6245742e-05
-4.7685263e-12
-9.5777946e-09
-8.6568491e-05
-1.398045e-11
1.3446895e-08
-8.6931331e-05
-1.5996604e-12
-1.3502263e-09
-8.6449531e-05
-2.873049e-12
-7.2237704e-13
-8.6641841e-05
-1.0555645e-12
1.3496962e-09
-8.6642083e-05
-1.9718899e-11
-1.3448538e-08
-8.6449524e-05
-1.5074165e-12
9.5774555e-09
-8.6931327e-05
-9.7791323e-13
-1.9273518e-08
-8.6568223e-05
-1.3557556e-13
-8.624573e-05
7.0586151e-14
-3.0347461e-08
-8.8478509e-05
-4.8265371e-12
-7.1354698e-09
-8.8856069e-05
-1.2991152e-11
-1.1011905e-08
-8.9188055e-05
-1.7093035e-12
-3.5474546e-09
-8.8723985e-05
-3.20125e-12
-1.6106913e-12
-8.8907504e-05
-1.2026183e-12
3.5483238e-09
-8.8907852e-05
-2.0221289e-11
1.1011333e-08
-8.8723954e-05
-1.6911918e-12
7.1357989e-09
-8.9188052e-05
-1.2361534e-12
3.0341159e-08
-8.885576e-05
-2.5252146e-13
-8.8478457e-05
-1.4984468e-14
2.7017575e-08
-9.0598045e-05
-5.3438495e-12
-9.6221607e-09
-9.0911079e-05
-1.5128008e-11
1.7411274e-08
-9.1314972e-05
-1.8800453e-12
-9.673819e-10
-9.079856e-05
-3.4118702e-12
-1.1943979e-12
-9.1001364e-05
-1.3666688e-12
9.6687408e-10
-9.1001855e-05
-2.804061e-11
-1.7412778e-08
-9.0798505e-05
-1.9759058e-12
9.6221141e-09
-9.1314971e-05
-1.2274447e-12
-2.7023781e-08
-9.0910731e-05
-1.4084029e-13
-9.0597955e-05
8.80654e-14
-3.7457278e-08
-9.3947876e-05
-5.2572475e-12
-6.869724e-09
-9.433101e-05
-1.2980692e-11
-1.4604599e-08
-9.4688154e-05
-1.940122e-12
-3.9006748e-09
-9.4202355e-05
-3.6662922e-12
-2.0608647e-12
-9.4390636e-05
-1.4970879e-12
3.9020157e-09
-9.439123e-05
-2.6284239e-11
1.4604294e-08
-9.4202275e-05
-2.0824073e-12
6.8701013e-09
-9.4688155e-05
-1.4801881e-12
3.7450606e-08
-9.4330647e-05
-2.4872647e-13
-9.3947749e-05
2.4994027e-15
3.6570428e-08
-9.6464278e-05
-5.5451129e-12
-9.6078413e-09
-9.6763871e-05
-1.2650013e-11
2.2227222e-08
-9.7204631e-05
-1.961207e-12
-4.323207e-10
-9.666107e-05
-3.9914686e-12
-1.9509998e-12
-9.6870501e-05
-1.6858291e-12
4.3146906e-10
-9.6871219e-05
-3.5428179e-11
-2.2228326e-08
-9.6660965e-05
-2.3350736e-12
9.6080748e-09
-9.7204637e-05
-1.554182e-12
-3.6577107e-08
-9.6763522e-05
-1.3576922e-13
-9.6464118e-05
1.1503782e-13
-4.6474951e-08
-9.9809099e-05
-5.2778492e-12
-6.632237e-09
-0.00010019754
-1.0470182e-11
-1.9093896e-08
-0.00010057417
-1.9735598e-12
-4.3062789e-09
-0.00010007376
-4.0873285e-12
-2.6317649e-12
-0.00010026381
-1.7632599e-12
4.3080344e-09
-0.00010026459
-2.9701273e-11
1.9094036e-08
-0.00010007364
-2.3116951e-12
6.632475e-09
-0.00010057418
-1.7685196e-12
4.6468288e-08
-0.00010019721
-2.4493229e-13
-9.980891e-05
9.8297101e-15
4.8319914e-08
-0.00010206043
-5.1295495e-12
-9.5066325e-09
-0.00010234255
-7.4497489e-12
2.8029507e-08
-0.00010281306
-1.7520199e-12
2.0326782e-10
-0.00010225224
-4.5829075e-12
-2.9271555e-12
-0.00010246515
-1.9620463e-12
-2.0397482e-10
-0.00010246597
-3.8314693e-11
-2.8029949e-08
-0.00010225209
-2.4172738e-12
9.5070109e-09
-0.00010281308
-1.9951783e-12
-4.8326616e-08
-0.0001023423
-1.4707808e-13
-0.00010206022
1.198712e-13
-5.7815746e-08
-0.00010507282
-4.7374496e-12
-6.453839e-09
-0.00010546732
-6.7008655e-12
-2.4632818e-08
-0.00010585152
-1.7709781e-12
-4.7804354e-09
-0.0001053497
-4.3981713e-12
-3.1905618e-12
-0.0001055375
-1.9146857e-12
4.7823667e-09
-0.00010553832
-2.738737e-11
2.4633536e-08
-0.00010534952
-2.2300546e-12
6.4537068e-09
-0.00010585155
-2.0873186e-12
5.7809627e-08
-0.00010546711
-2.5396728e-13
-0.00010507259
7.0357667e-15
6.2737167e-08
-0.00010705859
-3.8198413e-12
-9.2714014e-09
-0.00010731836
-1.2185954e-12
3.4951988e-08
-0.00010781059
-1.2080683e-12
7.785089e-10
-0.00010724231
-5.0802867e-12
-3.8927218e-12
-0.00010745737
-1.9997164e-12
-7.7876011e-10
-0.0001074581
-3.1252673e-11
-3.4951612e-08
-0.0001072421
-1.9607041e-12
9.271671e-09
-0.00010781063
-2.4987968e-12
-6.2743217e-08
-0.00010731829
-1.5893981e-13
-0.00010705835
1.1674637e-13
-7.1974183e-08
-0.00010986912
-3.5460394e-12
-6.3700597e-09
-0.00011026977
-2.4064604e-12
-3.1393669e-08
-0.00011065211
-1.3177757e-12
-5.3427972e-09
-0.00011015768
-4.4651066e-12
-3.5254189e-12
-0.00011034244
-1.8036132e-12
5.3445208e-09
-0.00011034309
-1.7459548e-11
3.1394989e-08
-0.00011015746
-1.6673439e-12
6.3693707e-09
-0.00011065215
-2.341721e-12
7.1969197e-08
-0.00011026975
-2.4344455e-13
-0.00010986888
5.3830861e-15
8.0387573e-08
-0.00011162894
-1.9726776e-12
-8.8447927e-09
-0.00011185987
1.1154615e-11
4.3147399e-08
-0.00011237106
-5.3430408e-13
1.5154402e-09
-0.00011179834
-5.260222e-12
-4.4871e-12
-0.00011201745
-1.59657e-12
-1.5155602e-09
-0.00011201788
-1.492307e-11
-4.3146258e-08
-0.00011179809
-9.2639772e-13
8.8446301e-09
-0.00011237111
-2.9539763e-12
-8.0392191e-08
-0.00011186001
-1.6268502e-13
-0.00011162871
1.1137978e-13
-8.9535663e-08
-0.00011416249
-1.9894533e-12
-6.4257262e-09
-0.00011456919
2.5487993e-12
-3.9551389e-08
-0.00011494555
-7.4498205e-13
-6.0154542e-09
-0.00011446037
-4.172348e-12
-3.4358494e-12
-0.00011464407
-1.3794966e-12
6.0166207e-09
-0.00011464438
-6.218481e-12
3.9553187e-08
-0.00011446012
-8.0161287e-13
6.4243887e-09
-0.00011494561
-2.4437712e-12
8.9532285e-08
-0.00011456936
-2.1964093e-13
-0.00011416225
2.5324061e-15
1.0194618e-07
-0.00011574249
-2.5211249e-13
-8.1671031e-09
-0.00011593682
2.3916162e-11
5.2801596e-08
-0.00011647109
1.9259099e-13
2.4034552e-09
-0.00011588911
-4.8946236e-12
-4.3596224e-12
-0.00011611679
-8.0978578e-13
-2.4040282e-09
-0.0001161168
4.577294e-12
-5.2800011e-08
-0.00011588884
3.2748365e-13
8.1662021e-09
-0.00011647117
-3.194637e-12
-1.0194866e-07
-0.00011593711
-1.5403783e-13
-0.00011574227
9.5678828e-14
-1.1119305e-07
-0.00011822611
-5.9620024e-13
-6.6847661e-09
-0.00011863938
8.4031935e-12
-4.9273515e-08
-0.00011900929
-1.9400524e-13
-6.8264203e-09
-0.00011853057
-3.4507329e-12
-2.8339667e-12
-0.0001187165
-8.0191547e-13
6.8268922e-09
-0.0001187164
8.3270834e-12
4.9275552e-08
-0.00011853031
6.1158659e-14
6.6827766e-09
-0.00011900936
-2.3016308e-12
1.1119148e-07
-0.00011863967
-1.8216055e-13
-0.0001182259
-5.3717468e-15
1.2821339e-07
-0.00011973334
2.5052502e-12
-7.1692848e-09
-0.00011988104
3.296782e-11
6.4134123e-08
-0.00012044959
1.2611149e-12
3.4428592e-09
-0.00011984544
-3.7711634e-12
-3.2738575e-12
-0.00012008964
-1.7218564e-13
-3.4444882e-09
-0.00012008929
3.8886024e-11
-6.413266e-08
-0.00011984517
2.6908496e-12
7.1675038e-09
-0.00012044966
-3.0351532e-12
-1.2821339e-07
-0.00011988139
-1.2060795e-13
-0.00011973317
7.607438e-14
-1.3777405e-07
-0.00012203347
8.1130361e-13
-7.2171163e-09
-0.00012245153
1.0668198e-11
-6.0749932e-08
-0.00012282426
3.8561046e-13
-7.8010738e-09
-0.00012233707
-2.3370928e-12
-1.6978269e-12
-0.00012253434
-3.8913666e-13
7.8010122e-09
-0.00012253396
2.2789813e-11
6.0751955e-08
-0.00012233682
1.2956328e-12
7.214558e-09
-0.00012282432
-1.8759225e-12
1.3777414e-07
-0.00012245185
-1.2527579e-13
-0.00012203331
-1.5563258e-14
1.6014788e-07
-0.00012325503
4.6769278e-12
-5.7782929e-09
-0.00012334099
3.5483083e-11
7.7427835e-08
-0.00012396582
1.9728294e-12
4.6247425e-09
-0.00012331344
-2.122057e-12
-1.5045319e-12
-0.00012358993
5.2188422e-13
-4.6275747e-09
-0.00012358951
5.7792885e-11
-7.7427173e-08
-0.0001233132
4.5413942e-12
5.7757432e-09
-0.00012396589
-2.356047e-12
-1.6014559e-07
-0.00012334128
-6.5058683e-14
-0.0001232549
5.0163236e-14
-1.7026045e-07
-0.0001246004
1.8799748e-12
-8.1001553e-09
-0.00012501738
8.5615618e-12
-7.4178039e-08
-0.00012541373
8.0164926e-13
-8.9628829e-09
-0.00012488881
-1.2515737e-12
-1.2004048e-12
-0.00012511493
-1.9075325e-13
8.962772e-09
-0.00012511458
2.2225468e-11
7.417991e-08
-0.00012488859
1.8669856e-12
8.0971639e-09
-0.00012541378
-1.2559201e-12
1.7026172e-07
-0.00012501761
-7.8244722e-14
-0.00012460028
-3.7004032e-14
1.9889589e-07
-0.00012537528
5.5369485e-12
-3.8847943e-09
-0.00012537818
2.4896957e-11
9.3030148e-08
-0.00012609463
2.207025e-12
5.9156878e-09
-0.00012535323
-8.666065e-13
-7.6482655e-13
-0.00012568657
6.6341624e-13
-5.9189991e-09
-0.00012568639
4.2507498e-11
-9.3030803e-08
-0.00012535304
4.8907801e-12
3.8817981e-09
-0.00012609468
-1.4846886e-12
-1.9889203e-07
-0.00012537833
-1.8530208e-14
-0.00012537518
3.00319e-14
-2.0980526e-07
-0.00012593222
2.2323618e-12
-9.4378622e-09
-0.00012634096
4.5371522e-12
-8.9734151e-08
-0.0001267869
9.6433028e-13
-1.0343065e-08
-0.00012619001
-5.7135983e-13
-1.0721412e-12
-0.00012646544
-1.9699004e-13
1.0343462e-08
-0.00012646535
1.0321295e-11
8.9735885e-08
-0.00012618984
1.6818624e-12
9.4345624e-09
-0.00012678695
-7.6097727e-13
2.0980712e-07
-0.00012634107
-5.5077903e-14
-0.00012593214
-6.736458e-14
2.4580256e-07
-0.00012655179
4.4657877e-12
-1.127566e-09
-0.00012644843
6.3355108e-12
1.1131079e-07
-0.00012730048
1.80795e-12
7.2868026e-09
-0.00012642477
-4.0022894e-14
-4.7560715e-13
-0.00012683815
1.8551774e-13
-7.2896079e-09
-0.00012683825
7.6312808e-12
-1.1131278e-07
-0.00012642463
3.1747001e-12
1.1240685e-09
-0.00012730052
-9.3052333e-13
-2.457982e-07
-0.00012644844
2.4674407e-14
-0.00012655172
1.7926527e-14
-2.5777746e-07
-0.00012740148
2.0398066e-12
-1.1353867e-08
-0.00012779949
2.6844965e-12
-1.0762588e-07
-0.00012832136
9.5884565e-13
-1.1962599e-08
-0.00012762273
-1.2618699e-13
-1.1319839e-12
-0.00012795997
-1.0119988e-13
1.1963749e-08
-0.0001279601
5.102674e-12
1.0762752e-07
-0.00012762261
1.2853048e-12
1.1350235e-08
-0.0001283214
-4.193177e-13
2.577795e-07
-0.00012779949
-9.8632558e-15
-0.00012740142
-5.905683e-14
3.0242554e-07
-0.00012812616
1.665588e-12
1.6807393e-09
-0.00012790101
-2.4407191e-11
1.3263564e-07
-0.00012892557
8.8854272e-13
8.7664279e-09
-0.00012789135
1.343993e-13
-7.9320787e-13
-0.00012838309
-6.9697817e-15
-8.7687131e-09
-0.00012838321
-3.2717302e-11
-1.326384e-07
-0.00012789125
1.1327981e-12
-1.6824809e-09
-0.00012892561
-7.6514111e-13
-3.0242166e-07
-0.00012790095
5.7873765e-14
-0.00012812611
1.1398067e-14
-3.1582511e-07
-0.00012946079
1.8895911e-12
-1.3967528e-08
-0.00012985712
6.939156e-12
-1.2815211e-07
-0.00013046846
8.516663e-13
-1.3800837e-08
-0.00012966286
3.0721516e-13
-1.1286511e-12
-0.00013004832
2.7392687e-13
1.3802612e-08
-0.0001300484
9.363644e-12
1.281535e-07
-0.00012966278
1.3894267e-12
1.3963304e-08
-0.0001304685
-1.3162801e-13
3.1582728e-07
-0.00012985707
4.6440109e-14
-0.00012946076
-3.0566276e-14
3.7053581e-07
-0.00013027213
-1.7884303e-12
4.7087566e-09
-0.00012992666
-5.5919906e-11
1.5726189e-07
-0.00013111514
-2.1246648e-13
1.0500564e-08
-0.00012996184
-7.6401556e-13
-1.0040355e-12
-0.00013048264
7.2231106e-13
-1.0503361e-08
-0.00013048249
-4.5453335e-11
-1.5726462e-07
-0.00012996177
-4.5954588e-13
-4.7098535e-09
-0.00013111517
-1.1458626e-12
-3.7053303e-07
-0.00012992658
4.0953509e-14
-0.0001302721
7.8910853e-15
-3.8591759e-07
-0.0001317498
2.2785007e-12
-1.7374291e-08
-0.00013216957
1.8166915e-11
-1.5169777e-07
-0.00013283571
6.2029612e-13
-1.5812128e-08
-0.00013197772
8.1184527e-13
-9.6563417e-13
-0.00013236018
7.7270646e-13
1.5814488e-08
-0.00013236004
1.9877491e-11
1.5169843e-07
-0.00013197766
2.116029e-12
1.7369061e-08
-0.00013283574
2.6543015e-13
3.8592003e-07
-0.00013216945
1.0649505e-13
-0.00013174979
4.8169406e-15
4.5211238e-07
-0.00013262671
-6.9306915e-12
8.6264227e-09
-0.00013216831
-9.4696204e-11
1.8506045e-07
-0.00013343358
-2.8949276e-12
1.2789111e-08
-0.00013227932
-2.2659938e-12
-3.6139842e-13
-0.00013275872
2.3529067e-12
-1.2793317e-08
-0.00013275846
-3.2302835e-11
-1.8506254e-07
-0.00013227928
-1.8597532e-12
-8.6259189e-09
-0.00013343361
-1.9249425e-12
-4.5211139e-07
-0.00013216806
-2.1329389e-14
-0.00013262672
-2.4013372e-15
-4.7034363e-07
-0.000134456
3.2477461e-12
-2.1656151e-08
-0.00013492653
3.1254474e-11
-1.7863222e-07
-0.00013555498
4.2480024e-13
-1.8038641e-08
-0.00013475095
1.3767045e-12
-8.7047978e-13
-0.00013507581
9.5704424e-13
1.8042068e-08
-0.00013507557
1.8001699e-11
1.7863148e-07
-0.00013475092
3.3660907e-12
2.16495e-08
-0.000135555
8.2856188e-13
4.7034632e-07
-0.00013492624
2.1406364e-13
-0.00013445601
5.0701118e-14
5.4955069e-07
-0.000135452
-1.1265558e-11
1.381251e-08
-0.00013486098
-1.5353002e-10
2.1546027e-07
-0.00013610884
-6.3090367e-12
1.5906212e-08
-0.00013504565
-3.6314719e-12
2.6890832e-14
-0.00013548139
2.7694866e-12
-1.5911533e-08
-0.00013548126
-3.4519947e-11
-2.1546118e-07
-0.00013504565
-2.5944832e-12
-1.3808793e-08
-0.00013610885
-2.5835148e-12
-5.4955339e-07
-0.0001348606
-1.2137385e-13
-0.00013545204
-2.5534835e-14
-5.7158207e-07
-0.00013717769
4.8969287e-12
-2.7143405e-08
-0.0001377099
6.6047554e-11
-2.0887333e-07
-0.00013822284
6.8379037e-13
-2.0736078e-08
-0.00013754193
1.4947188e-12
-8.3152275e-13
-0.00013779949
1.4171973e-12
2.0740579e-08
-0.00013779929
2.7167412e-11
2.0887064e-07
-0.00013754193
5.6365625e-12
2.7134384e-08
-0.00013822285
1.343988e-12
5.7158548e-07
-0.00013770952
3.3715979e-13
-0.00013717773
1.0997534e-13
6.6600414e-07
-0.00013831671
-1.3533584e-11
2.0919917e-08
-0.00013753986
-1.3216843e-10
2.4801838e-07
-0.0001388294
-6.9679986e-12
1.9725651e-08
-0.00013777846
-4.9550277e-12
2.0514805e-14
-0.00013824573
6.5776011e-13
-1.9731426e-08
-0.0001382455
-6.3118591e-12
-2.4801704e-07
-0.00013777848
-3.7865323e-12
-2.09117e-08
-0.0001388294
-2.9832195e-12
-6.6601192e-07
-0.0001375398
-2.6433734e-13
-0.00013831677
-6.3110184e-14
-6.930058e-07
-0.00013882554
7.6914387e-12
-3.4080045e-08
-0.00013947655
8.1995694e-11
-2.4260043e-07
-0.00013980497
6.4786379e-13
-2.3659949e-08
-0.00013922397
1.2868666e-12
-2.9171134e-13
-0.0001395097
2.5866352e-12
2.3665348e-08
-0.00013950965
2.36765e-11
2.4259505e-07
-0.00013922398
1.0178759e-11
3.4067848e-08
-0.00013980496
1.8798859e-12
6.9301063e-07
-0.00013947622
4.0065051e-13
-0.0001388256
9.9439902e-14
8.0589945e-07
-0.00014007922
-1.265894e-11
2.9660724e-08
-0.00013897903
-1.5546277e-10
2.842441e-07
-0.00014051837
-2.2631524e-12
2.3197211e-08
-0.00013937558
-5.5621915e-12
3.5431792e-13
-0.00013981662
-1.9789608e-12
-2.3204596e-08
-0.00013981654
-4.585758e-13
-2.8423962e-07
-0.0001393756
-6.2814235e-12
-2.9649478e-08
-0.00014051837
-3.4518719e-12
-8.059092e-07
-0.00013897896
-4.2002689e-13
-0.00014007929
-8.3906002e-14
-8.3871061e-07
-0.00014069919
1.1364584e-11
-4.2157897e-08
-0.00013923234
-8.5270051e-10
-2.8114247e-07
-0.00014126023
-4.9701281e-13
-2.6258514e-08
-0.00014135952
-1.1452424e-13
-1.6994386e-12
-0.00013953066
1.7271752e-12
2.6267333e-08
-0.00013952992
-7.7927104e-10
2.8113452e-07
-0.00014135958
1.7262763e-11
4.21446e-08
-0.0001412602
2.5160773e-12
8.3871298e-07
-0.00013923296
5.0076649e-13
-0.00014069925
8.5611495e-14
9.7480126e-07
-0.00014033497
-1.6969715e-11
3.9162344e-08
-0.00013995873
9.6609526e-10
3.2736277e-07
-0.00014083192
-7.4941935e-13
2.5748841e-08
-0.00013928844
-2.7035921e-12
2.4540578e-12
-0.0001410034
-3.1439892e-12
-2.5758679e-08
-0.00014100402
9.8122441e-10
-3.273568e-07
-0.00013928847
-1.7291793e-11
-3.9150557e-08
-0.00014083192
-3.8187977e-12
-9.7480741e-07
-0.00013995941
-5.7405185e-13
-0.00014033504
-7.2685098e-14
-1.008311e-06
-0.00012545637
2.45455e-11
-5.1384888e-08
-0.00015707794
1.0369943e-08
-3.2356689e-07
-0.00013164497
3.6781326e-12
-3.326643e-08
-0.00012486906
-5.6549622e-12
-8.1674479e-12
-0.00015685393
-2.7284597e-12
3.3280515e-08
-0.00015687038
1.006394e-08
3.2356017e-07
-0.00012486907
3.0211893e-11
5.1366361e-08
-0.00013164529
2.8845925e-12
1.0083131e-06
-0.00015707966
6.9410452e-13
-0.00012545637
9.2140406e-14
1.1733136e-06
-0.00014197247
-3.482087e-11
4.9821202e-08
-0.00014030764
-1.0610448e-08
3.7503371e-07
-0.00014236338
-6.8332514e-12
3.3143723e-08
-0.00014069587