/*--------------------------------*- C++ -*----------------------------------*\
  =========                 |
  \\      /  F ield         | OpenFOAM: The Open Source CFD Toolbox
   \\    /   O peration     | Website:  https://openfoam.org
    \\  /    A nd           | Version:  8
     \\/     M anipulation  |
\*---------------------------------------------------------------------------*/
FoamFile
{
    version     2.0;
    format      ascii;
    class       volVectorField;
    location    "1";
    object      U;
}
// * * * * * * * * * * * * * * * * * * * * * * * * * * * * * * * * * * * * * //

dimensions      [0 1 -1 0 0 0 0];

internalField   nonuniform List<vector> 
2000
(
(-1.6530402e-05 0.00010931464 -3.0819421e-05)
(-2.716715e-06 0.00010997629 -3.0873451e-05)
(-3.6566049e-07 0.00010947967 -3.0868705e-05)
(3.4852418e-07 0.00010985476 -3.0870496e-05)
(-9.151828e-07 0.00010967939 -3.0870474e-05)
(9.1735811e-07 0.00010967888 -3.0871631e-05)
(-3.5134583e-07 0.00010985464 -3.087201e-05)
(3.6244118e-07 0.0001094798 -3.0868374e-05)
(2.715916e-06 0.00010997701 -3.0872333e-05)
(1.6533542e-05 0.00010931477 -3.0820883e-05)
(-3.534158e-05 -0.00041999953 -6.5887797e-05)
(-6.9219194e-06 -0.00042107634 -6.6009953e-05)
(-1.0556466e-06 -0.00042047612 -6.6007349e-05)
(1.0341595e-06 -0.0004207472 -6.6006952e-05)
(-2.5189557e-06 -0.0004206109 -6.6007771e-05)
(2.5209232e-06 -0.00042061216 -6.6008605e-05)
(-1.036524e-06 -0.00042074774 -6.6008189e-05)
(1.0530044e-06 -0.00042047583 -6.6007096e-05)
(6.9211255e-06 -0.00042107482 -6.6009187e-05)
(3.5344224e-05 -0.00041999948 -6.5889042e-05)
(-2.7641145e-05 -0.00061209197 -4.9311599e-05)
(-9.2828656e-06 -0.00061351464 -4.9429389e-05)
(-1.5021444e-06 -0.00061329751 -4.9426889e-05)
(1.4252725e-06 -0.00061266971 -4.9426519e-05)
(-3.4492276e-06 -0.00061292447 -4.9427287e-05)
(3.4511934e-06 -0.00061292682 -4.9428109e-05)
(-1.4276346e-06 -0.00061267078 -4.942776e-05)
(1.4994693e-06 -0.00061329695 -4.9426635e-05)
(9.2820687e-06 -0.00061351182 -4.9428631e-05)
(2.7643783e-05 -0.00061209185 -4.9312844e-05)
(-1.6187887e-05 -0.0010043274 -2.6108706e-05)
(-1.0404381e-05 -0.0010069622 -2.6186518e-05)
(-1.7511304e-06 -0.0010059016 -2.6186587e-05)
(1.6335788e-06 -0.0010059973 -2.618441e-05)
(-3.9361198e-06 -0.0010058996 -2.6186136e-05)
(3.9380474e-06 -0.0010059029 -2.618688e-05)
(-1.6358681e-06 -0.0010059987 -2.6185625e-05)
(1.7484866e-06 -0.0010059009 -2.6186343e-05)
(1.0403581e-05 -0.0010069583 -2.6185844e-05)
(1.6190493e-05 -0.0010043273 -2.610994e-05)
(-9.21357e-06 -0.0012357498 -1.2109511e-05)
(-1.0818713e-05 -0.0012380618 -1.215638e-05)
(-1.8658643e-06 -0.0012379635 -1.215432e-05)
(1.691127e-06 -0.0012367695 -1.2154529e-05)
(-4.1266996e-06 -0.0012372342 -1.2155106e-05)
(4.1285745e-06 -0.001237238 -1.2155764e-05)
(-1.6933342e-06 -0.0012367713 -1.2155709e-05)
(1.8632783e-06 -0.0012379626 -1.2154088e-05)
(1.08179e-05 -0.0012380572 -1.2155794e-05)
(9.2161392e-06 -0.0012357499 -1.2110721e-05)
(-5.2387674e-06 -0.0014507726 -4.4941344e-06)
(-1.0877888e-05 -0.0014544239 -4.5168291e-06)
(-1.9028092e-06 -0.0014531845 -4.5178599e-06)
(1.7539109e-06 -0.0014532079 -4.5150263e-06)
(-4.2368231e-06 -0.0014530921 -4.5169646e-06)
(4.2386248e-06 -0.0014530969 -4.5175156e-06)
(-1.7560297e-06 -0.0014532102 -4.516162e-06)
(1.9003129e-06 -0.0014531834 -4.517643e-06)
(1.0877057e-05 -0.0014544183 -4.516353e-06)
(5.2412837e-06 -0.0014507727 -4.4953153e-06)
(-3.8845574e-06 -0.0013228248 -1.96199e-06)
(-1.0773798e-05 -0.0013252773 -1.9776509e-06)
(-1.91253e-06 -0.001325799 -1.9751067e-06)
(1.7253578e-06 -0.0013238113 -1.9762505e-06)
(-4.2318745e-06 -0.0013245901 -1.9763465e-06)
(4.2335864e-06 -0.0013245953 -1.9767708e-06)
(-1.7273832e-06 -0.0013238139 -1.9773335e-06)
(1.9101404e-06 -0.0013257977 -1.9749083e-06)
(1.0772948e-05 -0.0013252711 -1.9773058e-06)
(3.8870007e-06 -0.0013228253 -1.9631361e-06)
(-2.7640963e-06 -0.0012679721 -2.6382467e-07)
(-1.0619482e-05 -0.0012725432 -2.7000954e-07)
(-1.8941713e-06 -0.0012710624 -2.7223559e-07)
(1.7948029e-06 -0.0012712429 -2.6849089e-07)
(-4.2944311e-06 -0.0012710056 -2.7079865e-07)
(4.2960417e-06 -0.0012710114 -2.7108875e-07)
(-1.7967377e-06 -0.0012712458 -2.6951485e-07)
(1.8919004e-06 -0.001271061 -2.7205689e-07)
(1.0618605e-05 -0.0012725363 -2.6980137e-07)
(2.7664563e-06 -0.0012679727 -2.649282e-07)
(-2.846488e-06 -0.00085882684 -5.4968097e-07)
(-1.0427442e-05 -0.00086097303 -5.5970904e-07)
(-1.8887989e-06 -0.00086249573 -5.5602631e-07)
(1.7268006e-06 -0.0008593874 -5.5882836e-07)
(-4.2353902e-06 -0.00086063542 -5.5810059e-07)
(4.2368837e-06 -0.0008606414 -5.5823824e-07)
(-1.7286328e-06 -0.00085939069 -5.5978554e-07)
(1.88666e-06 -0.00086249419 -5.5587156e-07)
(1.042654e-05 -0.00086096593 -5.5966004e-07)
(2.8487478e-06 -0.00085882758 -5.5073996e-07)
(-2.0381576e-06 -0.00095221923 3.5582467e-07)
(-1.0254893e-05 -0.00095785408 3.5463286e-07)
(-1.8553256e-06 -0.00095583903 3.5029305e-07)
(1.8459738e-06 -0.00095657709 3.5586904e-07)
(-4.3322342e-06 -0.0009560403 3.5278616e-07)
(4.3336072e-06 -0.00095604655 3.5279792e-07)
(-1.8477105e-06 -0.00095658055 3.5498305e-07)
(1.8533242e-06 -0.00095583744 3.5042442e-07)
(1.0253956e-05 -0.00095784671 3.5452887e-07)
(2.0403179e-06 -0.00095222005 3.5481794e-07)
(-2.5413864e-06 -0.00053020849 -5.8782438e-07)
(-1.0045447e-05 -0.00053162942 -5.9802144e-07)
(-1.8560864e-06 -0.00053457787 -5.9245605e-07)
(1.717793e-06 -0.00052990806 -5.9776649e-07)
(-4.2190947e-06 -0.00053183344 -5.9581955e-07)
(4.2203347e-06 -0.0005318395 -5.9564819e-07)
(-1.7194187e-06 -0.00052991184 -5.9857561e-07)
(1.8542314e-06 -0.00053457619 -5.923517e-07)
(1.0044482e-05 -0.0005316222 -5.9829316e-07)
(2.5434329e-06 -0.00053020943 -5.8877915e-07)
(-1.4485153e-06 -0.0010527875 6.2688434e-07)
(-9.8877305e-06 -0.0010599963 6.2969344e-07)
(-1.8087056e-06 -0.0010568231 6.2238584e-07)
(1.923867e-06 -0.0010588139 6.3069294e-07)
(-4.3879588e-06 -0.0010576626 6.2642411e-07)
(4.389071e-06 -0.0010576688 6.2673474e-07)
(-1.9253984e-06 -0.0010588177 6.2996153e-07)
(1.8069962e-06 -0.0010568214 6.2246611e-07)
(9.886724e-06 -0.0010599891 6.2928019e-07)
(1.4504599e-06 -0.0010527886 6.2599046e-07)
(-2.3932302e-06 -0.00052264998 -8.6866546e-07)
(-9.6592411e-06 -0.0005228799 -8.805423e-07)
(-1.824556e-06 -0.00052785582 -8.7213206e-07)
(1.6884752e-06 -0.00052093429 -8.80963e-07)
(-4.1826349e-06 -0.00052385616 -8.7732366e-07)
(4.1836057e-06 -0.00052386174 -8.768716e-07)
(-1.6898904e-06 -0.00052093848 -8.8161304e-07)
(1.8229985e-06 -0.00052785411 -8.7207923e-07)
(9.658204e-06 -0.00052287326 -8.8110424e-07)
(2.395053e-06 -0.00052265139 -8.6950149e-07)
(-7.5962131e-07 -0.0014495093 9.9511295e-07)
(-9.5336422e-06 -0.0014588849 1.0027397e-06)
(-1.7539714e-06 -0.0014539057 9.9150406e-07)
(2.0419477e-06 -0.0014578324 1.0036249e-06)
(-4.4754227e-06 -0.001455754 9.976729e-07)
(4.4762686e-06 -0.0014557597 9.9822551e-07)
(-2.0432805e-06 -0.0014578365 1.0030535e-06)
(1.7525573e-06 -0.0014539041 9.9153627e-07)
(9.5325502e-06 -0.0014588784 1.0020818e-06)
(7.6134657e-07 -0.001449511 9.9434834e-07)
(-2.381652e-06 -0.00045958215 -1.3070908e-06)
(-9.2696822e-06 -0.00045792503 -1.321861e-06)
(-1.7962807e-06 -0.00046580523 -1.3094509e-06)
(1.6256341e-06 -0.00045564417 -1.3229386e-06)
(-4.1153742e-06 -0.00046001936 -1.3170761e-06)
(4.1160752e-06 -0.000460024 -1.3164239e-06)
(-1.6268485e-06 -0.00045564867 -1.3234293e-06)
(1.7950183e-06 -0.00046580357 -1.3094432e-06)
(9.2685537e-06 -0.00045791953 -1.3226197e-06)
(2.3832492e-06 -0.00045958436 -1.3077914e-06)
(8.366882e-08 -0.0017779887 1.5216394e-06)
(-9.200691e-06 -0.0017902024 1.5351357e-06)
(-1.6874887e-06 -0.0017826672 1.5190061e-06)
(2.2196226e-06 -0.0017893376 1.5360874e-06)
(-4.6113155e-06 -0.0017859613 1.527918e-06)
(4.6119052e-06 -0.0017859661 1.5286074e-06)
(-2.2207793e-06 -0.0017893418 1.5356711e-06)
(1.6863556e-06 -0.0017826657 1.5190009e-06)
(9.1994894e-06 -0.0017901969 1.5343593e-06)
(-8.215947e-08 -0.0017779911 1.5210243e-06)
(-2.5475791e-06 -6.1503575e-05 -1.932589e-06)
(-8.8735102e-06 -5.71239e-05 -1.9515618e-06)
(-1.7735208e-06 -6.885215e-05 -1.9339696e-06)
(1.5121578e-06 -5.4434583e-05 -1.953207e-06)
(-4.0026918e-06 -6.0739277e-05 -1.9446078e-06)
(4.0031339e-06 -6.0742701e-05 -1.9438714e-06)
(-1.5131912e-06 -5.44393e-05 -1.9535475e-06)
(1.7725364e-06 -6.8850611e-05 -1.9339939e-06)
(8.8722722e-06 -5.7119776e-05 -1.9523768e-06)
(2.5489496e-06 -6.150656e-05 -1.9331352e-06)
(1.1311829e-06 -0.0020332634 2.2419548e-06)
(-8.8951964e-06 -0.0020491445 2.2623992e-06)
(-1.6061123e-06 -0.0020380877 2.2405227e-06)
(2.4791252e-06 -0.0020485664 2.2636094e-06)
(-4.8149087e-06 -0.0020434042 2.2527266e-06)
(4.8152641e-06 -0.0020434082 2.2534239e-06)
(-2.48014e-06 -0.0020485706 2.263335e-06)
(1.6052343e-06 -0.0020380864 2.2404964e-06)
(8.8938629e-06 -0.00204914 2.2616636e-06)
(-1.1298775e-06 -0.0020332663 2.2415106e-06)
(-2.93733e-06 0.0005267759 -2.7695655e-06)
(-8.4646661e-06 0.00053480287 -2.7940806e-06)
(-1.7599994e-06 0.0005183639 -2.7702536e-06)
(1.3243801e-06 0.00053791548 -2.7961501e-06)
(-3.8243891e-06 0.0005292584 -2.7843804e-06)
(3.8245899e-06 0.00052925631 -2.7836846e-06)
(-1.3252569e-06 0.00053791074 -2.7963568e-06)
(1.7592735e-06 0.00051836527 -2.7702936e-06)
(8.4633033e-06 0.00053480562 -2.794796e-06)
(2.9384808e-06 0.00052677245 -2.7699392e-06)
(2.4380251e-06 -0.0025094874 3.188758e-06)
(-8.6194819e-06 -0.002530028 3.2172251e-06)
(-1.5080643e-06 -0.002514298 3.1889308e-06)
(2.8430654e-06 -0.0025298464 3.2188572e-06)
(-5.1064378e-06 -0.0025223196 3.2048522e-06)
(5.1065918e-06 -0.0025223227 3.2054319e-06)
(-2.8439795e-06 -0.0025298505 3.2187042e-06)
(1.5074082e-06 -0.0025142969 3.1889016e-06)
(8.6180046e-06 -0.0025300242 3.2166913e-06)
(-2.4369024e-06 -0.0025094906 3.188502e-06)
(-3.6036888e-06 0.0011111379 -3.8370168e-06)
(-8.0352003e-06 0.0011238871 -3.8683941e-06)
(-1.7601777e-06 0.0011016775 -3.8374937e-06)
(1.0322947e-06 0.0011274764 -3.8707116e-06)
(-3.5548257e-06 0.0011159339 -3.8554448e-06)
(3.5548096e-06 0.0011159332 -3.8549029e-06)
(-1.0330412e-06 0.0011274718 -3.870804e-06)
(1.7596855e-06 0.0011016787 -3.8375322e-06)
(8.0337102e-06 0.0011238886 -3.8688631e-06)
(3.6046292e-06 0.0011111342 -3.8372031e-06)
(4.0625193e-06 -0.0033330563 4.3824333e-06)
(-8.3781936e-06 -0.0033593294 4.4200008e-06)
(-1.3901587e-06 -0.0033378392 4.3848201e-06)
(3.3409996e-06 -0.0033595954 4.4221591e-06)
(-5.5122728e-06 -0.0033491739 4.4047356e-06)
(5.5122669e-06 -0.0033491761 4.4050943e-06)
(-3.3418594e-06 -0.0033595991 4.422106e-06)
(1.3896869e-06 -0.0033378383 4.3848062e-06)
(8.3765657e-06 -0.0033593265 4.4198068e-06)
(-4.0615543e-06 -0.0033330597 4.3823778e-06)
(-4.6070564e-06 0.0017800765 -5.1537366e-06)
(-7.5802316e-06 0.0017987793 -5.1932621e-06)
(-1.7771467e-06 0.0017694648 -5.1546867e-06)
(6.0437273e-07 0.001802949 -5.1956421e-06)
(-3.1665756e-06 0.0017878401 -5.1766587e-06)
(3.1663753e-06 0.0017878409 -5.1763613e-06)
(-6.0501927e-07 0.0018029446 -5.1956406e-06)
(1.7768593e-06 0.0017694658 -5.1547075e-06)
(7.5786123e-06 0.0017987796 -5.193365e-06)
(4.6077981e-06 0.0017800725 -5.1537246e-06)
(6.0682963e-06 -0.0043764316 5.8326984e-06)
(-8.1808259e-06 -0.0044095891 5.8804667e-06)
(-1.2473202e-06 -0.0043813797 5.8381149e-06)
(4.0118253e-06 -0.0044102949 5.8831979e-06)
(-6.0668085e-06 -0.0043965247 5.8621662e-06)
(6.0666921e-06 -0.004396526 5.8622225e-06)
(-4.0126832e-06 -0.0044102981 5.8832245e-06)
(1.2469958e-06 -0.004381379 5.838131e-06)
(8.1790367e-06 -0.004409587 5.8807207e-06)
(-6.0674627e-06 -0.0043764352 5.8328534e-06)
(-6.0139895e-06 0.0027163355 -6.7337888e-06)
(-7.1002403e-06 0.0027423007 -6.7827313e-06)
(-1.8124302e-06 0.0027046666 -6.7360997e-06)
(8.6019371e-09 0.0027470865 -6.7849902e-06)
(-2.6311028e-06 0.0027278068 -6.7621669e-06)
(2.6307592e-06 0.0027278089 -6.7621878e-06)
(-9.1831067e-09 0.0027470825 -6.7849137e-06)
(1.8123146e-06 0.0027046675 -6.7360914e-06)
(7.0984914e-06 0.0027423002 -6.7823804e-06)
(6.0145454e-06 0.0027163315 -6.7335724e-06)
(8.5271042e-06 -0.0055725929 7.5470999e-06)
(-8.0320328e-06 -0.0056139403 7.6062084e-06)
(-1.0762496e-06 -0.0055779205 7.5565483e-06)
(4.8954296e-06 -0.0056150934 7.6095095e-06)
(-6.8060534e-06 -0.0055974492 7.584767e-06)
(6.8058796e-06 -0.0055974496 7.5844509e-06)
(-4.8963373e-06 -0.0056150959 7.6095985e-06)
(1.0760378e-06 -0.0055779201 7.5566033e-06)
(8.0300823e-06 -0.0056139386 7.6069788e-06)
(-8.526377e-06 -0.0055725962 7.5474664e-06)
(-7.898821e-06 0.0039391187 -8.5831108e-06)
(-6.5956897e-06 0.0039737274 -8.6427446e-06)
(-1.8681425e-06 0.0039267359 -8.5878669e-06)
(-7.9352236e-07 0.0039790868 -8.6447123e-06)
(-1.9139473e-06 0.0039551421 -8.6180044e-06)
(1.9135031e-06 0.0039551451 -8.6184227e-06)
(7.9297551e-07 0.0039790832 -8.644576e-06)
(1.8681664e-06 0.0039267366 -8.5878229e-06)
(6.5938198e-06 0.0039737266 -8.6418833e-06)
(7.899207e-06 0.0039391151 -8.5826939e-06)
(1.1520469e-05 -0.0070240856 9.5328576e-06)
(-7.9292389e-06 -0.007075073 9.6045663e-06)
(-8.7606966e-07 -0.0070299971 9.5475545e-06)
(6.0314911e-06 -0.0070766943 9.6083664e-06)
(-7.7665447e-06 -0.0070545668 9.5798823e-06)
(7.7663602e-06 -0.0070545668 9.5791055e-06)
(-6.0324873e-06 -0.007076696 9.608504e-06)
(8.7594974e-07 -0.0070299969 9.5476501e-06)
(7.9271424e-06 -0.0070750714 9.6058909e-06)
(-1.1519829e-05 -0.0070240885 9.5334217e-06)
(-1.0346997e-05 0.005396125 -1.0704402e-05)
(-6.0660493e-06 0.0054409336 -1.0776044e-05)
(-1.9468995e-06 0.005383374 -1.0712873e-05)
(-1.8478327e-06 0.0054468262 -1.0777561e-05)
(-9.737691e-07 0.0054176494 -1.0746986e-05)
(9.732607e-07 0.0054176527 -1.0747915e-05)
(1.8473028e-06 0.0054468233 -1.0777379e-05)
(1.9470352e-06 0.0053833746 -1.0712793e-05)
(6.0640864e-06 0.0054409333 -1.0774634e-05)
(1.0347223e-05 0.0053961223 -1.07038e-05)
(1.5142601e-05 -0.0087969674 1.1793716e-05)
(-7.8702603e-06 -0.008859123 1.1879307e-05)
(-6.4593694e-07 -0.0088038676 1.1815043e-05)
(7.4677282e-06 -0.008861175 1.1883549e-05)
(-8.9915456e-06 -0.0088340209 1.1851351e-05)
(8.9913784e-06 -0.0088340212 1.1849954e-05)
(-7.4688285e-06 -0.0088611757 1.188372e-05)
(6.4590856e-07 -0.0088038677 1.1815178e-05)
(7.8680423e-06 -0.0088591211 1.1881221e-05)
(-1.5142038e-05 -0.0087969696 1.1794457e-05)
(-1.3456212e-05 0.0071314123 -1.3101574e-05)
(-5.5169789e-06 0.0071881329 -1.3186625e-05)
(-2.0493394e-06 0.0071186506 -1.3115213e-05)
(-3.2012811e-06 0.0071945126 -1.3187532e-05)
(2.3314049e-07 0.0071594839 -1.3153158e-05)
(-2.3369365e-07 0.0071594863 -1.3154774e-05)
(3.2007739e-06 0.0071945103 -1.3187322e-05)
(2.0495684e-06 0.0071186512 -1.3115097e-05)
(5.51495e-06 0.0071881339 -1.3184634e-05)
(1.3456286e-05 0.0071314105 -1.310081e-05)
(1.9501554e-05 -0.010852066 1.4330858e-05)
(-7.8529403e-06 -0.010927037 1.4431711e-05)
(-3.8541539e-07 -0.010860605 1.4360381e-05)
(9.2600136e-06 -0.010929424 1.4436328e-05)
(-1.0530912e-05 -0.010896769 1.4400489e-05)
(1.0530756e-05 -0.010896771 1.4398211e-05)
(-9.2611952e-06 -0.010929423 1.4436518e-05)
(3.8550362e-07 -0.010860606 1.4360551e-05)
(7.8506298e-06 -0.010927034 1.4434242e-05)
(-1.9501076e-05 -0.010852067 1.4331752e-05)
(-1.7337787e-05 0.0092123281 -1.5777626e-05)
(-4.9626755e-06 0.009282762 -1.5877539e-05)
(-2.1737768e-06 0.009200164 -1.5798069e-05)
(-4.9017741e-06 0.009289498 -1.5877727e-05)
(1.7527434e-06 0.0092481168 -1.583966e-05)
(-1.7533521e-06 0.0092481168 -1.5842184e-05)
(4.9013303e-06 0.0092894963 -1.5877506e-05)
(2.1740891e-06 0.0092001646 -1.5797921e-05)
(4.9606177e-06 0.0092827649 -1.5874978e-05)
(1.7337706e-05 0.0092123275 -1.5776724e-05)
(2.4719889e-05 -0.013197431 1.7146353e-05)
(-7.8663931e-06 -0.01328706 1.7264035e-05)
(-9.7491247e-08 -0.013208284 1.7185825e-05)
(1.1465296e-05 -0.013289695 1.7268878e-05)
(-1.2435375e-05 -0.013250981 1.7229514e-05)
(1.2435165e-05 -0.013250985 1.7226039e-05)
(-1.1466477e-05 -0.013289694 1.7269076e-05)
(9.7749295e-08 -0.013208285 1.7186022e-05)
(7.864031e-06 -0.013287057 1.7267129e-05)
(-2.4719522e-05 -0.013197431 1.7147375e-05)
(-2.2119821e-05 0.011632502 -1.8733022e-05)
(-4.4187265e-06 0.011718577 -1.8849249e-05)
(-2.3182834e-06 0.011621752 -1.8762096e-05)
(-7.0056217e-06 0.011725473 -1.8848735e-05)
(3.6389763e-06 0.011677309 -1.8807118e-05)
(-3.6396955e-06 0.011677305 -1.881073e-05)
(7.0053302e-06 0.011725472 -1.8848514e-05)
(2.3186831e-06 0.011621752 -1.8761927e-05)
(4.4166846e-06 0.011718582 -1.8846242e-05)
(2.2119574e-05 0.011632503 -1.873201e-05)
(3.0937041e-05 -0.015911655 2.0242744e-05)
(-7.8915952e-06 -0.016017964 2.0379122e-05)
(2.1161612e-07 -0.015925465 2.0294117e-05)
(1.4143303e-05 -0.016020762 2.0383858e-05)
(-1.4758154e-05 -0.015975332 2.0341123e-05)
(1.4757765e-05 -0.015975339 2.0336225e-05)
(-1.4144338e-05 -0.016020759 2.0384059e-05)
(-2.1111824e-07 -0.015925465 2.0294319e-05)
(7.8892279e-06 -0.016017959 2.0382532e-05)
(-3.0936818e-05 -0.015911654 2.0243858e-05)
(-2.7949489e-05 0.014379996 -2.1968388e-05)
(-3.9002244e-06 0.014483838 -2.2102343e-05)
(-2.4803203e-06 0.014371547 -2.2008125e-05)
(-9.5790941e-06 0.014490678 -2.2101345e-05)
(5.9547066e-06 0.014435248 -2.2056342e-05)
(-5.9556281e-06 0.014435239 -2.2061039e-05)
(9.5790847e-06 0.014490677 -2.2101123e-05)
(2.4808075e-06 0.014371547 -2.2007958e-05)
(3.8982496e-06 0.014483845 -2.2099197e-05)
(2.7949073e-05 0.014379998 -2.1967312e-05)
(3.8312456e-05 -0.01902574 2.3621251e-05)
(-7.9057861e-06 -0.019150898 2.3778567e-05)
(5.3382346e-07 -0.019043289 2.3686686e-05)
(1.7361562e-05 -0.019153708 2.378261e-05)
(-1.7559719e-05 -0.019100948 2.3736708e-05)
(1.7558984e-05 -0.019100958 2.3730448e-05)
(-1.7362265e-05 -0.019153705 2.3782834e-05)
(-5.3303381e-07 -0.01904329 2.3686852e-05)
(7.9034631e-06 -0.019150893 2.3781787e-05)
(-3.8312386e-05 -0.019025738 2.3622397e-05)
(-3.499399e-05 0.017491471 -2.5485693e-05)
(-3.428206e-06 0.017615389 -2.5638802e-05)
(-2.6540085e-06 0.01748641 -2.553835e-05)
(-1.2694012e-05 0.017621913 -2.5637713e-05)
(8.7673524e-06 0.017558742 -2.5589508e-05)
(-8.768567e-06 0.017558729 -2.5594944e-05)
(1.2694416e-05 0.017621913 -2.5637475e-05)
(2.6545462e-06 0.017486411 -2.5538223e-05)
(3.4263492e-06 0.017615396 -2.563598e-05)
(3.4993433e-05 0.017491475 -2.5484624e-05)
(4.7027132e-05 -0.022523953 2.7282458e-05)
(-7.8770868e-06 -0.022670314 2.746328e-05)
(8.5779627e-07 -0.022546188 2.7364332e-05)
(2.119174e-05 -0.022672914 2.7465865e-05)
(-2.0905863e-05 -0.022612254 2.7417044e-05)
(2.0904623e-05 -0.022612266 2.7409996e-05)
(-2.1191938e-05 -0.022672909 2.7466152e-05)
(-8.5672289e-07 -0.022546189 2.7364401e-05)
(7.874858e-06 -0.02267031 2.74656e-05)
(-4.7027172e-05 -0.02252395 2.7283542e-05)
(-4.3442471e-05 0.021005322 -2.9286462e-05)
(-3.031076e-06 0.021151807 -2.9460321e-05)
(-2.8292665e-06 0.021005011 -2.9354545e-05)
(-1.6428499e-05 0.021157699 -2.9459565e-05)
(1.2148675e-05 0.021086343 -2.9408366e-05)
(-1.2150222e-05 0.021086328 -2.9413768e-05)
(1.6429398e-05 0.021157699 -2.9459281e-05)
(2.8297647e-06 0.021005011 -2.9354505e-05)
(3.0293855e-06 0.021151812 -2.9458308e-05)
(4.3441847e-05 0.021005326 -2.9285496e-05)
(5.7285829e-05 -0.026414773 3.1227226e-05)
(-7.760444e-06 -0.026584906 3.1434282e-05)
(1.1679704e-06 -0.026442755 3.1328158e-05)
(2.5707095e-05 -0.026587006 3.1434718e-05)
(-2.4866925e-05 -0.026517883 3.1383182e-05)
(2.4865112e-05 -0.026517895 3.1376594e-05)
(-2.5706709e-05 -0.026587001 3.1435129e-05)
(-1.1667068e-06 -0.026442756 3.1328062e-05)
(7.7583532e-06 -0.026584904 3.1434982e-05)
(-5.7285862e-05 -0.026414769 3.1228119e-05)
(-5.3508787e-05 0.024938832 -3.3371412e-05)
(-2.7434819e-06 0.025110616 -3.3567977e-05)
(-2.9915471e-06 0.024944801 -3.3457695e-05)
(-2.0869024e-05 0.025115528 -3.3567815e-05)
(1.6176551e-05 0.025035489 -3.3513872e-05)
(-1.6178373e-05 0.025035476 -3.3518112e-05)
(2.0870397e-05 0.025115529 -3.356745e-05)
(2.9918747e-06 0.024944801 -3.3457778e-05)
(2.7419966e-06 0.025110617 -3.3567093e-05)
(5.3508199e-05 0.024938836 -3.3370652e-05)
(6.9320911e-05 -0.030718222 3.5456225e-05)
(-7.5007981e-06 -0.030914915 3.5692187e-05)
(1.4450845e-06 -0.030753245 3.5579119e-05)
(3.0986476e-05 -0.03091613 3.5690084e-05)
(-2.9521563e-05 -0.030838037 3.5636105e-05)
(2.9519276e-05 -0.030838045 3.5631818e-05)
(-3.0985601e-05 -0.030916124 3.5690686e-05)
(-1.4438034e-06 -0.030753246 3.5578807e-05)
(7.4988761e-06 -0.030914915 3.5690806e-05)
(-6.9320765e-05 -0.030718218 3.5456794e-05)
(-6.5433672e-05 0.029307912 -3.77411e-05)
(-2.6116466e-06 0.029507985 -3.7962811e-05)
(-3.1199449e-06 0.029321807 -3.7848634e-05)
(-2.6106897e-05 0.029511526 -3.7963226e-05)
(2.0933069e-05 0.029422261 -3.7906825e-05)
(-2.0934999e-05 0.029422254 -3.790874e-05)
(2.6108618e-05 0.029511528 -3.7962753e-05)
(3.1199624e-06 0.029321807 -3.7848852e-05)
(2.6103922e-06 0.029507982 -3.7963089e-05)
(6.5433222e-05 0.029307917 -3.7740623e-05)
(8.3395309e-05 -0.035448196 3.9969665e-05)
(-7.0344333e-06 -0.035674499 4.0237031e-05)
(1.6649231e-06 -0.035491835 4.0117765e-05)
(3.7117399e-05 -0.035674344 4.0232517e-05)
(-3.4956911e-05 -0.035586814 4.0176377e-05)
(3.4954442e-05 -0.035586818 4.0176315e-05)
(-3.7116329e-05 -0.035674337 4.0233359e-05)
(-1.6638396e-06 -0.035491837 4.0117233e-05)
(7.0326921e-06 -0.035674501 4.0233556e-05)
(-8.339479e-05 -0.035448193 3.996981e-05)
(-7.9488265e-05 0.034125987 -4.2395452e-05)
(-2.6965044e-06 0.034357629 -4.2645218e-05)
(-3.1862905e-06 0.034149549 -4.2527586e-05)
(-3.2237304e-05 0.03435934 -4.2645953e-05)
(2.6505158e-05 0.034260264 -4.2587431e-05)
(-2.6506976e-05 0.034260266 -4.2586436e-05)
(3.2239187e-05 0.034359343 -4.2645379e-05)
(3.1858998e-06 0.034149548 -4.2527914e-05)
(2.6954863e-06 0.034357621 -4.2646432e-05)
(7.9488017e-05 0.03412599 -4.2395286e-05)
(9.9806263e-05 -0.040628461 4.4767242e-05)
(-6.2891091e-06 -0.040887739 4.5068427e-05)
(1.7967848e-06 -0.040682525 4.4944209e-05)
(4.4198024e-05 -0.04088563 4.5062141e-05)
(-4.1269059e-05 -0.040788195 4.5004097e-05)
(4.1266826e-05 -0.040788194 4.5009106e-05)
(-4.4197188e-05 -0.040885624 4.5063202e-05)
(-1.7960868e-06 -0.040682526 4.4943516e-05)
(6.287539e-06 -0.040887741 4.5063285e-05)
(-9.9805217e-05 -0.040628458 4.4766943e-05)
(-9.5978712e-05 0.039405354 -4.7333769e-05)
(-3.0728859e-06 0.039672227 -4.7614904e-05)
(-3.1542812e-06 0.039440393 -4.7494168e-05)
(-3.9361814e-05 0.039671593 -4.7615578e-05)
(3.298656e-05 0.039562002 -4.7555319e-05)
(-3.2988094e-05 0.039562013 -4.7552058e-05)
(3.9363712e-05 0.039671596 -4.7614958e-05)
(3.1534585e-06 0.039440392 -4.7494555e-05)
(3.0720952e-06 0.039672218 -4.7616668e-05)
(9.5978661e-05 0.039405357 -4.7333879e-05)
(0.00011889199 -0.046267843 4.9847592e-05)
(-5.184884e-06 -0.04656378 5.0184975e-05)
(1.802726e-06 -0.046334469 5.0057593e-05)
(5.2340244e-05 -0.04655899 5.0178065e-05)
(-4.8567087e-05 -0.046451255 5.0118344e-05)
(4.8565467e-05 -0.046451253 5.0126838e-05)
(-5.2340044e-05 -0.046558985 5.0179215e-05)
(-1.8024999e-06 -0.046334469 5.0056842e-05)
(5.1834551e-06 -0.046563782 5.0179025e-05)
(-0.00011889036 -0.046267841 4.9846929e-05)
(-0.0001152488 0.045167938 -5.2555031e-05)
(-3.8346672e-06 0.045474168 -5.2871269e-05)
(-2.976364e-06 0.045216383 -5.2747744e-05)
(-4.7585916e-05 0.04547061 -5.2871442e-05)
(4.0474505e-05 0.045349623 -5.2809854e-05)
(-4.0475736e-05 0.045349635 -5.2806108e-05)
(4.7587828e-05 0.045470612 -5.287087e-05)
(2.9751596e-06 0.045216382 -5.2748131e-05)
(3.8340756e-06 0.045474161 -5.287306e-05)
(0.00011524889 0.04516794 -5.2555332e-05)
(0.00014103879 -0.052353607 5.5208192e-05)
(-3.6312423e-06 -0.052690243 5.5584003e-05)
(1.6365359e-06 -0.052435289 5.5455825e-05)
(6.1669067e-05 -0.05268189 5.5578245e-05)
(-5.6977042e-05 -0.052563538 5.5517084e-05)
(5.6976129e-05 -0.052563539 5.5524922e-05)
(-6.1669636e-05 -0.052681885 5.557926e-05)
(-1.6367178e-06 -0.052435289 5.5455134e-05)
(3.6299169e-06 -0.052690244 5.5578826e-05)
(-0.00014103666 -0.052353604 5.5207341e-05)
(-0.0001376838 0.051429614 -5.8056636e-05)
(-5.0978934e-06 0.051779851 -5.8412065e-05)
(-2.5920654e-06 0.051493515 -5.8286213e-05)
(-5.7018801e-05 0.05177269 -5.8411403e-05)
(4.9069674e-05 0.051639225 -5.8348887e-05)
(-4.9070741e-05 0.051639231 -5.8346305e-05)
(5.7020873e-05 0.051772691 -5.8410957e-05)
(2.5905485e-06 0.051493513 -5.8286556e-05)
(5.0974659e-06 0.051779848 -5.8413343e-05)
(0.00013768395 0.051429615 -5.8057028e-05)
(0.00016668823 -0.058905203 6.0845681e-05)
(-1.5263817e-06 -0.059287095 6.1262093e-05)
(1.2406599e-06 -0.059004658 6.1136005e-05)
(7.2323573e-05 -0.059274196 6.1259814e-05)
(-6.6644078e-05 -0.059144784 6.1197549e-05)
(6.6643589e-05 -0.059144786 6.1200224e-05)
(-7.2324685e-05 -0.059274192 6.1260483e-05)
(-1.2410258e-06 -0.059004657 6.1135458e-05)
(1.5251287e-06 -0.059287097 6.1259977e-05)
(-0.0001666858 -0.058905201 6.0844897e-05)
(-0.00016372062 0.058191536 -6.383371e-05)
(-6.9957177e-06 0.058590984 -6.4232289e-05)
(-1.9291677e-06 0.058272943 -6.4105284e-05)
(-6.7780278e-05 0.058579311 -6.423113e-05)
(5.8886188e-05 0.058432208 -6.4168054e-05)
(-5.8887233e-05 0.058432206 -6.4166742e-05)
(6.778266e-05 0.058579312 -6.423082e-05)
(1.9273438e-06 0.05827294 -6.4105562e-05)
(6.9954093e-06 0.058590987 -6.4233071e-05)
(0.00016372082 0.058191537 -6.3834109e-05)
(0.00019634344 -0.065970369 6.6755588e-05)
(1.2376848e-06 -0.06640279 6.7215772e-05)
(5.3837955e-07 -0.066090464 6.7094441e-05)
(8.4464874e-05 -0.066384272 6.7218826e-05)
(-7.7727901e-05 -0.066243027 6.7156002e-05)
(7.7727432e-05 -0.066243028 6.7152289e-05)
(-8.4466192e-05 -0.06638427 6.7219107e-05)
(-5.386127e-07 -0.066090463 6.7094067e-05)
(-1.2388702e-06 -0.066402795 6.7218407e-05)
(-0.00019634098 -0.065970368 6.6755162e-05)
(-0.00019386253 0.065459778 -6.9880404e-05)
(-9.6756479e-06 0.065914113 -7.0325581e-05)
(-9.0296376e-07 0.065560847 -7.0199758e-05)
(-8.0005598e-05 0.065896503 -7.0325409e-05)
(7.0062856e-05 0.065735032 -7.0262128e-05)
(-7.0063877e-05 0.065735028 -7.0260575e-05)
(8.0008293e-05 0.065896503 -7.0325172e-05)
(9.0071507e-07 0.065560844 -7.019996e-05)
(9.6754057e-06 0.065914122 -7.0326961e-05)
(0.00019386287 0.065459779 -6.9880784e-05)
(0.00023057018 -0.073567145 7.2931839e-05)
(4.7803579e-06 -0.074056199 7.34412e-05)
(-5.8333893e-07 -0.073710834 7.3325778e-05)
(9.8279903e-05 -0.074030823 7.34498e-05)
(-9.0377811e-05 -0.073876618 7.3387138e-05)
(9.0377225e-05 -0.073876616 7.3380342e-05)
(-9.8281357e-05 -0.074030821 7.3449857e-05)
(5.835652e-07 -0.073710832 7.332557e-05)
(-4.7814505e-06 -0.074056208 7.3448484e-05)
(-0.00023056797 -0.073567146 7.2932002e-05)
(-0.00022869017 0.073249252 -7.6189771e-05)
(-1.3296394e-05 0.073764422 -7.6685538e-05)
(5.8923178e-07 0.073373083 -7.6563455e-05)
(-9.3850934e-05 0.073738701 -7.6688021e-05)
(8.2766289e-05 0.073563295 -7.6624944e-05)
(-8.2767154e-05 0.073563296 -7.6622132e-05)
(9.3853826e-05 0.073738702 -7.6687775e-05)
(-5.9214252e-07 0.073373079 -7.6563556e-05)
(1.3296153e-05 0.073764437 -7.6688724e-05)
(0.00022869085 0.073249253 -7.6190195e-05)
(0.00026999158 -0.081699115 7.9366058e-05)
(9.2766386e-06 -0.082251702 7.992979e-05)
(-2.2905261e-06 -0.081869377 7.982227e-05)
(0.0001139559 -0.082217804 7.994506e-05)
(-0.0001046927 -0.082049565 7.9883243e-05)
(0.00010469225 -0.082049561 7.9876741e-05)
(-0.0001139578 -0.082217803 7.9945104e-05)
(2.2915879e-06 -0.081869375 7.9822291e-05)
(-9.2776043e-06 -0.082251715 7.9942347e-05)
(-0.00026998994 -0.081699116 7.9366897e-05)
(-0.00026886473 0.081572982 -8.2751747e-05)
(-1.802522e-05 0.082155509 -8.3303549e-05)
(2.6839762e-06 0.08172501 -8.3187108e-05)
(-0.00010950406 0.082119004 -8.3309682e-05)
(9.7171024e-05 0.081930968 -8.3247306e-05)
(-9.7171685e-05 0.081930972 -8.3244275e-05)
(0.00010950712 0.082119005 -8.3309364e-05)
(-2.6878099e-06 0.081725007 -8.3187083e-05)
(1.8024902e-05 0.082155534 -8.3308963e-05)
(0.00026886598 0.081572983 -8.2752306e-05)
(0.00031531014 -0.090386447 8.6046931e-05)
(1.5038553e-05 -0.091010168 8.6669341e-05)
(-4.7957673e-06 -0.090587114 8.6573269e-05)
(0.00013161971 -0.090965416 8.6694641e-05)
(-0.00012073071 -0.090782843 8.6633733e-05)
(0.00012073056 -0.090782839 8.6627288e-05)
(-0.00013162231 -0.090965416 8.6694728e-05)
(4.798306e-06 -0.090587111 8.6573636e-05)
(-1.5039372e-05 -0.091010187 8.6689798e-05)
(-0.00031530967 -0.090386448 8.6048395e-05)
(-0.00031510255 0.090442341 -8.955342e-05)
(-2.4092975e-05 0.091099984 -9.0166324e-05)
(5.5688901e-06 0.090630305 -9.0058484e-05)
(-0.00012714544 0.09105039 -9.0178937e-05)
(0.00011340209 0.090849971 -9.0117337e-05)
(-0.00011340257 0.090849971 -9.0113972e-05)
(0.00012714874 0.09105039 -9.0178383e-05)
(-5.5739843e-06 0.090630301 -9.005839e-05)
(2.4092504e-05 0.09110002 -9.0176024e-05)
(0.00031510465 0.090442342 -8.9554205e-05)
(0.00036736263 -0.09962105 9.2971086e-05)
(2.2544243e-05 -0.10032401 9.3666338e-05)
(-8.3166574e-06 -0.099858193 9.3576541e-05)
(0.00015130398 -0.10026591 9.3696358e-05)
(-0.00013860347 -0.10006876 9.3636039e-05)
(0.00013860343 -0.10006875 9.3633201e-05)
(-0.00015130714 -0.10026591 9.3696399e-05)
(8.3213538e-06 -0.09985819 9.3577052e-05)
(-2.2544924e-05 -0.10032403 9.3688771e-05)
(-0.00036736395 -0.099621053 9.2972962e-05)
(-0.00036819918 0.099865275 -9.6590107e-05)
(-3.1885596e-05 0.10060779 -9.7274332e-05)
(9.4382878e-06 0.10009536 -9.7173962e-05)
(-0.00014685852 0.10054349 -9.7292329e-05)
(0.00013159427 0.10032778 -9.7231397e-05)
(-0.00013159443 0.10032778 -9.7229443e-05)
(0.00014686198 0.10054349 -9.7291188e-05)
(-9.4450558e-06 0.10009536 -9.7173796e-05)
(3.1884907e-05 0.10060782 -9.7286511e-05)
(0.0003682025 0.099865276 -9.6591254e-05)
(0.00042703079 -0.10937557 0.00010010341)
(3.2224277e-05 -0.11016855 0.00010088411)
(-1.3034576e-05 -0.10965305 0.00010079973)
(0.00017303666 -0.11009532 0.00010091332)
(-0.00015856375 -0.10987995 0.00010085514)
(0.00015856378 -0.10987995 0.00010085891)
(-0.00017304042 -0.11009532 0.00010091306)
(1.3041331e-05 -0.10965304 0.00010079971)
(-3.2224808e-05 -0.11016857 0.00010090094)
(-0.00042703378 -0.10937557 0.00010010536)
(-0.00042929781 0.10985124 -0.00010382388)
(-4.1589465e-05 0.1106914 -0.00010463709)
(1.4529499e-05 0.11012287 -0.00010449816)
(-0.00016895646 0.11061114 -0.00010460932)
(0.00015216278 0.11037376 -0.00010455147)
(-0.00015216317 0.11037377 -0.00010459331)