/*--------------------------------*- C++ -*----------------------------------*\
  =========                 |
  \\      /  F ield         | OpenFOAM: The Open Source CFD Toolbox
   \\    /   O peration     | Website:  https://openfoam.org
    \\  /    A nd           | Version:  8
     \\/     M anipulation  |
\*---------------------------------------------------------------------------*/
FoamFile
{
    version     2.0;
    format      ascii;
    class       volScalarField;
    location    "1";
    object      N;
}
// * * * * * * * * * * * * * * * * * * * * * * * * * * * * * * * * * * * * * //

dimensions      [0 -3 0 0 0 0 0];

internalField   nonuniform List<scalar> 
200
(
34158191
0.10215614
0.10100661
0.10040953
0.10014593
0.10004583
0.10001276
0.10000316
0.10000069
0.10000012
0.1
0.099999982
0.099999978
0.099999977
0.099999977
0.099999977
0.099999977
0.099999977
0.099999977
0.099999977
0.099999977
0.099999977
0.099999977
0.099999977
0.099999977
0.099999977
0.099999977
0.099999977
0.099999977
0.099999977
0.099999977
0.099999977
0.099999977
0.099999977
0.099999977
0.099999977
0.099999977
0.099999977
0.099999977
0.099999977
0.099999977
0.099999977
0.099999977
0.099999977
0.099999977
0.099999977
0.099999977
0.099999977
0.099999977
0.099999977
0.099999977
0.099999977
0.099999977
0.099999977
0.099999977
0.099999977
0.099999977
0.099999977
0.099999977
0.099999977
0.099999977
0.099999977
0.099999977
0.099999977
0.099999977
0.099999977
0.099999977
0.099999977
0.099999977
0.099999977
0.099999977
0.099999977
0.099999977
0.099999977
0.099999977
0.099999977
0.099999977
0.099999977
0.099999977
0.099999977
0.099999977
0.099999977
0.099999977
0.099999977
0.099999977
0.099999977
0.099999977
0.099999977
0.099999977
0.099999977
0.099999977
0.099999977
0.099999977
0.099999977
0.099999977
0.099999977
0.099999977
0.099999977
0.099999977
0.099999977
0.099999977
0.099999977
0.099999977
0.099999977
0.099999977
0.099999977
0.099999977
0.099999977
0.099999977
0.099999977
0.099999977
0.099999977
0.099999977
0.099999977
0.099999977
0.099999977
0.099999977
0.099999977
0.099999977
0.099999977
0.099999977
0.099999977
0.099999977
0.099999977
0.099999977
0.099999977
0.099999977
0.099999977
0.099999977
0.099999977
0.099999978
0.099999977
0.099999978
0.099999977
0.099999978
0.099999977
0.099999978
0.099999976
0.099999979
0.099999976
0.099999979
0.099999976
0.09999998
0.099999975
0.099999981
0.099999974
0.099999982
0.099999973
0.099999984
0.099999971
0.099999986
0.099999969
0.099999988
0.099999966
0.099999991
0.099999963
0.099999995
0.09999996
0.099999999
0.099999956
0.1
0.099999951
0.10000001
0.099999945
0.10000002
0.099999938
0.10000002
0.099999931
0.10000003
0.099999922
0.10000004
0.099999912
0.10000005
0.099999901
0.10000006
0.099999888
0.10000008
0.099999873
0.10000009
0.099999856
0.10000011
0.099999837
0.10000013
0.099999815
0.10000016
0.099999789
0.10000019
0.099999761
0.10000022
0.099999728
0.10000025
0.099999691
0.1000003
0.099999641
0.10000033
0.099999609
0.10000039
0.099999544
0.10000045
0.09999946
)
;

boundaryField
{
    left
    {
        type            zeroGradient;
    }
    right
    {
        type            zeroGradient;
    }
    walls
    {
        type            zeroGradient;
    }
    centreline
    {
        type            zeroGradient;
    }
    frontAndBack
    {
        type            zeroGradient;
    }
}


// ************************************************************************* //
