/*--------------------------------*- C++ -*----------------------------------*\
  =========                 |
  \\      /  F ield         | OpenFOAM: The Open Source CFD Toolbox
   \\    /   O peration     | Website:  https://openfoam.org
    \\  /    A nd           | Version:  8
     \\/     M anipulation  |
\*---------------------------------------------------------------------------*/
FoamFile
{
    version     2.0;
    format      ascii;
    class       volScalarField;
    location    "1";
    object      p;
}
// * * * * * * * * * * * * * * * * * * * * * * * * * * * * * * * * * * * * * //

dimensions      [1 -1 -2 0 0 0 0];

internalField   nonuniform List<scalar> 
200
(
4246.9989
4246.9989
4246.9989
4246.9989
4246.9989
4246.9989
4246.9989
4246.9989
4246.9989
4246.9989
4246.9989
4246.9989
4246.9989
4246.9989
4246.9989
4246.9989
4246.9989
4246.9989
4246.9989
4246.9989
4246.9989
4246.9989
4246.9989
4246.9989
4246.9989
4246.9989
4246.9989
4246.9989
4246.9989
4246.9989
4246.9989
4246.9989
4246.9989
4246.9989
4246.9989
4246.9989
4246.9989
4246.9989
4246.9989
4246.9989
4246.9989
4246.9989
4246.9989
4246.9989
4246.9989
4246.9989
4246.9989
4246.9989
4246.9989
4246.9989
4246.9989
4246.9989
4246.9989
4246.9989
4246.9989
4246.9989
4246.9989
4246.9989
4246.9989
4246.9989
4246.9989
4246.9989
4246.9989
4246.9989
4246.9989
4246.9989
4246.9989
4246.9989
4246.9989
4246.9989
4246.9989
4246.9989
4246.9989
4246.9989
4246.9989
4246.9989
4246.9989
4246.9989
4246.9989
4246.9989
4246.9989
4246.9989
4246.9989
4246.9989
4246.9989
4246.9989
4246.9989
4246.9989
4246.9989
4246.9989
4246.9989
4246.9989
4246.9989
4246.9989
4246.9989
4246.9989
4246.9989
4246.9989
4246.9989
4246.9989
4246.9989
4246.9989
4246.9989
4246.9989
4246.9989
4246.9989
4246.9989
4246.9989
4246.9989
4246.9989
4246.9989
4246.9989
4246.9989
4246.9989
4246.9989
4246.9989
4246.9989
4246.9989
4246.9989
4246.9989
4246.9989
4246.9989
4246.9989
4246.9989
4246.9989
4246.9989
4246.9989
4246.9989
4246.9989
4246.9989
4246.9989
4246.9989
4246.9989
4246.9989
4246.9989
4246.9989
4246.999
4246.9989
4246.999
4246.9989
4246.999
4246.9988
4246.9991
4246.9988
4246.9991
4246.9987
4246.9992
4246.9987
4246.9992
4246.9986
4246.9993
4246.9985
4246.9995
4246.9984
4246.9996
4246.9982
4246.9998
4246.9981
4247
4246.9978
4247.0002
4246.9976
4247.0005
4246.9973
4247.0008
4246.997
4247.0012
4246.9966
4247.0016
4246.9962
4247.0021
4246.9957
4247.0026
4246.9951
4247.0032
4246.9945
4247.0039
4246.9938
4247.0047
4246.9929
4247.0056
4246.992
4247.0067
4246.9909
4247.0079
4246.9896
4247.0092
4246.9881
4247.0108
4246.9865
4247.0126
4246.9846
4247.0144
4246.9827
4247.0171
4246.9799
4247.0192
4246.9777
4247.0221
4246.9747
)
;

boundaryField
{
    left
    {
        type            zeroGradient;
    }
    right
    {
        type            zeroGradient;
    }
    walls
    {
        type            zeroGradient;
    }
    centreline
    {
        type            fixedValue;
        value           uniform 4247;
    }
    frontAndBack
    {
        type            zeroGradient;
    }
}


// ************************************************************************* //
