/*--------------------------------*- C++ -*----------------------------------*\
  =========                 |
  \\      /  F ield         | OpenFOAM: The Open Source CFD Toolbox
   \\    /   O peration     | Website:  https://openfoam.org
    \\  /    A nd           | Version:  8
     \\/     M anipulation  |
\*---------------------------------------------------------------------------*/
FoamFile
{
    version     2.0;
    format      ascii;
    class       surfaceScalarField;
    location    "1";
    object      phi;
}
// * * * * * * * * * * * * * * * * * * * * * * * * * * * * * * * * * * * * * //

dimensions      [1 0 -1 0 0 0 0];

internalField   nonuniform List<scalar> 
199
(
-4.4999352e-05
-9.6130693e-05
-0.0001365317
-0.00016105522
-0.00017310889
-0.00017807154
-0.00017984036
-0.000180418
-0.00018061772
-0.00018071379
-0.0001807853
-0.00018085208
-0.00018091842
-0.00018098504
-0.00018105197
-0.00018111914
-0.00018118649
-0.00018125404
-0.00018132183
-0.00018138994
-0.00018145843
-0.0001815274
-0.00018159691
-0.000181667
-0.00018173768
-0.00018180896
-0.00018188079
-0.00018195314
-0.00018202598
-0.00018209926
-0.00018217297
-0.00018224709
-0.00018232162
-0.00018239659
-0.000182472
-0.00018254788
-0.00018262425
-0.00018270111
-0.00018277847
-0.00018285632
-0.00018293466
-0.00018301348
-0.00018309277
-0.00018317252
-0.00018325271
-0.00018333336
-0.00018341445
-0.000183496
-0.00018357801
-0.00018366048
-0.00018374342
-0.00018382682
-0.00018391068
-0.00018399501
-0.00018407979
-0.00018416504
-0.00018425074
-0.00018433691
-0.00018442354
-0.00018451063
-0.0001845982
-0.00018468623
-0.00018477475
-0.00018486375
-0.00018495323
-0.00018504319
-0.00018513365
-0.0001852246
-0.00018531605
-0.000185408
-0.00018550046
-0.00018559342
-0.00018568689
-0.00018578087
-0.00018587537
-0.00018597038
-0.0001860659
-0.00018616194
-0.00018625849
-0.00018635556
-0.00018645313
-0.00018655121
-0.0001866498
-0.00018674889
-0.00018684849
-0.00018694858
-0.00018704917
-0.00018715026
-0.00018725185
-0.00018735392
-0.00018745648
-0.00018755953
-0.00018766307
-0.00018776708
-0.00018787157
-0.00018797653
-0.00018808195
-0.00018818782
-0.00018829415
-0.00018840091
-0.00018850811
-0.00018861572
-0.00018872375
-0.00018883218
-0.00018894099
-0.00018905018
-0.00018915973
-0.00018926962
-0.00018937985
-0.00018949039
-0.00018960122
-0.00018971233
-0.00018982369
-0.00018993529
-0.00019004709
-0.00019015909
-0.00019027126
-0.00019038359
-0.00019049604
-0.00019060862
-0.0001907213
-0.00019083408
-0.00019094694
-0.00019105988
-0.00019117288
-0.00019128596
-0.0001913991
-0.00019151231
-0.00019162557
-0.00019173891
-0.00019185228
-0.00019196574
-0.0001920792
-0.00019219277
-0.00019230628
-0.00019241992
-0.00019253344
-0.00019264712
-0.00019276058
-0.00019287425
-0.00019298759
-0.00019310121
-0.00019321434
-0.00019332789
-0.00019344069
-0.0001935542
-0.00019366654
-0.00019378006
-0.00019389172
-0.00019400535
-0.00019411611
-0.00019422996
-0.00019433949
-0.00019445371
-0.00019456164
-0.00019467634
-0.00019478223
-0.00019489746
-0.00019500087
-0.00019511657
-0.00019521704
-0.00019533299
-0.00019543016
-0.00019554592
-0.00019563956
-0.00019575443
-0.00019584454
-0.0001959575
-0.00019604439
-0.00019615404
-0.00019623846
-0.00019634298
-0.00019642617
-0.00019652332
-0.0001966071
-0.00019669414
-0.00019678095
-0.00019685473
-0.00019694755
-0.00019700459
-0.0001971068
-0.00019714343
-0.00019725862
-0.0001972712
-0.0001974028
-0.00019738808
-0.00019753893
-0.00019749333
-0.00019765535
-0.00019763819
-0.0001984756
-0.00019671481
-0.00018063642
-0.00019783963
-0.00021692498
-0.00019810738
-0.00018350452
-0.00019671764
-0.00019163276
)
;

boundaryField
{
    left
    {
        type            calculated;
        value           uniform 0;
    }
    right
    {
        type            calculated;
        value           uniform 0;
    }
    walls
    {
        type            calculated;
        value           uniform 0;
    }
    centreline
    {
        type            calculated;
        value           uniform -0.00019726515;
    }
    frontAndBack
    {
        type            calculated;
        value           uniform 0;
    }
}


// ************************************************************************* //
