/*--------------------------------*- C++ -*----------------------------------*\
  =========                 |
  \\      /  F ield         | OpenFOAM: The Open Source CFD Toolbox
   \\    /   O peration     | Website:  https://openfoam.org
    \\  /    A nd           | Version:  8
     \\/     M anipulation  |
\*---------------------------------------------------------------------------*/
FoamFile
{
    version     2.0;
    format      ascii;
    class       volVectorField;
    location    "1";
    object      U;
}
// * * * * * * * * * * * * * * * * * * * * * * * * * * * * * * * * * * * * * //

dimensions      [0 1 -1 0 0 0 0];

internalField   nonuniform List<vector> 
200
(
(0 -0.00012458419 0)
(0 -0.0005454432 0)
(0 -0.00098493768 0)
(0 -0.0012429935 0)
(0 -0.0013970776 0)
(0 -0.001452166 0)
(0 -0.0014785039 0)
(0 -0.0014833898 0)
(0 -0.0014872356 0)
(0 -0.0014872676 0)
(0 -0.0014884721 0)
(0 -0.0014886624 0)
(0 -0.0014894368 0)
(0 -0.001489839 0)
(0 -0.0014904802 0)
(0 -0.0014909737 0)
(0 -0.0014915644 0)
(0 -0.0014920956 0)
(0 -0.0014926678 0)
(0 -0.0014932172 0)
(0 -0.0014937858 0)
(0 -0.0014943477 0)
(0 -0.0014949206 0)
(0 -0.0014954937 0)
(0 -0.0014960746 0)
(0 -0.0014966584 0)
(0 -0.0014972482 0)
(0 -0.0014978416 0)
(0 -0.0014984396 0)
(0 -0.001499041 0)
(0 -0.0014996462 0)
(0 -0.0015002547 0)
(0 -0.0015008667 0)
(0 -0.0015014821 0)
(0 -0.0015021012 0)
(0 -0.0015027241 0)
(0 -0.0015033509 0)
(0 -0.0015039818 0)
(0 -0.0015046167 0)
(0 -0.0015052558 0)
(0 -0.0015058989 0)
(0 -0.001506546 0)
(0 -0.0015071969 0)
(0 -0.0015078516 0)
(0 -0.0015085101 0)
(0 -0.0015091723 0)
(0 -0.0015098382 0)
(0 -0.0015105078 0)
(0 -0.0015111812 0)
(0 -0.0015118583 0)
(0 -0.0015125393 0)
(0 -0.0015132241 0)
(0 -0.0015139127 0)
(0 -0.0015146052 0)
(0 -0.0015153014 0)
(0 -0.0015160014 0)
(0 -0.0015167052 0)
(0 -0.0015174127 0)
(0 -0.0015181241 0)
(0 -0.0015188393 0)
(0 -0.0015195583 0)
(0 -0.0015202812 0)
(0 -0.001521008 0)
(0 -0.0015217387 0)
(0 -0.0015224735 0)
(0 -0.0015232122 0)
(0 -0.0015239549 0)
(0 -0.0015247017 0)
(0 -0.0015254526 0)
(0 -0.0015262076 0)
(0 -0.0015269667 0)
(0 -0.00152773 0)
(0 -0.0015284974 0)
(0 -0.0015292692 0)
(0 -0.001530045 0)
(0 -0.0015308252 0)
(0 -0.0015316094 0)
(0 -0.0015323983 0)
(0 -0.0015331908 0)
(0 -0.0015339884 0)
(0 -0.001534789 0)
(0 -0.0015355955 0)
(0 -0.0015364039 0)
(0 -0.0015372195 0)
(0 -0.0015380351 0)
(0 -0.0015388606 0)
(0 -0.0015396825 0)
(0 -0.0015405188 0)
(0 -0.0015413453 0)
(0 -0.0015421946 0)
(0 -0.0015430228 0)
(0 -0.0015438886 0)
(0 -0.0015447136 0)
(0 -0.0015456022 0)
(0 -0.0015464156 0)
(0 -0.0015473377 0)
(0 -0.0015481252 0)
(0 -0.0015490989 0)
(0 -0.0015498365 0)
(0 -0.0015508921 0)
(0 -0.0015515402 0)
(0 -0.0015527282 0)
(0 -0.0015532213 0)
(0 -0.0015546247 0)
(0 -0.0015548558 0)
(0 -0.0015566103 0)
(0 -0.0015564062 0)
(0 -0.0015587304 0)
(0 -0.0015578133 0)
(0 -0.0015610569 0)
(0 -0.001558985 0)
(0 -0.0015637021 0)
(0 -0.0015597792 0)
(0 -0.0015668398 0)
(0 -0.001559978 0)
(0 -0.0015707359 0)
(0 -0.0015592505 0)
(0 -0.0015757938 0)
(0 -0.0015570995 0)
(0 -0.0015826185 0)
(0 -0.0015527854 0)
(0 -0.0015921055 0)
(0 -0.0015452224 0)
(0 -0.0016055619 0)
(0 -0.0015328405 0)
(0 -0.0016248611 0)
(0 -0.0015134135 0)
(0 -0.0016526314 0)
(0 -0.0014838575 0)
(0 -0.0016924652 0)
(0 -0.0014400181 0)
(0 -0.0017491278 0)
(0 -0.0013764744 0)
(0 -0.0018287318 0)
(0 -0.0012863939 0)
(0 -0.0019388435 0)
(0 -0.0011614711 0)
(0 -0.0020884944 0)
(0 -0.00099197155 0)
(0 -0.002288079 0)
(0 -0.00076689117 0)
(0 -0.0025491401 0)
(0 -0.0004742232 0)
(0 -0.002884057 0)
(0 -0.00010130562 0)
(0 -0.0033056747 0)
(0 0.00036479778 0)
(0 -0.003826926 0)
(0 0.00093693706 0)
(0 -0.0044605003 0)
(0 0.0016275822 0)
(0 -0.0052185939 0)
(0 0.0024486226 0)
(0 -0.0061127593 0)
(0 0.0034112667 0)
(0 -0.0071538507 0)
(0 0.0045260312 0)
(0 -0.0083520551 0)
(0 0.0058028098 0)
(0 -0.0097169916 0)
(0 0.0072510013 0)
(0 -0.011257866 0)
(0 0.0088796871 0)
(0 -0.012983668 0)
(0 0.010697843 0)
(0 -0.014903396 0)
(0 0.012714577 0)
(0 -0.017026303 0)
(0 0.014939381 0)
(0 -0.019362156 0)
(0 0.017382384 0)
(0 -0.021921482 0)
(0 0.020054601 0)
(0 -0.024715815 0)
(0 0.022968154 0)
(0 -0.02775789 0)
(0 0.026136453 0)
(0 -0.031061807 0)
(0 0.029574319 0)
(0 -0.034643113 0)
(0 0.033298034 0)
(0 -0.03851881 0)
(0 0.037325298 0)
(0 -0.042707264 0)
(0 0.041675095 0)
(0 -0.047228024 0)
(0 0.046367467 0)
(0 -0.052101544 0)
(0 0.05142319 0)
(0 -0.057348924 0)
(0 0.056863646 0)
(0 -0.062989086 0)
(0 0.062707121 0)
(0 -0.069004923 0)
(0 0.068935117 0)
(0 -0.075470554 0)
(0 0.075621148 0)
(0 -0.082437119 0)
(0 0.082816363 0)
(0 -0.089865613 0)
)
;

boundaryField
{
    left
    {
        type            noSlip;
    }
    right
    {
        type            noSlip;
    }
    walls
    {
        type            noSlip;
    }
    centreline
    {
        type            noSlip;
    }
    frontAndBack
    {
        type            noSlip;
    }
}


// ************************************************************************* //
