/*--------------------------------*- C++ -*----------------------------------*\
  =========                 |
  \\      /  F ield         | OpenFOAM: The Open Source CFD Toolbox
   \\    /   O peration     | Website:  https://openfoam.org
    \\  /    A nd           | Version:  8
     \\/     M anipulation  |
\*---------------------------------------------------------------------------*/
FoamFile
{
    version     2.0;
    format      ascii;
    class       volScalarField;
    location    "1";
    object      N;
}
// * * * * * * * * * * * * * * * * * * * * * * * * * * * * * * * * * * * * * //

dimensions      [0 -3 0 0 0 0 0];

internalField   nonuniform List<scalar> 
200
(
9.7813205e+10
13188787
1054.7775
0.18212688
0.1000068
0.10000071
0.10000081
0.10000086
0.10000089
0.10000091
0.10000092
0.10000093
0.10000094
0.10000095
0.10000096
0.10000097
0.10000097
0.10000098
0.10000099
0.10000099
0.10000099
0.10000099
0.100001
0.100001
0.10000099
0.10000099
0.10000099
0.10000099
0.10000098
0.10000098
0.10000097
0.10000097
0.10000097
0.10000096
0.10000096
0.10000095
0.10000095
0.10000094
0.10000094
0.10000093
0.10000094
0.10000093
0.10000094
0.10000093
0.10000093
0.10000092
0.10000093
0.10000092
0.10000093
0.10000091
0.10000093
0.10000091
0.10000093
0.1000009
0.10000093
0.10000089
0.10000092
0.10000089
0.10000092
0.10000088
0.10000092
0.10000087
0.10000092
0.10000086
0.10000092
0.10000086
0.10000092
0.10000085
0.10000092
0.10000084
0.10000093
0.10000084
0.10000093
0.10000083
0.10000094
0.10000083
0.10000094
0.10000083
0.10000095
0.10000082
0.10000095
0.10000081
0.10000095
0.10000081
0.10000096
0.1000008
0.10000096
0.10000079
0.10000096
0.10000077
0.10000096
0.10000076
0.10000096
0.10000075
0.10000096
0.10000074
0.10000096
0.10000073
0.10000096
0.10000071
0.10000096
0.1000007
0.10000096
0.10000069
0.10000096
0.10000068
0.10000096
0.10000067
0.10000096
0.10000065
0.10000096
0.10000064
0.10000096
0.10000062
0.10000096
0.10000061
0.10000096
0.10000059
0.10000095
0.10000057
0.10000095
0.10000055
0.10000094
0.10000052
0.10000093
0.1000005
0.10000092
0.10000047
0.10000091
0.10000044
0.10000089
0.10000041
0.10000088
0.10000037
0.10000087
0.10000034
0.10000085
0.10000031
0.10000083
0.1000003
0.1000008
0.10000028
0.10000076
0.10000027
0.10000074
0.10000024
0.10000072
0.10000025
0.1000007
0.10000021
0.1000007
0.10000017
0.1000007
0.10000018
0.10000065
0.10000017
0.10000065
0.10000019
0.10000061
0.10000017
0.10000059
0.10000017
0.10000056
0.1000002
0.10000051
0.10000018
0.10000052
0.10000015
0.10000047
0.10000016
0.10000043
0.10000016
0.10000035
0.10000021
0.10000032
0.10000016
0.10000027
0.1000002
0.10000019
0.10000025
0.10000018
0.10000027
0.10000006
0.10000031
0.10000002
0.10000038
0.099999906
0.10000046
0.099999839
0.10000055
0.099999719
0.10000061
0.099999695
0.10000064
0.099999558
0.10000072
0.099999488
0.1000008
0.099999212
0.099999208
)
;

boundaryField
{
    left
    {
        type            zeroGradient;
    }
    right
    {
        type            zeroGradient;
    }
    walls
    {
        type            zeroGradient;
    }
    centreline
    {
        type            zeroGradient;
    }
    frontAndBack
    {
        type            zeroGradient;
    }
}


// ************************************************************************* //
