/*--------------------------------*- C++ -*----------------------------------*\
  =========                 |
  \\      /  F ield         | OpenFOAM: The Open Source CFD Toolbox
   \\    /   O peration     | Website:  https://openfoam.org
    \\  /    A nd           | Version:  8
     \\/     M anipulation  |
\*---------------------------------------------------------------------------*/
FoamFile
{
    version     2.0;
    format      ascii;
    class       surfaceScalarField;
    location    "1";
    object      phi;
}
// * * * * * * * * * * * * * * * * * * * * * * * * * * * * * * * * * * * * * //

dimensions      [1 0 -1 0 0 0 0];

internalField   nonuniform List<scalar> 
199
(
-1.6966381e-05
-2.9458362e-05
-4.1963762e-05
-5.4553338e-05
-6.7227108e-05
-7.9985025e-05
-9.2826379e-05
-0.00010575086
-0.00011875766
-0.0001318463
-0.00014501581
-0.00015826553
-0.00017159437
-0.00018500145
-0.00019848567
-0.0002120458
-0.00022568116
-0.00023938962
-0.00025317193
-0.00026702383
-0.00028094957
-0.00029494007
-0.00030900701
-0.00032313165
-0.00033733949
-0.00035159446
-0.00036594532
-0.00038032755
-0.00039482629
-0.00040933334
-0.00042398747
-0.00043861716
-0.00045343652
-0.00046818627
-0.0004831824
-0.00049804846
-0.00051323384
-0.00052821039
-0.00054359773
-0.00055867615
-0.00057427796
-0.0005894464
-0.00060527493
-0.00062051834
-0.00063658596
-0.00065188642
-0.0006682063
-0.00068354359
-0.00070013029
-0.00071548238
-0.00073235214
-0.00074769519
-0.00076486571
-0.00078017345
-0.00079766328
-0.00081290587
-0.0008307337
-0.00084587632
-0.0008640608
-0.00087906255
-0.00089762277
-0.00091243645
-0.00093139383
-0.00094596637
-0.0009653487
-0.00097962116
-0.00099946432
-0.001013387
-0.0010337228
-0.001047229
-0.0010681185
-0.001081193
-0.0011023718
-0.0011181275
-0.0011335194
-0.0011505753
-0.0011682815
-0.001185843
-0.0012030699
-0.0012202952
-0.0012375559
-0.00125495
-0.0012723106
-0.0012897319
-0.0013071033
-0.0013245414
-0.0013419274
-0.0013593679
-0.0013767341
-0.001394146
-0.0014114549
-0.0014288054
-0.0014460159
-0.0014632671
-0.0014803371
-0.0014974497
-0.0015143404
-0.0015312773
-0.0015479556
-0.001564685
-0.0015811239
-0.001597622
-0.0016138023
-0.0016300545
-0.0016459629
-0.0016619607
-0.0016775855
-0.001693321
-0.0017086477
-0.0017241099
-0.0017391207
-0.001754297
-0.0017689747
-0.0017838563
-0.0017981924
-0.001812782
-0.0018267837
-0.0018411005
-0.0018547927
-0.001868871
-0.0018822921
-0.0018961749
-0.0019093675
-0.0019230958
-0.0019360943
-0.0019496948
-0.0019625152
-0.0019759973
-0.0019886435
-0.0020020165
-0.0020145041
-0.0020278004
-0.0020401686
-0.0020534366
-0.0020657197
-0.0020789797
-0.0020911598
-0.0021043676
-0.0021163653
-0.0021294371
-0.0021411688
-0.0021540537
-0.0021654987
-0.0021782135
-0.0021894037
-0.0022019777
-0.0022129199
-0.0022253313
-0.0022359968
-0.0022482314
-0.0022586666
-0.0022708274
-0.0022811972
-0.0022934346
-0.0023038584
-0.0023161925
-0.0023266772
-0.0023391031
-0.0023497968
-0.0023625128
-0.0023737445
-0.0023869155
-0.0023988737
-0.0024125031
-0.0024255031
-0.0024399052
-0.0024545742
-0.0024698124
-0.0024859315
-0.0025008446
-0.0025169532
-0.0025288745
-0.002541742
-0.0025478604
-0.0025573625
-0.0025613907
-0.0025732993
-0.0025806644
-0.0025972846
-0.0026079288
-0.0026270321
-0.0026392151
-0.0026611852
-0.0026774406
-0.0027020415
-0.0027183286
-0.0027376495
-0.002749962
-0.0027610955
-0.0027726231
-0.002775787
-0.0027910387
-0.002785279
-0.0028077637
-0.0027909108
-0.0028240715
-0.0027939704
-0.0028412955
-0.00279487
)
;

boundaryField
{
    left
    {
        type            calculated;
        value           uniform 0;
    }
    right
    {
        type            calculated;
        value           uniform 0;
    }
    walls
    {
        type            calculated;
        value           uniform 0;
    }
    centreline
    {
        type            calculated;
        value           uniform -0.002859528;
    }
    frontAndBack
    {
        type            calculated;
        value           uniform 0;
    }
}


// ************************************************************************* //
