/*--------------------------------*- C++ -*----------------------------------*\
  =========                 |
  \\      /  F ield         | OpenFOAM: The Open Source CFD Toolbox
   \\    /   O peration     | Website:  https://openfoam.org
    \\  /    A nd           | Version:  8
     \\/     M anipulation  |
\*---------------------------------------------------------------------------*/
FoamFile
{
    version     2.0;
    format      ascii;
    class       volScalarField;
    location    "1";
    object      T;
}
// * * * * * * * * * * * * * * * * * * * * * * * * * * * * * * * * * * * * * //

dimensions      [0 0 0 1 0 0 0];

internalField   nonuniform List<scalar> 
200
(
275.78748
370.92073
372.97991
373.00074
372.99977
372.99909
372.99869
372.99847
372.99834
372.99827
372.99822
372.99817
372.99814
372.9981
372.99807
372.99804
372.99801
372.99799
372.99797
372.99795
372.99793
372.99793
372.99792
372.99792
372.99793
372.99793
372.99794
372.99796
372.99797
372.99799
372.998
372.99802
372.99804
372.99806
372.99808
372.99809
372.99811
372.99812
372.99813
372.99814
372.99815
372.99815
372.99816
372.99816
372.99817
372.99817
372.99817
372.99818
372.99818
372.99818
372.99819
372.99819
372.9982
372.99821
372.99821
372.99822
372.99823
372.99824
372.99825
372.99825
372.99826
372.99827
372.99827
372.99828
372.99828
372.99828
372.99828
372.99828
372.99828
372.99828
372.99827
372.99827
372.99826
372.99826
372.99825
372.99825
372.99824
372.99824
372.99824
372.99823
372.99823
372.99823
372.99823
372.99823
372.99824
372.99824
372.99825
372.99825
372.99826
372.99826
372.99827
372.99828
372.99829
372.99829
372.9983
372.9983
372.99831
372.99831
372.99832
372.99832
372.99833
372.99832
372.99834
372.99832
372.99835
372.99833
372.99836
372.99833
372.99837
372.99834
372.99838
372.99835
372.9984
372.99836
372.99842
372.99838
372.99844
372.9984
372.99847
372.99843
372.99851
372.99847
372.99855
372.99851
372.9986
372.99857
372.99865
372.99863
372.99869
372.9987
372.99875
372.99878
372.99881
372.99886
372.99886
372.99895
372.99893
372.99901
372.999
372.99902
372.99912
372.99902
372.99926
372.99902
372.99931
372.99912
372.99938
372.99905
372.99943
372.99918
372.99937
372.99931
372.99934
372.99922
372.99946
372.99927
372.99943
372.99916
372.99951
372.99924
372.99949
372.99927
372.99955
372.99918
372.99964
372.9993
372.99948
372.99943
372.99957
372.99945
372.99961
372.99951
372.99977
372.99938
372.99973
372.99964
372.99977
372.99958
372.99989
372.9995
372.9997
372.99961
372.9999
372.99964
372.99971
372.99967
372.99974
372.99974
372.99948
372.99988
372.99933
373.00025
372.99865
373.00088
372.99828
373.00146
372.99747
373.00223
372.9968
373.00112
)
;

boundaryField
{
    left
    {
        type            zeroGradient;
    }
    right
    {
        type            zeroGradient;
    }
    walls
    {
        type            fixedValue;
        value           uniform 370;
    }
    centreline
    {
        type            fixedValue;
        value           uniform 373;
    }
    frontAndBack
    {
        type            zeroGradient;
    }
}


// ************************************************************************* //
