/*--------------------------------*- C++ -*----------------------------------*\
  =========                 |
  \\      /  F ield         | OpenFOAM: The Open Source CFD Toolbox
   \\    /   O peration     | Website:  https://openfoam.org
    \\  /    A nd           | Version:  8
     \\/     M anipulation  |
\*---------------------------------------------------------------------------*/
FoamFile
{
    version     2.0;
    format      ascii;
    class       volVectorField;
    location    "1";
    object      U;
}
// * * * * * * * * * * * * * * * * * * * * * * * * * * * * * * * * * * * * * //

dimensions      [0 1 -1 0 0 0 0];

internalField   nonuniform List<vector> 
200
(
(0 1.5684933e-05 0)
(0 -2.3067038e-05 0)
(0 -2.030251e-06 0)
(0 -3.3753918e-05 0)
(0 -1.1672977e-05 0)
(0 -4.5622454e-05 0)
(0 -2.1177078e-05 0)
(0 -5.7668571e-05 0)
(0 -3.0904913e-05 0)
(0 -6.9733888e-05 0)
(0 -4.0862674e-05 0)
(0 -8.1944555e-05 0)
(0 -5.0768027e-05 0)
(0 -9.4766152e-05 0)
(0 -5.9902549e-05 0)
(0 -0.00010923545 0)
(0 -6.6809989e-05 0)
(0 -0.0001272957 0)
(0 -6.8989549e-05 0)
(0 -0.00015200132 0)
(0 -6.2854112e-05 0)
(0 -0.00018737794 0)
(0 -4.4021656e-05 0)
(0 -0.0002380508 0)
(0 -7.6935439e-06 0)
(0 -0.00030891911 0)
(0 5.1095983e-05 0)
(0 -0.0004049849 0)
(0 0.0001373725 0)
(0 -0.00053129214 0)
(0 0.00025619112 0)
(0 -0.00069291447 0)
(0 0.00041263509 0)
(0 -0.00089495817 0)
(0 0.00061182144 0)
(0 -0.001142567 0)
(0 0.00085890651 0)
(0 -0.0014409252 0)
(0 0.0011590892 0)
(0 -0.0017952587 0)
(0 0.0015176121 0)
(0 -0.0022108339 0)
(0 0.0019397605 0)
(0 -0.0026929561 0)
(0 0.0024308606 0)
(0 -0.0032469677 0)
(0 0.0029962762 0)
(0 -0.0038782453 0)
(0 0.0036414052 0)
(0 -0.0045921977 0)
(0 0.0043716768 0)
(0 -0.0053942639 0)
(0 0.0051925487 0)
(0 -0.0062899094 0)
(0 0.0061095054 0)
(0 -0.0072846254 0)
(0 0.0071280583 0)
(0 -0.0083839256 0)
(0 0.0082537444 0)
(0 -0.009593346 0)
(0 0.0094921287 0)
(0 -0.010918444 0)
(0 0.010848803 0)
(0 -0.012364806 0)
(0 0.012329394 0)
(0 -0.013938063 0)
(0 0.013939589 0)
(0 -0.015643903 0)
(0 0.015685065 0)
(0 -0.017487934 0)
(0 0.017571419 0)
(0 -0.019475624 0)
(0 0.019603072 0)
(0 -0.021606937 0)
(0 0.021776539 0)
(0 -0.023882775 0)
(0 0.024103491 0)
(0 -0.026319106 0)
(0 0.026591636 0)
(0 -0.0289193 0)
(0 0.029246902 0)
(0 -0.031689129 0)
(0 0.032074358 0)
(0 -0.034634073 0)
(0 0.035079576 0)
(0 -0.037759609 0)
(0 0.038268196 0)
(0 -0.04107145 0)
(0 0.041646017 0)
(0 -0.044575412 0)
(0 0.045218935 0)
(0 -0.04827732 0)
(0 0.048992795 0)
(0 -0.052182881 0)
(0 0.052973262 0)
(0 -0.05629757 0)
(0 0.057165742 0)
(0 -0.060626579 0)
(0 0.061575347 0)
(0 -0.065174823 0)
(0 0.066206913 0)
(0 -0.069946963 0)
(0 0.071065027 0)
(0 -0.074947435 0)
(0 0.076154034 0)
(0 -0.08018044 0)
(0 0.081478029 0)
(0 -0.08564991 0)
(0 0.087040795 0)
(0 -0.09135943 0)
(0 0.09284574 0)
(0 -0.097312163 0)
(0 0.098895809 0)
(0 -0.10351076 0)
(0 0.10519339 0)
(0 -0.1099573 0)
(0 0.11174025 0)
(0 -0.11665323 0)
(0 0.11853746 0)
(0 -0.1235993 0)
(0 0.12558539 0)
(0 -0.13079557 0)
(0 0.13288364 0)
(0 -0.13824137 0)
(0 0.14043113 0)
(0 -0.1459353 0)
(0 0.14822602 0)
(0 -0.1538752 0)
(0 0.15626576 0)
(0 -0.16205816 0)
(0 0.16454706 0)
(0 -0.17048051 0)
(0 0.17306581 0)
(0 -0.1791378 0)
(0 0.18181708 0)
(0 -0.18802474 0)
(0 0.19079507 0)
(0 -0.19713506 0)
(0 0.19999307 0)
(0 -0.20646144 0)
(0 0.20940338 0)
(0 -0.2159955 0)
(0 0.21901718 0)
(0 -0.22572778 0)
(0 0.22882441 0)
(0 -0.23564768 0)
(0 0.23881385 0)
(0 -0.24574341 0)
(0 0.24897313 0)
(0 -0.25600198 0)
(0 0.25928874 0)
(0 -0.2664094 0)
(0 0.26974605 0)
(0 -0.27695076 0)
(0 0.28032945 0)
(0 -0.28761028 0)
(0 0.29102269 0)
(0 -0.29837148 0)
(0 0.30180909 0)
(0 -0.30921768 0)
(0 0.31267173 0)
(0 -0.32013261 0)
(0 0.3235943 0)
(0 -0.33110089 0)
(0 0.33456218 0)
(0 -0.34210942 0)
(0 0.34556338 0)
(0 -0.35314902 0)
(0 0.35659068 0)
(0 -0.36421541 0)
(0 0.36764445 0)
(0 -0.37531094 0)
(0 0.37873519 0)
(0 -0.38644603 0)
(0 0.38988348 0)
(0 -0.39764428 0)
(0 0.40111505 0)
(0 -0.40894349 0)
(0 0.4124633 0)
(0 -0.42038724 0)
(0 0.42397173 0)
(0 -0.43202066 0)
(0 0.43569022 0)
(0 -0.44389298 0)
(0 0.44766739 0)
(0 -0.45605346 0)
(0 0.45995397 0)
(0 -0.46854033 0)
(0 0.47259182 0)
(0 -0.48137952 0)
(0 0.48559335 0)
(0 -0.49456832 0)
(0 0.49892747 0)
(0 -0.50804849 0)
(0 0.5124981 0)
(0 -0.52168249 0)
(0 0.52611711 0)
(0 -0.53522742 0)
(0 0.53947856 0)
(0 -0.5483122 0)
)
;

boundaryField
{
    left
    {
        type            noSlip;
    }
    right
    {
        type            noSlip;
    }
    walls
    {
        type            noSlip;
    }
    centreline
    {
        type            noSlip;
    }
    frontAndBack
    {
        type            noSlip;
    }
}


// ************************************************************************* //
