/*--------------------------------*- C++ -*----------------------------------*\
  =========                 |
  \\      /  F ield         | OpenFOAM: The Open Source CFD Toolbox
   \\    /   O peration     | Website:  https://openfoam.org
    \\  /    A nd           | Version:  8
     \\/     M anipulation  |
\*---------------------------------------------------------------------------*/
FoamFile
{
    version     2.0;
    format      ascii;
    class       volScalarField;
    location    "20.000098150058701";
    object      alphat;
}
// * * * * * * * * * * * * * * * * * * * * * * * * * * * * * * * * * * * * * //

dimensions      [1 -1 -1 0 0 0 0];

internalField   nonuniform List<scalar> 
6800
(
0.0449733
0.151426
0.156522
0.146066
0.113599
0.086596
0.0727413
0.0623032
0.0495859
0.050605
0.0453506
0.126146
0.112045
0.0836247
0.0812997
0.0795371
0.0703219
0.0605576
0.0503151
0.033554
0.0430926
0.0825377
0.0791381
0.0844819
0.0890509
0.0887975
0.0730277
0.0457956
0.0254703
0.0189486
0.0368143
0.0699257
0.0743041
0.0927507
0.0981787
0.0666158
0.0324566
0.0223024
0.0181201
0.0162779
0.0358207
0.0693672
0.0798698
0.105963
0.0773447
0.0401879
0.0252372
0.0198274
0.0175327
0.0157882
0.0399375
0.0689012
0.0910058
0.113863
0.0567155
0.0315668
0.0224323
0.0191127
0.0158502
0.0141067
0.0393973
0.0764456
0.11429
0.083441
0.0360615
0.0209411
0.018225
0.0160956
0.0144261
0.0139095
0.0396408
0.0866764
0.123894
0.0594132
0.0284939
0.0232367
0.0202603
0.016998
0.0143502
0.0135101
0.03909
0.103312
0.110523
0.042923
0.0256715
0.0202216
0.0162782
0.0141574
0.0132223
0.0129306
0.0387849
0.116529
0.0978185
0.0377116
0.0234379
0.0201412
0.0177396
0.0151494
0.0134393
0.0128795
0.0444561
0.377981
0.623591
0.744811
0.806828
0.836117
0.852505
0.86591
0.879625
0.894446
0.0439571
0.369866
0.609201
0.726424
0.785423
0.8105
0.82275
0.831381
0.839874
0.849763
0.0431025
0.353478
0.57894
0.690536
0.741705
0.759557
0.763556
0.762812
0.762281
0.765341
0.0418817
0.33035
0.536811
0.63791
0.677367
0.684382
0.676706
0.662751
0.648376
0.640664
0.0402756
0.302553
0.48484
0.569204
0.593426
0.586775
0.565072
0.53703
0.506904
0.477249
0.0386284
0.276751
0.430182
0.487773
0.488753
0.463096
0.430118
0.400084
0.374885
0.323898
0.0372496
0.261571
0.370312
0.384345
0.361879
0.328408
0.305413
0.284171
0.272087
0.259539
0.0366923
0.242863
0.289385
0.277758
0.25862
0.236013
0.228884
0.23279
0.227132
0.179053
0.0379341
0.21567
0.22409
0.214773
0.194488
0.204989
0.198007
0.168532
0.139004
0.0765144
0.0393621
0.192309
0.178682
0.18223
0.173706
0.155185
0.113983
0.0816867
0.0616511
0.0473779
0.91682
0.94645
0.974085
1.00041
1.02535
1.04885
1.07094
1.09167
1.11114
1.12925
1.14583
1.1607
1.17378
1.18531
1.1953
1.20384
1.21082
1.21627
1.22017
1.22324
1.22451
1.22451
1.22322
1.22067
1.21694
1.21218
1.20655
1.20022
1.19334
1.18607
1.17855
1.17093
1.16326
1.15556
1.14788
1.14027
1.13277
1.12539
1.11814
1.11099
1.10395
1.09699
1.09009
1.08326
1.07648
1.06975
1.06307
1.05644
1.04988
1.04338
1.03696
1.03064
1.02441
1.0183
1.01231
1.00645
1.00073
0.995148
0.98971
0.984414
0.979257
0.974234
0.969341
0.964574
0.959925
0.95539
0.950963
0.94664
0.942415
0.938283
0.93424
0.930282
0.926406
0.922606
0.91888
0.915224
0.911633
0.908104
0.904633
0.901218
0.897854
0.89454
0.891271
0.888049
0.884868
0.881733
0.878634
0.875587
0.872565
0.869617
0.866661
0.863839
0.860919
0.858279
0.855326
0.852963
0.849915
0.847761
0.84521
0.842247
0.868524
0.898735
0.926103
0.952429
0.97738
1.00085
1.02279
1.0433
1.06271
1.08085
1.09758
1.11264
1.1258
1.13733
1.14727
1.15577
1.16263
1.16788
1.17235
1.17512
1.17662
1.1769
1.17588
1.1736
1.17014
1.16572
1.16053
1.15474
1.1485
1.14197
1.13527
1.12848
1.12165
1.11484
1.10807
1.10138
1.09477
1.08826
1.08185
1.07551
1.06924
1.06302
1.05684
1.0507
1.04459
1.03852
1.0325
1.02652
1.0206
1.01475
1.00897
1.00327
0.997667
0.992172
0.98679
0.981529
0.976391
0.971379
0.966492
0.961728
0.957083
0.952551
0.94813
0.943814
0.9396
0.935483
0.931459
0.927525
0.923676
0.919908
0.916218
0.912602
0.909057
0.905579
0.902164
0.898809
0.89551
0.892264
0.889066
0.885916
0.882809
0.879744
0.876718
0.873732
0.870781
0.867872
0.864994
0.862166
0.859356
0.856621
0.85387
0.851255
0.848531
0.846094
0.843331
0.841158
0.838309
0.836304
0.834009
0.83119
0.784707
0.819713
0.850483
0.879695
0.907104
0.932641
0.956287
0.97835
0.998875
1.01791
1.03546
1.05116
1.06437
1.07564
1.08512
1.09311
1.09894
1.10446
1.10781
1.10997
1.11109
1.11106
1.10958
1.10685
1.10289
1.09813
1.09278
1.08704
1.08104
1.07489
1.06869
1.06253
1.05645
1.05048
1.04462
1.03887
1.03322
1.02765
1.02215
1.01669
1.01128
1.0059
1.00057
0.995277
0.990021
0.98481
0.979654
0.974564
0.969545
0.964606
0.959754
0.954997
0.950342
0.945796
0.94136
0.937035
0.932819
0.928711
0.924703
0.920795
0.916972
0.91323
0.909571
0.905991
0.902489
0.899062
0.895707
0.892422
0.889202
0.886046
0.882951
0.879912
0.876928
0.873995
0.87111
0.868269
0.865469
0.862708
0.859982
0.85729
0.854629
0.851998
0.849395
0.846824
0.844279
0.841769
0.839282
0.836842
0.83441
0.832053
0.829666
0.827423
0.825049
0.822975
0.820553
0.818719
0.816228
0.814482
0.81268
0.810056
0.670919
0.716593
0.755445
0.790918
0.823399
0.852941
0.879706
0.904099
0.926157
0.946172
0.963837
0.978636
0.989695
0.998778
1.00592
1.01141
1.01598
1.01834
1.01938
1.01951
1.01885
1.01706
1.01462
1.01178
1.00854
1.00479
1.00056
0.995987
0.991188
0.986259
0.981287
0.97634
0.971465
0.966686
0.962001
0.957406
0.952878
0.948411
0.943993
0.939611
0.935256
0.930928
0.926636
0.922381
0.918161
0.913981
0.909855
0.905802
0.901831
0.897948
0.894162
0.890481
0.886908
0.883444
0.880088
0.876833
0.873674
0.870601
0.86761
0.864688
0.861841
0.859063
0.856349
0.853692
0.851088
0.848536
0.846033
0.843578
0.841168
0.838801
0.836476
0.83419
0.83194
0.829722
0.827534
0.825372
0.823233
0.821114
0.819013
0.816929
0.814861
0.812809
0.810771
0.808756
0.806757
0.804788
0.802828
0.800912
0.79899
0.797147
0.795251
0.793511
0.791611
0.790027
0.788066
0.786693
0.78468
0.783306
0.782129
0.779768
0.526549
0.585785
0.634417
0.675953
0.711786
0.742362
0.76857
0.792239
0.814585
0.834971
0.853198
0.869991
0.883815
0.895578
0.90652
0.915592
0.92216
0.927097
0.930515
0.932052
0.931176
0.928645
0.924853
0.919947
0.914383
0.908432
0.902317
0.896234
0.890343
0.884723
0.879439
0.874512
0.869949
0.865711
0.861751
0.858008
0.854408
0.850919
0.847517
0.844188
0.840912
0.837676
0.83452
0.831434
0.828406
0.825438
0.822547
0.819769
0.817109
0.814569
0.812153
0.809867
0.807704
0.805655
0.803706
0.801838
0.800038
0.798289
0.796581
0.794905
0.793261
0.791646
0.790059
0.788497
0.786957
0.785441
0.783948
0.782477
0.781029
0.7796
0.778193
0.776803
0.775427
0.774063
0.772706
0.771353
0.770001
0.768649
0.767293
0.765936
0.764576
0.763217
0.761858
0.760502
0.759142
0.757803
0.756457
0.755156
0.75383
0.752591
0.751275
0.750131
0.748793
0.747793
0.746383
0.745563
0.744106
0.743237
0.742661
0.740693
0.37456
0.434231
0.486285
0.531267
0.571925
0.608646
0.641658
0.671263
0.697792
0.717381
0.733711
0.746687
0.757645
0.76643
0.771825
0.775507
0.777458
0.777845
0.776879
0.774671
0.771681
0.767789
0.763151
0.75786
0.752227
0.74648
0.740907
0.735752
0.731167
0.727131
0.723676
0.720788
0.718436
0.716499
0.714908
0.713561
0.71232
0.711176
0.710108
0.709083
0.708135
0.707189
0.70633
0.705545
0.704799
0.704089
0.703429
0.702885
0.702461
0.702166
0.701998
0.701952
0.702001
0.702117
0.702281
0.702451
0.702614
0.702743
0.702848
0.702929
0.702991
0.703031
0.70305
0.703045
0.703017
0.702971
0.702906
0.70283
0.702741
0.702637
0.70252
0.702386
0.702233
0.702056
0.70185
0.701613
0.701342
0.701037
0.700697
0.700328
0.699928
0.699508
0.699063
0.698615
0.698145
0.69769
0.697209
0.696771
0.696281
0.695886
0.695376
0.695053
0.694491
0.694282
0.693625
0.693552
0.692823
0.692672
0.692805
0.691462
0.286104
0.318781
0.35321
0.386542
0.419776
0.448945
0.474505
0.497104
0.516657
0.531688
0.54562
0.557627
0.565363
0.570835
0.574078
0.575443
0.575276
0.573761
0.571141
0.567424
0.562914
0.557641
0.552008
0.546081
0.540366
0.534977
0.530336
0.52683
0.524345
0.522557
0.521578
0.521482
0.522174
0.523338
0.52495
0.526805
0.528721
0.53077
0.533001
0.535165
0.537541
0.539845
0.542244
0.544707
0.547144
0.549565
0.551975
0.554495
0.55711
0.559882
0.562763
0.565696
0.568626
0.571472
0.574293
0.576943
0.579496
0.58187
0.584229
0.586541
0.588805
0.590999
0.59312
0.595161
0.597124
0.599017
0.600843
0.60261
0.604318
0.605959
0.607539
0.609046
0.610483
0.611839
0.613113
0.614304
0.615411
0.616442
0.617395
0.618285
0.619107
0.619889
0.62061
0.621318
0.621973
0.622638
0.623248
0.623902
0.624468
0.625136
0.62564
0.626346
0.626758
0.627536
0.627816
0.628683
0.628843
0.629618
0.630546
0.630147
0.187887
0.201473
0.2164
0.231764
0.247955
0.264708
0.280257
0.294279
0.305649
0.317381
0.326216
0.332212
0.335614
0.336745
0.336027
0.333812
0.330536
0.326299
0.321517
0.315971
0.310236
0.303964
0.29803
0.292094
0.287219
0.282964
0.280404
0.278419
0.278187
0.279219
0.282317
0.28561
0.289777
0.294117
0.299356
0.304
0.309706
0.315474
0.322108
0.327753
0.334027
0.340067
0.346276
0.352519
0.3586
0.364562
0.370381
0.376416
0.382516
0.388947
0.395239
0.40113
0.406757
0.411929
0.417379
0.422086
0.427215
0.431629
0.437137
0.442419
0.447603
0.452627
0.457499
0.4622
0.466755
0.47115
0.475423
0.479552
0.483546
0.487363
0.491038
0.494538
0.497895
0.50108
0.504115
0.507011
0.509769
0.51241
0.514929
0.517358
0.519678
0.521953
0.524102
0.526293
0.528359
0.530441
0.532419
0.534438
0.536313
0.538291
0.540041
0.542006
0.543609
0.545596
0.54701
0.549036
0.550248
0.552199
0.553969
0.554982
0.0805128
0.085942
0.092241
0.0980727
0.104301
0.108784
0.114241
0.118488
0.121597
0.123646
0.124528
0.124153
0.122621
0.120126
0.116961
0.113275
0.109387
0.105231
0.101158
0.0968655
0.0928384
0.0886563
0.0849872
0.0813788
0.0785689
0.0760543
0.0745584
0.0733964
0.0734724
0.0733746
0.0754687
0.0757355
0.077782
0.079807
0.0834439
0.0874925
0.0908869
0.0950977
0.0991862
0.103543
0.108646
0.113959
0.11961
0.125724
0.13201
0.138589
0.145418
0.152717
0.160506
0.168832
0.177598
0.187543
0.198049
0.209133
0.220446
0.231405
0.242032
0.252138
0.26192
0.271318
0.280414
0.28913
0.29752
0.305527
0.313273
0.320615
0.327852
0.334571
0.340949
0.34687
0.352553
0.357929
0.363224
0.368188
0.373116
0.377936
0.382601
0.387143
0.391532
0.395834
0.399969
0.404112
0.407901
0.412395
0.416194
0.420008
0.423541
0.427082
0.430419
0.433889
0.437068
0.440488
0.44346
0.446865
0.449554
0.452976
0.455375
0.458802
0.461378
0.46447
0.0475819
0.0481101
0.0488093
0.0493722
0.0496276
0.0497145
0.0494949
0.0490671
0.0483766
0.0474123
0.0461722
0.044669
0.0429524
0.0410636
0.0390964
0.0370707
0.0350902
0.0331089
0.0312484
0.0294077
0.0277363
0.0261104
0.0246972
0.0233655
0.0222674
0.0212763
0.020507
0.0198385
0.0193745
0.0189593
0.0187528
0.0185607
0.0184782
0.0184157
0.0185609
0.0186125
0.0190384
0.0193366
0.0197763
0.0203564
0.021052
0.0217416
0.0224812
0.023686
0.024771
0.0262381
0.0279276
0.0299502
0.0322477
0.0349753
0.0380476
0.0415961
0.0456869
0.050273
0.0555468
0.0612686
0.0675751
0.074235
0.0813299
0.0887525
0.0964334
0.104464
0.112559
0.121022
0.129408
0.138126
0.146693
0.155532
0.164686
0.173858
0.18314
0.192243
0.201092
0.20963
0.217826
0.225732
0.233289
0.240595
0.247567
0.25436
0.260833
0.267226
0.273275
0.279391
0.285117
0.290768
0.296068
0.301362
0.306293
0.311366
0.316069
0.321043
0.325495
0.330461
0.334457
0.339722
0.343688
0.348865
0.352428
0.35821
0.0346081
0.0341046
0.0340724
0.0339774
0.0337257
0.0332756
0.0326602
0.0318886
0.0309869
0.0299658
0.0288597
0.0276809
0.0264753
0.0252548
0.0240646
0.0229003
0.0218027
0.0207479
0.0197818
0.0188663
0.0180495
0.0172914
0.0166342
0.0160422
0.0155418
0.015107
0.0147403
0.014433
0.0141683
0.0139518
0.0137596
0.0136028
0.013461
0.0133422
0.0132388
0.0131469
0.013075
0.0130059
0.0129643
0.012909
0.0128934
0.0128465
0.0128467
0.0128283
0.0128313
0.0128401
0.01286
0.0129025
0.0129679
0.0130587
0.013141
0.0132713
0.0134905
0.0137195
0.0140405
0.0144346
0.0149392
0.015574
0.0163276
0.0172927
0.0183659
0.0197571
0.0212404
0.0231421
0.0251539
0.0276346
0.0302912
0.0334181
0.0368008
0.0406961
0.0448512
0.04955
0.0544594
0.0598833
0.06543
0.0714446
0.0775003
0.0839846
0.0904435
0.097306
0.104084
0.111254
0.118272
0.125678
0.132865
0.140645
0.148103
0.156116
0.163597
0.171587
0.178687
0.186464
0.193012
0.200583
0.206411
0.213838
0.218906
0.226282
0.230906
0.238518
0.0225811
0.0227477
0.0229462
0.0230897
0.0230622
0.022854
0.0225244
0.0220763
0.0215461
0.0209337
0.0202858
0.0195984
0.0189185
0.0182381
0.0175922
0.0169665
0.016393
0.0158532
0.0153752
0.0149323
0.0145544
0.0142136
0.0139363
0.0136905
0.0134957
0.0133261
0.01319
0.013075
0.0129768
0.0128978
0.0128227
0.0127659
0.0127047
0.0126605
0.0126105
0.0125733
0.0125286
0.0124993
0.0124591
0.0124332
0.0123976
0.0123729
0.0123419
0.0123191
0.0122915
0.0122703
0.0122455
0.0122254
0.0122046
0.0121843
0.0121681
0.0121481
0.0121364
0.0121175
0.0121114
0.012094
0.012095
0.0120809
0.0120918
0.0120841
0.0121086
0.0121114
0.0121567
0.0121758
0.0122675
0.0123157
0.0124095
0.0125541
0.0126795
0.0129216
0.0131007
0.0134953
0.0137503
0.0143604
0.0147291
0.0156152
0.0161358
0.0173855
0.0181106
0.0198149
0.0208023
0.0230709
0.0243781
0.0273475
0.0290252
0.0328079
0.0349563
0.0395267
0.0423871
0.0477441
0.0513629
0.0574738
0.0616087
0.0684699
0.0728966
0.0804421
0.0849485
0.0929506
0.0977989
0.107105
0.0163119
0.0163633
0.0164786
0.0165504
0.0165665
0.016495
0.0163734
0.0161952
0.0159856
0.0157321
0.0154705
0.0151783
0.0148981
0.0146006
0.0143344
0.0140735
0.0138487
0.0136408
0.013467
0.0133046
0.0131856
0.0130695
0.0129869
0.0129018
0.0128436
0.0127799
0.0127349
0.0126858
0.012646
0.0126067
0.0125682
0.0125349
0.0124952
0.0124652
0.0124258
0.0123935
0.0123543
0.0123257
0.0122796
0.0122552
0.0122121
0.0121875
0.0121449
0.0121223
0.0120815
0.0120619
0.0120228
0.0120055
0.0119679
0.0119532
0.0119171
0.0119041
0.0118692
0.0118579
0.0118236
0.0118139
0.0117795
0.0117714
0.0117368
0.0117304
0.0116953
0.0116908
0.0116552
0.0116524
0.0116168
0.0116148
0.0115795
0.0115729
0.0115406
0.0115375
0.0115095
0.01151
0.0114873
0.0114921
0.0114759
0.011486
0.011479
0.0114965
0.0115036
0.0115327
0.0115606
0.0116074
0.0116934
0.0117538
0.011836
0.0119958
0.0121255
0.0123777
0.0125816
0.0129789
0.013285
0.0138982
0.014346
0.0152366
0.0158906
0.0170943
0.0180809
0.0194742
0.0215616
0.0228192
0.0137279
0.0137508
0.0137955
0.013827
0.0138497
0.0138255
0.0137794
0.0137128
0.0136308
0.0135336
0.0134295
0.0133153
0.0132104
0.0130998
0.0130094
0.0129126
0.0128429
0.0127595
0.0127041
0.0126379
0.0125911
0.0125292
0.0124875
0.0124278
0.0123908
0.0123318
0.0122993
0.0122409
0.0122106
0.0121534
0.0121207
0.0120656
0.0120285
0.011973
0.0119359
0.0118769
0.0118369
0.0117835
0.0117419
0.011692
0.0116513
0.0116049
0.0115692
0.0115293
0.0114967
0.0114627
0.0114328
0.0114042
0.0113767
0.0113531
0.0113272
0.0113079
0.0112828
0.0112668
0.0112417
0.0112283
0.0112027
0.0111914
0.0111653
0.0111557
0.0111291
0.0111212
0.0110945
0.0110885
0.0110619
0.0110577
0.0110313
0.0110293
0.0110032
0.0110035
0.0109774
0.0109801
0.0109539
0.0109586
0.0109318
0.0109389
0.0109116
0.0109212
0.0108931
0.0109051
0.0108768
0.0108908
0.0108628
0.0108788
0.0108515
0.0108691
0.0108436
0.0108631
0.01084
0.010862
0.0108423
0.0108687
0.0108537
0.0108871
0.0108791
0.0109234
0.0109263
0.0109864
0.0110073
0.0111108
0.0127212
0.0127404
0.0127605
0.0127902
0.0127973
0.012799
0.0127824
0.0127646
0.0127355
0.0127092
0.0126754
0.0126454
0.0126105
0.0125776
0.0125418
0.0125023
0.0124624
0.0124168
0.012374
0.0123243
0.0122775
0.0122242
0.0121742
0.0121194
0.0120687
0.0120131
0.0119628
0.0119057
0.011857
0.0117983
0.0117517
0.0116934
0.0116481
0.0115919
0.0115502
0.0114934
0.0114574
0.0114048
0.0113709
0.0113253
0.0112958
0.0112533
0.0112298
0.0111907
0.0111724
0.0111376
0.0111229
0.011091
0.0110791
0.0110494
0.0110393
0.0110111
0.0110021
0.010975
0.0109667
0.0109404
0.0109325
0.0109068
0.0108992
0.0108745
0.0108673
0.0108435
0.0108369
0.0108146
0.010809
0.0107882
0.0107834
0.0107641
0.0107602
0.0107422
0.010739
0.0107222
0.0107194
0.0107034
0.0107005
0.0106855
0.0106827
0.0106682
0.0106655
0.0106517
0.0106488
0.0106356
0.0106326
0.01062
0.0106168
0.0106049
0.0106015
0.0105902
0.0105867
0.0105759
0.0105721
0.0105619
0.0105579
0.0105482
0.0105441
0.0105351
0.01053
0.0105263
0.0104971
0.0105349
0.0120909
0.012131
0.0121602
0.0121769
0.0121996
0.0122047
0.0122141
0.0122088
0.0122077
0.0121926
0.0121801
0.0121539
0.0121287
0.0120916
0.0120554
0.0120096
0.0119662
0.0119141
0.011867
0.0118095
0.0117602
0.0117005
0.0116499
0.0115892
0.0115391
0.0114795
0.0114324
0.0113761
0.0113333
0.011282
0.0112427
0.0111975
0.0111608
0.0111207
0.0110878
0.0110483
0.0110206
0.0109842
0.0109576
0.010925
0.0109012
0.0108719
0.0108521
0.0108257
0.0108097
0.0107854
0.0107722
0.0107499
0.0107388
0.0107181
0.0107083
0.0106885
0.0106799
0.0106608
0.010653
0.0106344
0.0106273
0.0106092
0.0106029
0.0105856
0.0105801
0.0105633
0.0105585
0.0105426
0.0105385
0.0105234
0.0105201
0.0105057
0.0105029
0.0104891
0.0104867
0.0104733
0.010471
0.0104579
0.0104555
0.0104426
0.0104401
0.0104274
0.010425
0.0104129
0.0104107
0.0103992
0.0103971
0.0103863
0.0103843
0.0103741
0.0103722
0.0103627
0.0103607
0.0103518
0.0103496
0.0103412
0.0103388
0.010331
0.0103281
0.0103211
0.010317
0.010315
0.0102872
0.0103244
0.0116197
0.0116524
0.0116858
0.0117083
0.0117283
0.0117396
0.0117474
0.0117456
0.0117422
0.0117297
0.0117167
0.0116936
0.0116709
0.0116382
0.0116079
0.0115689
0.0115341
0.0114918
0.0114548
0.0114107
0.0113726
0.011327
0.0112889
0.0112443
0.0112086
0.0111672
0.0111353
0.0110971
0.0110698
0.0110334
0.0110103
0.0109757
0.0109542
0.0109228
0.0109011
0.0108703
0.010852
0.0108204
0.0108018
0.0107735
0.0107568
0.01073
0.010715
0.0106903
0.0106775
0.0106543
0.0106442
0.0106226
0.0106137
0.0105934
0.0105859
0.0105669
0.0105602
0.0105423
0.0105363
0.010519
0.0105134
0.0104966
0.0104912
0.0104745
0.0104691
0.0104525
0.0104474
0.0104311
0.0104262
0.0104105
0.0104061
0.010391
0.010387
0.0103727
0.0103691
0.0103554
0.0103521
0.0103388
0.0103357
0.0103228
0.0103199
0.0103076
0.0103048
0.0102931
0.0102907
0.0102796
0.0102774
0.0102669
0.0102647
0.0102546
0.0102524
0.0102426
0.0102401
0.0102307
0.0102278
0.0102186
0.0102154
0.0102066
0.010203
0.0101945
0.0101907
0.0101827
0.0101793
0.0101682
0.0112137
0.0112509
0.0112846
0.0113052
0.0113264
0.0113373
0.0113462
0.0113449
0.0113421
0.0113323
0.0113217
0.0113048
0.011288
0.0112643
0.0112427
0.0112133
0.011188
0.0111549
0.0111273
0.0110913
0.0110623
0.0110239
0.0109947
0.0109559
0.0109272
0.0108896
0.0108628
0.0108276
0.0108027
0.0107699
0.0107464
0.0107157
0.0106938
0.0106648
0.0106442
0.0106158
0.0105985
0.0105695
0.0105523
0.0105259
0.0105105
0.0104851
0.0104713
0.0104489
0.0104369
0.0104153
0.0104058
0.0103854
0.0103771
0.0103581
0.0103511
0.0103337
0.010328
0.0103119
0.0103073
0.0102919
0.0102878
0.0102729
0.0102691
0.010255
0.0102517
0.0102382
0.0102355
0.0102224
0.0102203
0.0102077
0.0102056
0.0101934
0.0101912
0.0101792
0.0101771
0.0101653
0.0101631
0.0101515
0.0101493
0.010138
0.0101358
0.0101246
0.0101223
0.0101116
0.0101093
0.010099
0.0100967
0.0100867
0.0100842
0.0100746
0.0100719
0.0100627
0.0100599
0.0100511
0.0100481
0.0100397
0.0100365
0.0100284
0.0100251
0.0100173
0.0100138
0.0100065
0.0100034
0.00999353
0.0109
0.0109261
0.0109575
0.0109764
0.010998
0.0110092
0.0110207
0.01102
0.0110215
0.0110145
0.0110099
0.0109984
0.0109884
0.0109719
0.0109566
0.0109345
0.0109152
0.010889
0.0108675
0.0108387
0.0108151
0.0107839
0.0107588
0.0107265
0.0107019
0.0106707
0.0106488
0.0106194
0.0106008
0.0105731
0.0105572
0.0105316
0.0105172
0.0104947
0.0104808
0.0104603
0.0104485
0.0104268
0.010416
0.0103951
0.010384
0.0103633
0.0103532
0.010333
0.0103226
0.0103028
0.0102938
0.0102744
0.0102667
0.0102487
0.0102424
0.0102261
0.0102214
0.0102066
0.0102034
0.0101898
0.0101875
0.0101749
0.010173
0.010161
0.0101593
0.0101475
0.0101458
0.0101339
0.0101321
0.0101201
0.0101181
0.0101063
0.010104
0.0100923
0.0100901
0.0100787
0.0100765
0.0100651
0.0100629
0.0100517
0.0100496
0.0100388
0.0100368
0.0100265
0.0100246
0.0100146
0.0100128
0.0100029
0.0100008
0.0099916
0.00998963
0.00998059
0.00997843
0.0099698
0.00996731
0.0099589
0.00995609
0.00994804
0.00994504
0.00993714
0.00993452
0.00992299
0.00994104
0.00989013
0.0106588
0.0106856
0.0107114
0.0107293
0.0107459
0.0107571
0.0107693
0.0107713
0.0107759
0.0107713
0.0107707
0.010762
0.0107568
0.0107444
0.0107337
0.0107167
0.0107016
0.010681
0.0106638
0.0106401
0.0106212
0.0105945
0.0105745
0.0105461
0.0105273
0.0105004
0.0104836
0.0104586
0.0104436
0.0104204
0.0104072
0.0103852
0.0103741
0.0103536
0.0103442
0.0103258
0.0103177
0.0102995
0.010291
0.0102738
0.0102657
0.0102479
0.0102387
0.0102197
0.0102109
0.010192
0.0101834
0.0101645
0.0101567
0.0101389
0.0101327
0.0101164
0.0101117
0.0100977
0.0100949
0.0100823
0.0100806
0.0100689
0.0100676
0.0100563
0.0100549
0.0100437
0.0100421
0.0100308
0.010029
0.0100175
0.0100156
0.0100041
0.0100022
0.00999096
0.00998913
0.00997822
0.00997651
0.00996585
0.00996425
0.0099539
0.0099524
0.00994253
0.00994106
0.00993155
0.00993025
0.00992097
0.0099196
0.00991071
0.0099094
0.00990072
0.00989949
0.0098909
0.00988916
0.00988085
0.00987901
0.00987094
0.00986903
0.0098612
0.00985873
0.00985125
0.0098483
0.00984104
0.00983802
0.00982865
0.0104717
0.0104916
0.0105127
0.0105311
0.0105445
0.0105559
0.0105654
0.0105677
0.0105714
0.0105684
0.0105701
0.010564
0.0105634
0.0105539
0.0105486
0.0105345
0.0105239
0.0105064
0.0104932
0.010474
0.0104595
0.0104387
0.0104237
0.0104021
0.0103882
0.0103669
0.0103544
0.0103334
0.0103216
0.0103012
0.0102899
0.0102708
0.0102611
0.0102438
0.0102361
0.0102212
0.0102158
0.0102002
0.0101961
0.0101817
0.0101753
0.0101591
0.0101528
0.0101356
0.0101285
0.0101119
0.010105
0.0100879
0.0100818
0.0100661
0.0100609
0.0100455
0.0100414
0.010028
0.0100253
0.0100128
0.0100108
0.0099991
0.00999747
0.00998621
0.00998453
0.00997339
0.00997176
0.00996084
0.00995953
0.00994884
0.00994782
0.00993749
0.00993679
0.00992645
0.00992592
0.00991593
0.00991538
0.00990558
0.00990494
0.00989521
0.00989436
0.00988471
0.00988361
0.00987408
0.00987275
0.00986325
0.00986177
0.00985235
0.00985066
0.00984162
0.00983988
0.00983111
0.00982908
0.0098205
0.00981839
0.00981039
0.00980815
0.00980049
0.00979825
0.00979099
0.00978896
0.00977823
0.00979674
0.00974688
0.0103361
0.0103438
0.0103683
0.0103825
0.0104001
0.0104068
0.010419
0.0104196
0.0104258
0.0104235
0.0104262
0.0104219
0.0104229
0.010416
0.0104134
0.0104019
0.0103945
0.0103796
0.0103705
0.0103548
0.0103459
0.0103298
0.0103205
0.0103034
0.0102932
0.0102746
0.0102638
0.010244
0.0102328
0.0102126
0.0102018
0.0101827
0.0101731
0.010156
0.0101481
0.0101332
0.0101268
0.0101123
0.0101078
0.0100927
0.0100882
0.0100741
0.0100694
0.0100549
0.0100516
0.010039
0.0100354
0.0100225
0.0100198
0.010008
0.0100052
0.00999285
0.00999037
0.00997784
0.00997429
0.009961
0.00995793
0.00994466
0.00994159
0.00992862
0.00992599
0.00991366
0.0099116
0.00989998
0.00989882
0.00988814
0.00988767
0.00987781
0.00987788
0.00986855
0.00986902
0.00985993
0.00986045
0.00985139
0.00985157
0.00984241
0.0098422
0.00983288
0.00983215
0.00982267
0.00982132
0.00981179
0.00981019
0.00980067
0.00979876
0.00978949
0.00978733
0.00977832
0.00977596
0.00976737
0.00976518
0.00975747
0.00975482
0.0097477
0.00974498
0.00973804
0.00973604
0.00972596
0.00974446
0.00969544
0.0102252
0.0102295
0.0102545
0.0102646
0.0102857
0.0102915
0.0103041
0.0103033
0.0103112
0.0103089
0.0103124
0.0103069
0.0103091
0.0103025
0.0103026
0.0102926
0.0102878
0.0102743
0.0102669
0.010253
0.0102457
0.0102317
0.0102239
0.0102081
0.0101994
0.0101818
0.0101732
0.0101543
0.0101465
0.0101272
0.0101199
0.0101015
0.0100942
0.0100776
0.0100708
0.0100553
0.0100497
0.0100347
0.0100299
0.0100171
0.0100126
0.00999979
0.00999755
0.00998639
0.0099865
0.0099758
0.00997563
0.0099663
0.00996591
0.00995655
0.00995564
0.00994437
0.00994243
0.00993006
0.00992634
0.00991306
0.0099082
0.00989361
0.0098891
0.0098751
0.00987127
0.0098583
0.00985591
0.00984431
0.00984333
0.00983293
0.00983278
0.00982304
0.00982351
0.00981418
0.0098147
0.00980558
0.00980609
0.00979699
0.00979728
0.00978795
0.009788
0.00977853
0.00977824
0.00976871
0.00976802
0.00975867
0.00975761
0.00974856
0.00974703
0.00973821
0.00973632
0.00972811
0.00972592
0.00971861
0.00971632
0.0097096
0.00970687
0.00970104
0.0096985
0.00969323
0.00969068
0.00968641
0.00968323
0.00967789
0.0101532
0.0101599
0.0101769
0.0101913
0.0102015
0.0102103
0.0102226
0.0102259
0.010233
0.0102336
0.0102353
0.0102314
0.010232
0.0102269
0.0102279
0.0102202
0.0102174
0.0102049
0.010199
0.0101843
0.0101766
0.0101606
0.0101514
0.0101343
0.0101244
0.0101075
0.0100993
0.0100832
0.0100771
0.0100608
0.0100559
0.0100397
0.0100347
0.0100197
0.0100142
0.0100007
0.00999535
0.00998234
0.00997924
0.00996614
0.00996356
0.00995138
0.00994887
0.00993802
0.00993646
0.00992504
0.00992378
0.00991162
0.00991001
0.00989827
0.00989613
0.00988352
0.00988135
0.00986898
0.00986596
0.00985369
0.0098508
0.00983895
0.0098367
0.0098248
0.00982326
0.00981256
0.0098117
0.00980158
0.00980133
0.00979175
0.00979176
0.00978235
0.00978222
0.00977236
0.00977227
0.00976258
0.00976255
0.00975296
0.00975279
0.00974338
0.00974336
0.00973406
0.00973421
0.00972505
0.0097249
0.00971598
0.00971549
0.00970707
0.0097063
0.00969857
0.00969741
0.00969039
0.00968883
0.00968267
0.00968066
0.00967543
0.00967319
0.0096688
0.00966663
0.00966297
0.00966151
0.00965421
0.00967539
0.0096254
0.010093
0.0101021
0.0101184
0.010128
0.0101457
0.0101494
0.0101537
0.0101528
0.0101628
0.0101644
0.0101692
0.0101665
0.0101703
0.0101662
0.0101672
0.0101589
0.0101553
0.0101434
0.0101373
0.0101231
0.0101157
0.0100996
0.0100908
0.0100736
0.0100647
0.0100481
0.0100399
0.0100247
0.0100183
0.0100044
0.00999995
0.00998645
0.0099828
0.00996978
0.00996644
0.00995389
0.00995058
0.00993837
0.00993455
0.00992316
0.00991923
0.00990707
0.0099044
0.00989114
0.00988769
0.00987603
0.00987379
0.00986232
0.0098615
0.00985133
0.00985066
0.00984049
0.0098406
0.00983088
0.00983122
0.00982135
0.00982186
0.00981226
0.00981247
0.00980306
0.00980271
0.00979253
0.00979198
0.00978133
0.00978056
0.00976982
0.00976856
0.00975793
0.00975659
0.00974603
0.0097449
0.00973453
0.00973397
0.00972384
0.00972354
0.00971418
0.00971434
0.00970549
0.009706
0.0096975
0.00969823
0.00969025
0.00969096
0.00968339
0.00968397
0.0096768
0.00967712
0.0096702
0.00967006
0.00966338
0.00966273
0.00965636
0.00965516
0.0096491
0.00964742
0.0096417
0.00963957
0.00963421
0.00963211
0.00962441
0.0100393
0.0100437
0.0100592
0.0100677
0.010079
0.010081
0.0100938
0.0100955
0.0101039
0.0101018
0.0101026
0.0100991
0.0101013
0.0100967
0.0100986
0.010092
0.0100899
0.0100796
0.0100757
0.0100639
0.0100594
0.0100468
0.0100413
0.0100274
0.0100208
0.0100073
0.0100014
0.00998862
0.00998452
0.00997178
0.00996885
0.00995615
0.00995307
0.00994072
0.00993699
0.00992458
0.00992099
0.00990845
0.00990479
0.00989281
0.00988873
0.00987646
0.00987351
0.00986183
0.00986046
0.0098507
0.00984988
0.00984052
0.00984136
0.00983255
0.00983283
0.00982405
0.00982556
0.00981655
0.00981771
0.00980937
0.00981061
0.0098017
0.00980274
0.00979433
0.00979437
0.00978504
0.00978383
0.00977339
0.0097715
0.00976011
0.00975788
0.00974624
0.00974375
0.00973234
0.00973007
0.00971932
0.00971766
0.00970743
0.00970626
0.00969659
0.00969616
0.00968734
0.00968709
0.00967879
0.00967864
0.00967085
0.00967084
0.00966325
0.00966322
0.0096559
0.00965556
0.00964831
0.00964758
0.00964042
0.00963923
0.00963221
0.00963052
0.00962368
0.00962147
0.00961506
0.00961159
0.00960943
0.00958523
0.00961808
0.0100137
0.0100219
0.0100313
0.0100409
0.0100585
0.0100684
0.0100727
0.0100717
0.0100792
0.010075
0.0100733
0.0100684
0.0100684
0.0100617
0.0100615
0.0100542
0.0100517
0.010042
0.0100374
0.0100255
0.0100208
0.0100083
0.0100028
0.00998887
0.00998257
0.00996801
0.00996123
0.00994676
0.00994093
0.00992688
0.00992281
0.00990936
0.00990741
0.00989526
0.00989492
0.00988395
0.00988405
0.00987432
0.00987301
0.0098631
0.00986069
0.00984976
0.00984857
0.00983701
0.00983621
0.00982556
0.00982535
0.00981595
0.00981554
0.00980637
0.00980616
0.00979682
0.00979641
0.00978739
0.00978791
0.00977838
0.00977879
0.00976944
0.00976972
0.00976077
0.00976053
0.00975102
0.00975046
0.0097403
0.00973882
0.00972808
0.00972615
0.00971535
0.00971326
0.00970226
0.00970031
0.00968962
0.00968794
0.00967751
0.00967599
0.00966591
0.00966467
0.00965533
0.00965423
0.00964531
0.00964443
0.00963598
0.00963512
0.00962722
0.00962652
0.00961908
0.0096183
0.00961122
0.00961022
0.00960343
0.00960213
0.00959567
0.00959406
0.00958798
0.00958604
0.00958034
0.00957805
0.0095728
0.00956974
0.00956381
0.00996557
0.00996898
0.00997554
0.00998381
0.00999991
0.0100034
0.0100106
0.0100139
0.010021
0.0100174
0.0100184
0.0100137
0.0100162
0.0100115
0.0100152
0.0100096
0.0100085
0.00999826
0.00999309
0.00998048
0.00997503
0.00996176
0.00995614
0.00994189
0.00993574
0.00992128
0.00991587
0.00990267
0.00989871
0.00988697
0.00988462
0.0098741
0.00987336
0.00986351
0.00986381
0.0098547
0.00985577
0.00984599
0.00984618
0.00983681
0.00983463
0.00982466
0.00982379
0.00981294
0.00981138
0.00980128
0.00979947
0.00978882
0.00978843
0.00977792
0.00977673
0.0097666
0.0097659
0.00975607
0.0097555
0.00974609
0.0097459
0.0097365
0.00973677
0.00972766
0.00972793
0.009719
0.00971929
0.00971024
0.00971001
0.0097007
0.00970031
0.00969079
0.00968998
0.00968028
0.00967945
0.00966976
0.00966899
0.00965962
0.00965881
0.00964957
0.00964884
0.00964015
0.00963935
0.00963078
0.00963007
0.00962192
0.00962125
0.0096136
0.00961294
0.00960568
0.00960487
0.00959804
0.00959708
0.00959064
0.00958939
0.00958329
0.00958175
0.00957606
0.00957418
0.00956906
0.0095661
0.0095653
0.00954179
0.00957506
0.00996905
0.00997145
0.00998131
0.00998979
0.0100069
0.010004
0.0100153
0.0100144
0.0100177
0.0100187
0.0100213
0.010015
0.0100155
0.0100082
0.0100086
0.00999818
0.00999223
0.00997839
0.00997036
0.00995563
0.00994884