/*--------------------------------*- C++ -*----------------------------------*\
  =========                 |
  \\      /  F ield         | OpenFOAM: The Open Source CFD Toolbox
   \\    /   O peration     | Website:  https://openfoam.org
    \\  /    A nd           | Version:  8
     \\/     M anipulation  |
\*---------------------------------------------------------------------------*/
FoamFile
{
    version     2.0;
    format      ascii;
    class       volScalarField;
    location    "20.000098150058701";
    object      drdt;
}
// * * * * * * * * * * * * * * * * * * * * * * * * * * * * * * * * * * * * * //

dimensions      [0 1 -1 0 0 0 0];

internalField   nonuniform List<scalar> 
6800
(
-7.38353e-09
-8.06063e-09
-7.89318e-09
-6.92461e-09
-4.93145e-09
-5.59264e-10
2.60431e-09
3.74093e-09
3.90604e-09
3.63161e-09
-7.50148e-09
-7.71416e-09
-7.02598e-09
-4.36045e-09
9.60586e-10
3.59336e-09
4.18464e-09
4.01818e-09
3.40379e-09
3.05599e-09
-6.87225e-09
-6.10291e-09
-4.25026e-09
1.10585e-09
3.82934e-09
4.41815e-09
4.06704e-09
3.4347e-09
2.97041e-09
2.49217e-09
-7.29912e-09
-2.95131e-09
-1.28645e-10
3.62633e-09
4.79216e-09
4.39693e-09
3.58602e-09
3.13113e-09
2.62678e-09
2.29426e-09
-5.67918e-09
-2.86818e-11
2.79351e-09
4.91051e-09
4.6786e-09
3.88394e-09
3.32325e-09
2.82618e-09
2.39295e-09
2.16387e-09
-6.34749e-09
8.98505e-10
3.53437e-09
5.04035e-09
4.16079e-09
3.67921e-09
3.06675e-09
2.61937e-09
2.28323e-09
2.2198e-09
-4.56925e-09
4.1575e-09
5.85408e-09
5.28138e-09
4.18893e-09
3.60117e-09
2.89298e-09
2.56821e-09
2.39164e-09
2.45784e-09
7.78827e-10
7.86759e-09
6.78976e-09
5.38144e-09
3.95835e-09
3.50906e-09
3.00189e-09
2.61333e-09
2.52709e-09
2.44984e-09
4.28699e-09
1.07364e-08
8.32384e-09
6.03892e-09
4.12056e-09
3.75965e-09
3.11435e-09
2.73027e-09
2.63084e-09
2.51796e-09
7.72419e-09
1.39305e-08
9.75745e-09
6.54973e-09
4.37046e-09
3.53935e-09
3.12924e-09
2.66512e-09
2.55892e-09
2.48218e-09
-8.0999e-09
-8.10379e-09
-8.10972e-09
-8.09855e-09
-8.0798e-09
-8.05643e-09
-8.02891e-09
-8.00284e-09
-7.98072e-09
-7.96385e-09
-8.07692e-09
-8.08987e-09
-8.09714e-09
-8.08982e-09
-8.07232e-09
-8.05039e-09
-8.02241e-09
-7.99424e-09
-7.96801e-09
-7.94601e-09
-8.0275e-09
-8.0626e-09
-8.0751e-09
-8.07156e-09
-8.05735e-09
-8.03561e-09
-8.00551e-09
-7.97328e-09
-7.94006e-09
-7.90843e-09
-7.95543e-09
-8.02535e-09
-8.04827e-09
-8.05115e-09
-8.03951e-09
-8.01703e-09
-7.9882e-09
-7.95588e-09
-7.92359e-09
-7.88445e-09
-7.89207e-09
-7.99226e-09
-8.0248e-09
-8.03246e-09
-8.02079e-09
-7.99564e-09
-7.96404e-09
-7.93541e-09
-7.91821e-09
-7.90818e-09
-7.85074e-09
-7.97024e-09
-8.0102e-09
-8.01899e-09
-8.00018e-09
-7.95892e-09
-7.90199e-09
-7.85324e-09
-7.86188e-09
-7.90288e-09
-7.82636e-09
-7.95829e-09
-8.0073e-09
-8.00297e-09
-7.96437e-09
-7.87946e-09
-7.74457e-09
-7.59199e-09
-7.48369e-09
-7.09816e-09
-7.77394e-09
-7.95535e-09
-8.01108e-09
-7.99623e-09
-7.9149e-09
-7.73552e-09
-7.4054e-09
-6.84246e-09
-6.13648e-09
-4.16631e-09
-7.74733e-09
-7.97051e-09
-8.03802e-09
-7.97623e-09
-7.77307e-09
-7.24098e-09
-6.22876e-09
-4.43696e-09
-2.61975e-09
1.22799e-09
-7.52573e-09
-8.00105e-09
-8.10426e-09
-7.80801e-09
-7.11793e-09
-5.54885e-09
-2.71968e-09
8.72232e-10
2.86081e-09
3.7055e-09
-7.9509e-09
-7.94885e-09
-7.96928e-09
-8.01449e-09
-8.07865e-09
-8.16065e-09
-8.25892e-09
-8.3696e-09
-8.49059e-09
-8.61742e-09
-8.74798e-09
-8.87749e-09
-9.00441e-09
-9.12503e-09
-9.23851e-09
-9.34094e-09
-9.43072e-09
-9.5073e-09
-9.56858e-09
-9.61485e-09
-9.64415e-09
-9.65701e-09
-9.65419e-09
-9.63831e-09
-9.60725e-09
-9.56284e-09
-9.50737e-09
-9.4416e-09
-9.36702e-09
-9.28555e-09
-9.19811e-09
-9.10565e-09
-9.00934e-09
-8.90727e-09
-8.80721e-09
-8.70355e-09
-8.59774e-09
-8.49065e-09
-8.38238e-09
-8.27416e-09
-8.16381e-09
-8.05389e-09
-7.94341e-09
-7.83263e-09
-7.72208e-09
-7.61219e-09
-7.50321e-09
-7.3965e-09
-7.29234e-09
-7.19055e-09
-7.09126e-09
-6.99485e-09
-6.90161e-09
-6.81162e-09
-6.72498e-09
-6.64164e-09
-6.56159e-09
-6.48468e-09
-6.41085e-09
-6.33986e-09
-6.27161e-09
-6.20584e-09
-6.1424e-09
-6.0811e-09
-6.02175e-09
-5.96427e-09
-5.90843e-09
-5.85423e-09
-5.80152e-09
-5.75027e-09
-5.70041e-09
-5.65188e-09
-5.60462e-09
-5.55858e-09
-5.51369e-09
-5.46985e-09
-5.42698e-09
-5.38498e-09
-5.34377e-09
-5.30318e-09
-5.26321e-09
-5.22376e-09
-5.18487e-09
-5.14648e-09
-5.10874e-09
-5.07157e-09
-5.03518e-09
-4.99953e-09
-4.96476e-09
-4.93104e-09
-4.89808e-09
-4.8668e-09
-4.83557e-09
-4.8074e-09
-4.77731e-09
-4.75316e-09
-4.72331e-09
-4.70307e-09
-4.67637e-09
-4.64876e-09
-7.92093e-09
-7.91237e-09
-7.92761e-09
-7.96661e-09
-8.02816e-09
-8.10876e-09
-8.20774e-09
-8.32001e-09
-8.44451e-09
-8.57577e-09
-8.71193e-09
-8.84792e-09
-8.98205e-09
-9.10968e-09
-9.22927e-09
-9.33906e-09
-9.43553e-09
-9.51924e-09
-9.5871e-09
-9.63874e-09
-9.67375e-09
-9.69137e-09
-9.69175e-09
-9.67925e-09
-9.6517e-09
-9.6099e-09
-9.55668e-09
-9.49262e-09
-9.42049e-09
-9.33983e-09
-9.25374e-09
-9.16156e-09
-9.06429e-09
-8.96221e-09
-8.86064e-09
-8.75606e-09
-8.64859e-09
-8.53789e-09
-8.42832e-09
-8.31803e-09
-8.20816e-09
-8.09609e-09
-7.9828e-09
-7.86921e-09
-7.7557e-09
-7.64284e-09
-7.53141e-09
-7.42181e-09
-7.31477e-09
-7.21041e-09
-7.1093e-09
-7.01132e-09
-6.91688e-09
-6.82574e-09
-6.73813e-09
-6.65382e-09
-6.57284e-09
-6.49502e-09
-6.42022e-09
-6.3483e-09
-6.27902e-09
-6.21226e-09
-6.14776e-09
-6.08542e-09
-6.02505e-09
-5.9665e-09
-5.9097e-09
-5.85454e-09
-5.80085e-09
-5.7488e-09
-5.69802e-09
-5.64875e-09
-5.6006e-09
-5.55376e-09
-5.50794e-09
-5.46323e-09
-5.41943e-09
-5.37645e-09
-5.33437e-09
-5.29293e-09
-5.25193e-09
-5.21196e-09
-5.17253e-09
-5.13372e-09
-5.09531e-09
-5.05775e-09
-5.02085e-09
-4.98493e-09
-4.94972e-09
-4.91598e-09
-4.88259e-09
-4.85123e-09
-4.81998e-09
-4.79181e-09
-4.76145e-09
-4.73726e-09
-4.70722e-09
-4.68642e-09
-4.65946e-09
-4.63077e-09
-7.86896e-09
-7.84724e-09
-7.84926e-09
-7.87872e-09
-7.93503e-09
-8.01528e-09
-8.11761e-09
-8.23648e-09
-8.36674e-09
-8.50549e-09
-8.64978e-09
-8.79536e-09
-8.93917e-09
-9.07951e-09
-9.21194e-09
-9.33406e-09
-9.44349e-09
-9.53923e-09
-9.61877e-09
-9.68111e-09
-9.72533e-09
-9.75105e-09
-9.75834e-09
-9.7492e-09
-9.728e-09
-9.69032e-09
-9.6406e-09
-9.57941e-09
-9.50964e-09
-9.43147e-09
-9.34713e-09
-9.25625e-09
-9.16162e-09
-9.05869e-09
-8.95641e-09
-8.84927e-09
-8.73848e-09
-8.62481e-09
-8.50887e-09
-8.39133e-09
-8.2726e-09
-8.15328e-09
-8.03399e-09
-7.91505e-09
-7.79667e-09
-7.67956e-09
-7.56442e-09
-7.45204e-09
-7.34252e-09
-7.23645e-09
-7.13356e-09
-7.03425e-09
-6.93825e-09
-6.84565e-09
-6.7564e-09
-6.67028e-09
-6.58744e-09
-6.50743e-09
-6.43053e-09
-6.35614e-09
-6.28456e-09
-6.21516e-09
-6.14831e-09
-6.08332e-09
-6.02071e-09
-5.95967e-09
-5.9009e-09
-5.84347e-09
-5.78817e-09
-5.73407e-09
-5.68191e-09
-5.63083e-09
-5.58151e-09
-5.5331e-09
-5.48624e-09
-5.44009e-09
-5.39524e-09
-5.35095e-09
-5.30777e-09
-5.26502e-09
-5.22327e-09
-5.18193e-09
-5.14155e-09
-5.10165e-09
-5.06275e-09
-5.02451e-09
-4.98731e-09
-4.951e-09
-4.91572e-09
-4.88165e-09
-4.84836e-09
-4.81689e-09
-4.7854e-09
-4.75696e-09
-4.72671e-09
-4.70171e-09
-4.67221e-09
-4.64967e-09
-4.624e-09
-4.59292e-09
-7.82354e-09
-7.76855e-09
-7.75357e-09
-7.77162e-09
-7.81781e-09
-7.89376e-09
-7.99502e-09
-8.11671e-09
-8.25507e-09
-8.40439e-09
-8.56074e-09
-8.71921e-09
-8.87687e-09
-9.03079e-09
-9.17691e-09
-9.31343e-09
-9.43595e-09
-9.54349e-09
-9.6322e-09
-9.70266e-09
-9.75283e-09
-9.78377e-09
-9.79458e-09
-9.78479e-09
-9.76453e-09
-9.72838e-09
-9.67796e-09
-9.61638e-09
-9.54612e-09
-9.46693e-09
-9.38139e-09
-9.28808e-09
-9.19046e-09
-9.08329e-09
-8.97476e-09
-8.86093e-09
-8.74356e-09
-8.62071e-09
-8.49734e-09
-8.37038e-09
-8.24482e-09
-8.1169e-09
-7.99217e-09
-7.86662e-09
-7.74423e-09
-7.62228e-09
-7.50544e-09
-7.3905e-09
-7.28103e-09
-7.17365e-09
-7.07145e-09
-6.97118e-09
-6.87561e-09
-6.78187e-09
-6.69243e-09
-6.60478e-09
-6.52101e-09
-6.43902e-09
-6.36052e-09
-6.28375e-09
-6.21001e-09
-6.138e-09
-6.06863e-09
-6.00109e-09
-5.93589e-09
-5.87257e-09
-5.81137e-09
-5.75207e-09
-5.69466e-09
-5.6392e-09
-5.5852e-09
-5.53327e-09
-5.48233e-09
-5.43345e-09
-5.38525e-09
-5.33878e-09
-5.29286e-09
-5.24859e-09
-5.20452e-09
-5.16159e-09
-5.11935e-09
-5.07767e-09
-5.03635e-09
-4.99626e-09
-4.95731e-09
-4.91935e-09
-4.88245e-09
-4.84682e-09
-4.81088e-09
-4.77658e-09
-4.74344e-09
-4.7119e-09
-4.68095e-09
-4.65384e-09
-4.62325e-09
-4.59833e-09
-4.57021e-09
-4.54669e-09
-4.52394e-09
-4.49099e-09
-7.79088e-09
-7.66783e-09
-7.62574e-09
-7.63148e-09
-7.66599e-09
-7.73901e-09
-7.84339e-09
-7.97051e-09
-8.11504e-09
-8.27156e-09
-8.43494e-09
-8.60283e-09
-8.76949e-09
-8.93343e-09
-9.08864e-09
-9.23389e-09
-9.36276e-09
-9.47533e-09
-9.56604e-09
-9.63598e-09
-9.68329e-09
-9.70836e-09
-9.71244e-09
-9.69381e-09
-9.66389e-09
-9.61872e-09
-9.55954e-09
-9.49115e-09
-9.41326e-09
-9.32848e-09
-9.23534e-09
-9.13562e-09
-9.02862e-09
-8.91435e-09
-8.79268e-09
-8.66969e-09
-8.54036e-09
-8.40712e-09
-8.27196e-09
-8.13587e-09
-8.00111e-09
-7.86562e-09
-7.7347e-09
-7.60488e-09
-7.47837e-09
-7.35388e-09
-7.23583e-09
-7.12124e-09
-7.01283e-09
-6.90723e-09
-6.80685e-09
-6.70849e-09
-6.6146e-09
-6.5223e-09
-6.43406e-09
-6.34721e-09
-6.26408e-09
-6.18227e-09
-6.10387e-09
-6.02667e-09
-5.95253e-09
-5.87963e-09
-5.80961e-09
-5.74097e-09
-5.67505e-09
-5.61057e-09
-5.54871e-09
-5.48827e-09
-5.43023e-09
-5.37369e-09
-5.31899e-09
-5.26605e-09
-5.21431e-09
-5.16447e-09
-5.1155e-09
-5.06805e-09
-5.02163e-09
-4.97645e-09
-4.93216e-09
-4.88949e-09
-4.84695e-09
-4.80638e-09
-4.76609e-09
-4.72788e-09
-4.69006e-09
-4.65339e-09
-4.61813e-09
-4.58352e-09
-4.55e-09
-4.51742e-09
-4.4866e-09
-4.45708e-09
-4.42787e-09
-4.40141e-09
-4.37328e-09
-4.34823e-09
-4.32241e-09
-4.29582e-09
-4.27624e-09
-4.24175e-09
-7.66558e-09
-7.47916e-09
-7.40288e-09
-7.39987e-09
-7.43235e-09
-7.50302e-09
-7.61232e-09
-7.74521e-09
-7.89603e-09
-8.05381e-09
-8.21371e-09
-8.37639e-09
-8.53919e-09
-8.69843e-09
-8.84852e-09
-8.98575e-09
-9.10399e-09
-9.2023e-09
-9.27497e-09
-9.32348e-09
-9.34596e-09
-9.34401e-09
-9.31825e-09
-9.27366e-09
-9.21412e-09
-9.14104e-09
-9.06008e-09
-8.9721e-09
-8.87781e-09
-8.77813e-09
-8.67152e-09
-8.55881e-09
-8.43878e-09
-8.3138e-09
-8.17813e-09
-8.04431e-09
-7.90416e-09
-7.76275e-09
-7.61866e-09
-7.47831e-09
-7.33958e-09
-7.20189e-09
-7.07125e-09
-6.94492e-09
-6.82079e-09
-6.70116e-09
-6.58953e-09
-6.48357e-09
-6.38382e-09
-6.28733e-09
-6.19475e-09
-6.10429e-09
-6.01719e-09
-5.93172e-09
-5.84948e-09
-5.76856e-09
-5.69077e-09
-5.61412e-09
-5.54046e-09
-5.46765e-09
-5.39766e-09
-5.32868e-09
-5.26249e-09
-5.19763e-09
-5.13544e-09
-5.07473e-09
-5.01658e-09
-4.95992e-09
-4.90561e-09
-4.85277e-09
-4.80177e-09
-4.75226e-09
-4.70413e-09
-4.65767e-09
-4.61182e-09
-4.56821e-09
-4.52424e-09
-4.48323e-09
-4.44167e-09
-4.40252e-09
-4.36448e-09
-4.32753e-09
-4.29223e-09
-4.25747e-09
-4.22456e-09
-4.19231e-09
-4.16141e-09
-4.13173e-09
-4.10205e-09
-4.07488e-09
-4.04664e-09
-4.02144e-09
-3.99448e-09
-3.97266e-09
-3.94694e-09
-3.92592e-09
-3.90487e-09
-3.8872e-09
-3.86868e-09
-3.83828e-09
-6.85867e-09
-6.81406e-09
-6.7798e-09
-6.81564e-09
-6.90399e-09
-7.00521e-09
-7.12575e-09
-7.2612e-09
-7.40667e-09
-7.54737e-09
-7.68656e-09
-7.82274e-09
-7.9543e-09
-8.07982e-09
-8.19733e-09
-8.29491e-09
-8.37213e-09
-8.42199e-09
-8.44422e-09
-8.4359e-09
-8.40247e-09
-8.33891e-09
-8.2558e-09
-8.1515e-09
-8.04287e-09
-7.92911e-09
-7.81562e-09
-7.7025e-09
-7.58876e-09
-7.4749e-09
-7.35789e-09
-7.23759e-09
-7.11347e-09
-6.9863e-09
-6.85373e-09
-6.71843e-09
-6.58267e-09
-6.44889e-09
-6.3122e-09
-6.18657e-09
-6.06364e-09
-5.94276e-09
-5.83189e-09
-5.73018e-09
-5.6271e-09
-5.53213e-09
-5.44563e-09
-5.36746e-09
-5.29431e-09
-5.22597e-09
-5.16116e-09
-5.09932e-09
-5.04007e-09
-4.98319e-09
-4.92855e-09
-4.87588e-09
-4.82519e-09
-4.77608e-09
-4.72849e-09
-4.68187e-09
-4.63651e-09
-4.59212e-09
-4.54891e-09
-4.50685e-09
-4.46588e-09
-4.42604e-09
-4.38738e-09
-4.3498e-09
-4.31335e-09
-4.27805e-09
-4.2434e-09
-4.20994e-09
-4.17691e-09
-4.1451e-09
-4.11334e-09
-4.08272e-09
-4.05212e-09
-4.02256e-09
-3.99315e-09
-3.96479e-09
-3.9369e-09
-3.90994e-09
-3.88385e-09
-3.85862e-09
-3.83437e-09
-3.81111e-09
-3.78859e-09
-3.76729e-09
-3.74635e-09
-3.72674e-09
-3.70745e-09
-3.68907e-09
-3.6712e-09
-3.65365e-09
-3.6368e-09
-3.61961e-09
-3.60419e-09
-3.58578e-09
-3.5718e-09
-3.54597e-09
-4.36108e-09
-4.67307e-09
-4.94777e-09
-5.17308e-09
-5.38714e-09
-5.56372e-09
-5.71268e-09
-5.86542e-09
-5.99956e-09
-6.09023e-09
-6.18522e-09
-6.27758e-09
-6.35937e-09
-6.42774e-09
-6.47704e-09
-6.49466e-09
-6.49206e-09
-6.4563e-09
-6.39192e-09
-6.29705e-09
-6.16745e-09
-6.0055e-09
-5.8499e-09
-5.68077e-09
-5.53699e-09
-5.3961e-09
-5.27433e-09
-5.16461e-09
-5.06829e-09
-4.97949e-09
-4.89811e-09
-4.81688e-09
-4.73933e-09
-4.66407e-09
-4.5847e-09
-4.52911e-09
-4.46127e-09
-4.41227e-09
-4.35671e-09
-4.31286e-09
-4.27097e-09
-4.22713e-09
-4.18932e-09
-4.15864e-09
-4.12477e-09
-4.0998e-09
-4.07447e-09
-4.06093e-09
-4.04533e-09
-4.03141e-09
-4.01809e-09
-4.00536e-09
-3.9928e-09
-3.98043e-09
-3.96851e-09
-3.95677e-09
-3.94539e-09
-3.93385e-09
-3.92211e-09
-3.90969e-09
-3.89669e-09
-3.88296e-09
-3.86847e-09
-3.85373e-09
-3.83833e-09
-3.82269e-09
-3.80708e-09
-3.7911e-09
-3.77559e-09
-3.7599e-09
-3.74422e-09
-3.72844e-09
-3.71287e-09
-3.69721e-09
-3.68124e-09
-3.6656e-09
-3.64973e-09
-3.63406e-09
-3.61835e-09
-3.60266e-09
-3.5872e-09
-3.57194e-09
-3.55691e-09
-3.54266e-09
-3.52864e-09
-3.51482e-09
-3.50198e-09
-3.48923e-09
-3.47715e-09
-3.4656e-09
-3.45439e-09
-3.44303e-09
-3.43247e-09
-3.42167e-09
-3.4112e-09
-3.4e-09
-3.39033e-09
-3.37807e-09
-3.36813e-09
-3.34865e-09
8.86606e-10
4.39988e-10
-7.88612e-11
-4.91231e-10
-8.41474e-10
-1.15962e-09
-1.42897e-09
-1.67079e-09
-1.85994e-09
-2.01094e-09
-2.12027e-09
-2.20632e-09
-2.25226e-09
-2.28236e-09
-2.26882e-09
-2.23743e-09
-2.1865e-09
-2.09996e-09
-2.00031e-09
-1.89092e-09
-1.7812e-09
-1.72261e-09
-1.68556e-09
-1.65536e-09
-1.64171e-09
-1.64051e-09
-1.6547e-09
-1.67431e-09
-1.69261e-09
-1.71225e-09
-1.72702e-09
-1.73772e-09
-1.74244e-09
-1.75387e-09
-1.76046e-09
-1.78082e-09
-1.79206e-09
-1.80894e-09
-1.83818e-09
-1.84429e-09
-1.87427e-09
-1.90013e-09
-1.93243e-09
-1.97274e-09
-2.01951e-09
-2.07601e-09
-2.13383e-09
-2.19287e-09
-2.25107e-09
-2.31258e-09
-2.37362e-09
-2.43479e-09
-2.49356e-09
-2.54953e-09
-2.6031e-09
-2.6526e-09
-2.69992e-09
-2.74306e-09
-2.78286e-09
-2.8186e-09
-2.8495e-09
-2.8762e-09
-2.89871e-09
-2.91947e-09
-2.93683e-09
-2.95287e-09
-2.96735e-09
-2.9802e-09
-2.99294e-09
-3.00404e-09
-3.01412e-09
-3.02299e-09
-3.03139e-09
-3.03855e-09
-3.0451e-09
-3.05027e-09
-3.05483e-09
-3.05819e-09
-3.06109e-09
-3.06307e-09
-3.06473e-09
-3.06575e-09
-3.06658e-09
-3.06714e-09
-3.06758e-09
-3.06768e-09
-3.06823e-09
-3.06701e-09
-3.06733e-09
-3.06663e-09
-3.06746e-09
-3.06456e-09
-3.06455e-09
-3.06557e-09
-3.06209e-09
-3.06113e-09
-3.06175e-09
-3.05945e-09
-3.05781e-09
-3.04943e-09
3.60718e-09
3.38698e-09
3.11691e-09
2.88054e-09
2.66229e-09
2.44558e-09
2.22696e-09
2.02188e-09
1.81266e-09
1.62018e-09
1.42573e-09
1.24398e-09
1.05728e-09
8.80071e-10
7.16843e-10
5.62611e-10
4.31158e-10
3.04234e-10
1.92544e-10
7.72364e-11
-2.23846e-11
-1.30049e-10
-2.26258e-10
-3.20234e-10
-4.11324e-10
-4.88701e-10
-5.61359e-10
-6.2157e-10
-6.63956e-10
-7.03125e-10
-7.17607e-10
-7.3164e-10
-7.45226e-10
-7.48347e-10
-7.48801e-10
-7.47924e-10
-7.37948e-10
-7.35531e-10
-7.31829e-10
-7.28655e-10
-7.24571e-10
-7.18533e-10
-7.11551e-10
-7.07146e-10
-7.10111e-10
-7.17877e-10
-7.30555e-10
-7.45805e-10
-7.63185e-10
-7.82e-10
-8.01308e-10
-8.23096e-10
-8.47785e-10
-8.76453e-10
-9.12233e-10
-9.49906e-10
-9.93605e-10
-1.04127e-09
-1.09273e-09
-1.14514e-09
-1.20075e-09
-1.2609e-09
-1.32094e-09
-1.38637e-09
-1.4504e-09
-1.5163e-09
-1.58272e-09
-1.64616e-09
-1.7109e-09
-1.77192e-09
-1.83037e-09
-1.88479e-09
-1.93734e-09
-1.98579e-09
-2.03198e-09
-2.07388e-09
-2.11352e-09
-2.14947e-09
-2.18321e-09
-2.21336e-09
-2.24202e-09
-2.26782e-09
-2.29267e-09
-2.31558e-09
-2.33792e-09
-2.35854e-09
-2.37952e-09
-2.39875e-09
-2.4185e-09
-2.43681e-09
-2.45565e-09
-2.47224e-09
-2.48997e-09
-2.50566e-09
-2.52129e-09
-2.53513e-09
-2.54896e-09
-2.56081e-09
-2.57061e-09
-2.58341e-09
3.12265e-09
3.05897e-09
2.9387e-09
2.80643e-09
2.69114e-09
2.56677e-09
2.42741e-09
2.28039e-09
2.11207e-09
1.94381e-09
1.7594e-09
1.58063e-09
1.39554e-09
1.22331e-09
1.05397e-09
8.8673e-10
7.3556e-10
5.79082e-10
4.41748e-10
3.03668e-10
1.81889e-10
5.64021e-11
-4.94012e-11
-1.52348e-10
-2.49427e-10
-3.2977e-10
-4.12613e-10
-4.69097e-10
-5.19689e-10
-5.58922e-10
-5.73623e-10
-5.97479e-10
-6e-10
-6.1006e-10
-6.1374e-10
-6.00488e-10
-5.98019e-10
-5.99165e-10
-5.78829e-10
-5.77424e-10
-5.64192e-10
-5.50513e-10
-5.35463e-10
-5.17209e-10
-5.00405e-10
-4.87525e-10
-4.78128e-10
-4.46182e-10
-4.36952e-10
-4.48403e-10
-4.46418e-10
-4.33327e-10
-4.17874e-10
-4.00011e-10
-3.83496e-10
-3.66911e-10
-3.51655e-10
-3.39463e-10
-3.27745e-10
-3.20997e-10
-3.16831e-10
-3.17573e-10
-3.21311e-10
-3.28646e-10
-3.42523e-10
-3.59145e-10
-3.81273e-10
-4.04804e-10
-4.34064e-10
-4.65044e-10
-5.00413e-10
-5.37053e-10
-5.78257e-10
-6.20431e-10
-6.66617e-10
-7.12795e-10
-7.62631e-10
-8.11876e-10
-8.64041e-10
-9.16269e-10
-9.71159e-10
-1.02513e-09
-1.07974e-09
-1.13479e-09
-1.18978e-09
-1.24435e-09
-1.29836e-09
-1.35161e-09
-1.40304e-09
-1.45382e-09
-1.50171e-09
-1.54929e-09
-1.59254e-09
-1.63694e-09
-1.67457e-09
-1.71632e-09
-1.74744e-09
-1.78735e-09
-1.80742e-09
-1.85662e-09
2.51653e-09
2.48119e-09
2.38305e-09
2.29453e-09
2.22593e-09
2.143e-09
2.04828e-09
1.93834e-09
1.81271e-09
1.67969e-09
1.53612e-09
1.39533e-09
1.24628e-09
1.10733e-09
9.52473e-10
8.06753e-10
6.63797e-10
5.18601e-10
3.9416e-10
2.68671e-10
1.56992e-10
4.47239e-11
-4.82863e-11
-1.43151e-10
-2.27341e-10
-2.99102e-10
-3.75887e-10
-4.16051e-10
-4.71676e-10
-4.9173e-10
-5.15245e-10
-5.29951e-10
-5.29383e-10
-5.42954e-10
-5.48899e-10
-5.34429e-10
-5.35718e-10
-5.32578e-10
-5.20133e-10
-5.10297e-10
-4.933e-10
-4.80869e-10
-4.73654e-10
-4.56219e-10
-4.208e-10
-4.29699e-10
-4.05331e-10
-4.15992e-10
-4.12301e-10
-3.97545e-10
-3.81378e-10
-3.62154e-10
-3.44732e-10
-3.25407e-10
-3.0798e-10
-2.892e-10
-2.72527e-10
-2.5436e-10
-2.3867e-10
-2.21065e-10
-2.09135e-10
-1.93414e-10
-1.85253e-10
-1.72498e-10
-1.66555e-10
-1.58565e-10
-1.53423e-10
-1.48661e-10
-1.45364e-10
-1.4143e-10
-1.39894e-10
-1.38013e-10
-1.3644e-10
-1.36061e-10
-1.34065e-10
-1.35238e-10
-1.37913e-10
-1.39726e-10
-1.48755e-10
-1.52221e-10
-1.74576e-10
-1.85235e-10
-1.84008e-10
-1.92444e-10
-2.01561e-10
-2.24463e-10
-2.40761e-10
-2.71295e-10
-2.91523e-10
-3.30735e-10
-3.57108e-10
-4.04516e-10
-4.3563e-10
-4.90608e-10
-5.24889e-10
-5.86201e-10
-6.2175e-10
-6.87051e-10
-7.28739e-10
-7.94256e-10
2.15726e-09
2.12552e-09
2.05214e-09
1.98994e-09
1.93882e-09
1.87251e-09
1.79196e-09
1.69971e-09
1.59428e-09
1.48328e-09
1.3658e-09
1.24848e-09
1.12244e-09
9.96503e-10
8.66969e-10
7.47334e-10
6.22815e-10
5.04774e-10
3.93356e-10
2.86163e-10
1.89956e-10
9.95924e-11
1.81138e-11
-6.03e-11
-1.25898e-10
-1.86248e-10
-2.37369e-10
-2.77492e-10
-3.22481e-10
-3.41898e-10
-3.7505e-10
-3.89943e-10
-3.94442e-10
-4.16205e-10
-4.18267e-10
-4.07389e-10
-4.17479e-10
-4.12216e-10
-4.15612e-10
-4.06589e-10
-3.91163e-10
-3.70278e-10
-3.608e-10
-3.52947e-10
-3.30215e-10
-3.21686e-10
-3.23653e-10
-3.16793e-10
-3.044e-10
-2.8939e-10
-2.79191e-10
-2.68255e-10
-2.59794e-10
-2.46552e-10
-2.37641e-10
-2.229e-10
-2.14868e-10
-1.99475e-10
-1.91614e-10
-1.77304e-10
-1.69915e-10
-1.55219e-10
-1.47368e-10
-1.31768e-10
-1.23631e-10
-1.06456e-10
-9.83557e-11
-8.16951e-11
-7.37896e-11
-5.5313e-11
-5.06057e-11
-3.11629e-11
-3.05553e-11
-3.06133e-11
-5.49459e-11
-5.0027e-11
-6.26137e-11
-6.61262e-11
-6.11947e-11
-5.41173e-11
-4.58831e-11
-3.84646e-11
-3.16218e-11
-2.48923e-11
-1.93502e-11
-1.3712e-11
-9.54818e-12
-4.19013e-12
-1.1458e-12
3.83349e-12
6.18981e-12
8.5647e-12
7.20951e-12
6.06521e-12
5.20337e-12
-5.41999e-12
-9.55854e-12
-8.28982e-12
-1.76883e-11
-2.99871e-11
2.00049e-09
1.98148e-09
1.89278e-09
1.83507e-09
1.79391e-09
1.73823e-09
1.67418e-09
1.59701e-09
1.51175e-09
1.40969e-09
1.30269e-09
1.18474e-09
1.06974e-09
9.56879e-10
8.45198e-10
7.47713e-10
6.40935e-10
5.57795e-10
4.61664e-10
3.71801e-10
2.95202e-10
2.12419e-10
1.43591e-10
6.94397e-11
6.26738e-12
-5.60353e-11
-1.11035e-10
-1.63735e-10
-2.09814e-10
-2.45454e-10
-2.86743e-10
-3.05664e-10
-3.28692e-10
-3.48542e-10
-3.51904e-10
-3.61485e-10
-3.77725e-10
-3.69433e-10
-3.66972e-10
-3.64067e-10
-3.55344e-10
-3.48857e-10
-3.39251e-10
-3.30172e-10
-3.20589e-10
-3.10905e-10
-3.05238e-10
-2.95524e-10
-2.85557e-10
-2.76823e-10
-2.64664e-10
-2.57863e-10
-2.43077e-10
-2.33308e-10
-2.21236e-10
-2.07788e-10
-1.98394e-10
-1.78854e-10
-1.65742e-10
-1.54954e-10
-1.45551e-10
-1.38949e-10
-1.2029e-10
-1.14197e-10
-1.16259e-10
-1.1574e-10
-1.13155e-10
-1.01442e-10
-9.52588e-11
-8.07008e-11
-7.51202e-11
-6.22894e-11
-5.86769e-11
-6.20781e-11
-7.70583e-11
-7.06094e-11
-7.58492e-11
-7.42095e-11
-6.71947e-11
-5.91758e-11
-5.10845e-11
-4.38887e-11
-3.81317e-11
-3.25182e-11
-2.85182e-11
-2.42691e-11
-2.09861e-11
-1.68294e-11
-1.36611e-11
-8.87108e-12
-5.34206e-12
8.06588e-13
5.38486e-12
1.31967e-11
1.89937e-11
2.81127e-11
3.50089e-11
4.46062e-11
5.29203e-11
5.92557e-11
1.93834e-09
1.92194e-09
1.81797e-09
1.73689e-09
1.69253e-09
1.65063e-09
1.60482e-09
1.54817e-09
1.48023e-09
1.3903e-09
1.29078e-09
1.17473e-09
1.06509e-09
9.53517e-10
8.52886e-10
7.55223e-10
6.65383e-10
5.78796e-10
4.96016e-10
4.15877e-10
3.41488e-10
2.67045e-10
1.966e-10
1.25998e-10
5.78629e-11
-8.53074e-12
-6.71075e-11
-1.27295e-10
-1.72629e-10
-2.17691e-10
-2.57588e-10
-2.81046e-10
-3.08318e-10
-3.27171e-10
-3.33003e-10
-3.48641e-10
-3.60427e-10
-3.55693e-10
-3.50821e-10
-3.45536e-10
-3.48561e-10
-3.45302e-10
-3.36489e-10
-3.27583e-10
-3.17395e-10
-3.08989e-10
-3.01567e-10
-2.96947e-10
-2.86686e-10
-2.80466e-10
-2.68439e-10
-2.60081e-10
-2.39249e-10
-2.2962e-10
-2.0891e-10
-2.02996e-10
-1.94521e-10
-2.00667e-10
-1.85386e-10
-1.89996e-10
-1.89885e-10
-1.80749e-10
-1.75164e-10
-1.62333e-10
-1.55251e-10
-1.40369e-10
-1.33435e-10
-1.18637e-10
-1.13607e-10
-9.71111e-11
-9.52232e-11
-9.3665e-11
-1.10013e-10
-1.03803e-10
-1.12538e-10
-1.12722e-10
-1.07861e-10
-9.92246e-11
-9.03721e-11
-8.09581e-11
-7.28657e-11
-6.49892e-11
-5.88773e-11
-5.20939e-11
-4.73604e-11
-4.12824e-11
-3.68842e-11
-3.06063e-11
-2.62164e-11
-1.95541e-11
-1.52874e-11
-7.9616e-12
-3.34821e-12
4.99342e-12
9.97564e-12
1.88791e-11
2.39922e-11
3.31668e-11
3.74625e-11
4.92502e-11
1.83985e-09
1.81063e-09
1.77888e-09
1.69114e-09
1.62847e-09
1.57935e-09
1.53039e-09
1.46967e-09
1.40541e-09
1.32731e-09
1.24458e-09
1.14695e-09
1.0499e-09
9.4322e-10
8.45217e-10
7.46576e-10
6.61199e-10
5.75006e-10
5.00341e-10
4.26837e-10
3.55575e-10
2.82303e-10
2.09134e-10
1.40277e-10
6.77869e-11
5.38777e-13
-6.22327e-11
-1.22822e-10
-1.68471e-10
-2.16852e-10
-2.5402e-10
-2.78447e-10
-3.05083e-10
-3.22906e-10
-3.33221e-10
-3.42875e-10
-3.56882e-10
-3.53766e-10
-3.5335e-10
-3.47503e-10
-3.51418e-10
-3.45319e-10
-3.43749e-10
-3.33838e-10
-3.23815e-10
-3.16705e-10
-3.04018e-10
-2.97141e-10
-2.86537e-10
-2.85734e-10
-2.80201e-10
-2.73284e-10
-2.65324e-10
-2.59839e-10
-2.53731e-10
-2.43687e-10
-2.35626e-10
-2.28505e-10
-2.15062e-10
-1.96722e-10
-1.77448e-10
-1.77765e-10
-1.61351e-10
-1.66931e-10
-1.6531e-10
-1.62223e-10
-1.54933e-10
-1.50755e-10
-1.41599e-10
-1.38865e-10
-1.252e-10
-1.24295e-10
-1.22859e-10
-1.35998e-10
-1.30422e-10
-1.37127e-10
-1.36993e-10
-1.32438e-10
-1.24942e-10
-1.17727e-10
-1.09288e-10
-1.0258e-10
-9.45618e-11
-8.74271e-11
-7.97434e-11
-7.20711e-11
-6.42472e-11
-5.58713e-11
-4.80948e-11
-4.0085e-11
-3.31824e-11
-2.56507e-11
-1.92375e-11
-1.20442e-11
-5.99262e-12
5.32512e-13
5.31501e-12
1.08819e-11
1.5097e-11
1.8349e-11
1.66011e-09
1.68582e-09
1.65934e-09
1.5974e-09
1.53117e-09
1.45651e-09
1.396e-09
1.33151e-09
1.27316e-09
1.20476e-09
1.13609e-09
1.05308e-09
9.67917e-10
8.70441e-10
7.79276e-10
6.83545e-10
6.00035e-10
5.17169e-10
4.46684e-10
3.75148e-10
3.05265e-10
2.32483e-10
1.59699e-10
8.53441e-11
1.62836e-11
-4.7387e-11
-1.08094e-10
-1.62651e-10
-2.08056e-10
-2.48217e-10
-2.80938e-10
-2.99103e-10
-3.21038e-10
-3.33455e-10
-3.43392e-10
-3.53892e-10
-3.71838e-10
-3.63506e-10
-3.58339e-10
-3.54997e-10
-3.50663e-10
-3.48395e-10
-3.53889e-10
-3.53461e-10
-3.47595e-10
-3.32962e-10
-3.21013e-10
-3.0631e-10
-3.01738e-10
-3.04167e-10
-3.04393e-10
-2.9773e-10
-2.88396e-10
-2.79377e-10
-2.70638e-10
-2.6103e-10
-2.54928e-10
-2.41905e-10
-2.29615e-10
-2.16541e-10
-2.08618e-10
-1.96432e-10
-1.77827e-10
-1.83121e-10
-1.69898e-10
-1.77263e-10
-1.77763e-10
-1.75732e-10
-1.69856e-10
-1.66038e-10
-1.5423e-10
-1.51595e-10
-1.47971e-10
-1.52622e-10
-1.45432e-10
-1.49518e-10
-1.50694e-10
-1.50457e-10
-1.48906e-10
-1.47136e-10
-1.42045e-10
-1.3871e-10
-1.30881e-10
-1.25064e-10
-1.1658e-10
-1.09679e-10
-1.00504e-10
-9.22838e-11
-8.43129e-11
-7.71172e-11
-7.12559e-11
-6.48713e-11
-6.07823e-11
-5.45395e-11
-5.06739e-11
-4.47776e-11
-4.17392e-11
-3.65145e-11
-3.37407e-11
-2.52535e-11
1.48142e-09
1.46364e-09
1.46241e-09
1.4335e-09
1.36787e-09
1.29378e-09
1.23148e-09
1.16919e-09
1.11517e-09
1.05743e-09
1.00316e-09
9.34515e-10
8.5839e-10
7.68173e-10
6.79624e-10
5.90273e-10
5.12372e-10
4.37107e-10
3.70787e-10
3.03435e-10
2.38474e-10
1.76045e-10
1.14377e-10
5.51046e-11
-5.131e-12
-5.66147e-11
-1.18783e-10
-1.64641e-10
-2.14282e-10
-2.50332e-10
-2.79727e-10
-3.00848e-10
-3.18767e-10
-3.31622e-10
-3.44571e-10
-3.59869e-10
-3.6599e-10
-3.6124e-10
-3.55151e-10
-3.61787e-10
-3.6139e-10
-3.56264e-10
-3.61193e-10
-3.57902e-10
-3.61471e-10
-3.61612e-10
-3.56568e-10
-3.52704e-10
-3.49232e-10
-3.44003e-10
-3.34158e-10
-3.16715e-10
-2.98849e-10
-2.80268e-10
-2.62901e-10
-2.52565e-10
-2.38937e-10
-2.31138e-10
-2.21113e-10
-2.14179e-10
-2.0541e-10
-2.00861e-10
-1.89957e-10
-1.83768e-10
-1.68807e-10
-1.76273e-10
-1.67314e-10
-1.70859e-10
-1.69583e-10
-1.65856e-10
-1.54943e-10
-1.52596e-10
-1.54205e-10
-1.43114e-10
-1.42302e-10
-1.41739e-10
-1.534e-10
-1.50425e-10
-1.55462e-10
-1.5598e-10
-1.57621e-10
-1.49375e-10
-1.55598e-10
-1.5208e-10
-1.55624e-10
-1.55489e-10
-1.51573e-10
-1.44356e-10
-1.38397e-10
-1.31556e-10
-1.27062e-10
-1.21294e-10
-1.17439e-10
-1.11923e-10
-1.08725e-10
-1.03537e-10
-1.00672e-10
-9.54507e-11
-9.21664e-11
-8.93877e-11
1.31063e-09
1.30147e-09
1.26471e-09
1.26149e-09
1.22997e-09
1.1775e-09
1.09484e-09
1.00455e-09
9.57513e-10
9.17324e-10
8.6864e-10
8.06739e-10
7.44404e-10
6.70402e-10
6.06462e-10
5.34827e-10
4.72192e-10
4.06943e-10
3.4391e-10
2.80325e-10
2.16437e-10
1.57527e-10
1.0162e-10
4.49098e-11
-1.13159e-11
-7.00203e-11
-1.27751e-10
-1.81243e-10
-2.29599e-10
-2.68228e-10
-2.96601e-10
-3.16363e-10
-3.31956e-10
-3.40266e-10
-3.48433e-10
-3.53999e-10
-3.55607e-10
-3.66712e-10
-3.69996e-10
-3.83938e-10
-3.91268e-10
-3.93791e-10
-3.97444e-10
-3.95069e-10
-4.0866e-10
-4.14513e-10
-4.14955e-10
-4.17191e-10
-4.16161e-10
-4.17153e-10
-4.05715e-10
-3.8537e-10
-3.58696e-10
-3.32329e-10
-3.07156e-10
-2.84505e-10
-2.67658e-10
-2.52582e-10
-2.40497e-10
-2.27376e-10
-2.1696e-10
-2.07097e-10
-2.00109e-10
-1.95352e-10
-1.89153e-10
-1.84399e-10
-1.80203e-10
-1.72985e-10
-1.66969e-10
-1.5962e-10
-1.49598e-10
-1.33286e-10
-1.23068e-10
-1.1813e-10
-1.13599e-10
-1.1166e-10
-1.00691e-10
-9.90107e-11
-9.63326e-11
-9.61823e-11
-8.69e-11
-8.95319e-11
-9.0968e-11
-1.22901e-10
-1.25001e-10
-1.28685e-10
-1.32673e-10
-1.49641e-10
-1.50681e-10
-1.60022e-10
-1.60087e-10
-1.57088e-10
-1.51206e-10
-1.42605e-10
-1.38363e-10
-1.35343e-10
-1.33745e-10
-1.30142e-10
-1.29912e-10
-1.22549e-10
1.18279e-09
1.16629e-09
1.09602e-09
1.07621e-09
1.07523e-09
1.03518e-09
9.7797e-10
9.27954e-10
8.76168e-10
8.24726e-10
7.70124e-10
7.05623e-10
6.48678e-10
5.76486e-10
5.20175e-10
4.50543e-10
3.94998e-10
3.37454e-10
2.76478e-10
2.19331e-10
1.52632e-10
1.02387e-10
4.83012e-11
-8.336e-12
-7.36597e-11
-1.32269e-10
-1.86799e-10
-2.38694e-10
-2.76916e-10
-3.12203e-10
-3.33754e-10
-3.50212e-10
-3.62299e-10
-3.67997e-10
-3.78936e-10
-3.85193e-10
-3.94179e-10
-4.02945e-10
-4.25018e-10
-4.32248e-10
-4.31723e-10
-4.38213e-10
-4.42916e-10
-4.66848e-10
-4.78451e-10
-4.82365e-10
-4.80838e-10
-4.84637e-10
-4.87488e-10
-4.90527e-10
-4.95124e-10
-4.87946e-10
-4.70355e-10
-4.44154e-10
-4.14932e-10
-3.82077e-10
-3.44861e-10
-3.11563e-10
-2.76489e-10
-2.47585e-10
-2.23556e-10
-2.03858e-10
-1.88868e-10
-1.78634e-10
-1.70748e-10
-1.63758e-10
-1.59666e-10
-1.55047e-10
-1.4817e-10
-1.41792e-10
-1.30565e-10
-1.19839e-10
-1.0882e-10
-9.99255e-11
-9.35402e-11
-8.70777e-11
-8.10519e-11
-7.52005e-11
-7.25844e-11
-6.58314e-11
-6.2544e-11
-7.64673e-11
-7.32236e-11
-8.885e-11
-8.36995e-11
-8.57373e-11
-8.59248e-11
-1.03386e-10
-1.19736e-10
-1.33755e-10
-1.47198e-10
-1.50588e-10
-1.53959e-10
-1.51373e-10
-1.49827e-10
-1.47549e-10
-1.46248e-10
-1.42782e-10
-1.42464e-10
-1.36146e-10
1.06203e-09
1.04887e-09
9.42686e-10
8.61403e-10
8.39327e-10
8.53201e-10
8.52089e-10
8.14444e-10
7.68373e-10
7.17372e-10
6.64792e-10
6.09839e-10
5.53399e-10
4.9725e-10
4.45628e-10
3.92901e-10
3.48641e-10
2.93889e-10
2.34099e-10
1.68325e-10
1.05838e-10
4.59356e-11
-4.75964e-12
-6.13397e-11
-1.10239e-10
-1.55147e-10
-1.9858e-10
-2.4301e-10
-2.72923e-10
-3.02634e-10
-3.22876e-10
-3.47221e-10
-3.65599e-10
-3.90202e-10
-4.07627e-10
-4.15795e-10
-4.21966e-10
-4.30687e-10
-4.47791e-10
-4.43819e-10
-4.45123e-10
-4.57265e-10
-4.68618e-10
-5.02643e-10
-5.06866e-10
-5.10784e-10
-5.09659e-10
-5.11732e-10
-5.11945e-10
-5.11815e-10
-5.16782e-10
-5.20829e-10
-5.13807e-10
-4.92657e-10
-4.59639e-10
-4.23358e-10
-3.78416e-10
-3.3097e-10
-2.79444e-10
-2.35447e-10
-1.96669e-10
-1.66081e-10
-1.44604e-10
-1.27429e-10
-1.17814e-10
-1.12139e-10
-1.07019e-10
-9.61066e-11
-9.84495e-11
-9.69871e-11
-9.35067e-11
-8.57092e-11
-7.99347e-11
-7.11372e-11
-6.48171e-11
-5.86223e-11
-5.76287e-11
-4.7672e-11
-4.55319e-11
-4.47261e-11
-4.52538e-11
-4.41863e-11
-4.0927e-11
-4.25473e-11
-4.51081e-11
-5.8613e-11
-5.64655e-11
-6.57879e-11
-8.32835e-11
-1.07843e-10
-1.21696e-10
-1.39365e-10
-1.50226e-10
-1.59487e-10
-1.6106e-10
-1.60851e-10
-1.60563e-10
-1.57302e-10
-1.55082e-10
-1.51584e-10
9.2873e-10
9.14922e-10