/*--------------------------------*- C++ -*----------------------------------*\
  =========                 |
  \\      /  F ield         | OpenFOAM: The Open Source CFD Toolbox
   \\    /   O peration     | Website:  https://openfoam.org
    \\  /    A nd           | Version:  8
     \\/     M anipulation  |
\*---------------------------------------------------------------------------*/
FoamFile
{
    version     2.0;
    format      ascii;
    class       volScalarField;
    location    "20.000098150058701";
    object      I;
}
// * * * * * * * * * * * * * * * * * * * * * * * * * * * * * * * * * * * * * //

dimensions      [0 -3 -1 0 0 0 0];

internalField   nonuniform List<scalar> 
6800
(
15879.1
12192.4
15399.4
34097.9
155566
3.43334e+06
2.85379e+07
6.46985e+07
8.79473e+07
9.35447e+07
11753.2
12989.9
29614.2
234398
8.71817e+06
5.14947e+07
8.59515e+07
1.01195e+08
1.01733e+08
9.93502e+07
20399.3
33196.8
197269
9.37046e+06
5.49443e+07
9.33844e+07
1.09302e+08
1.07664e+08
9.69855e+07
7.36952e+07
18802.5
386859
2.89667e+06
4.55548e+07
1.08061e+08
1.30042e+08
1.17863e+08
1.0887e+08
8.33277e+07
6.85389e+07
58938.7
6.28776e+06
2.22322e+07
1.05272e+08
1.34598e+08
1.35952e+08
1.18512e+08
9.37788e+07
7.22201e+07
6.24751e+07
34419.4
1.31139e+07
3.26803e+07
1.2531e+08
1.36171e+08
1.37412e+08
1.019e+08
8.32361e+07
6.71855e+07
6.84248e+07
65579.6
6.87989e+07
1.17369e+08
1.90556e+08
1.55494e+08
1.39407e+08
9.47251e+07
8.32016e+07
7.64552e+07
9.07311e+07
1.64833e+06
3.38908e+08
1.90462e+08
2.23723e+08
1.42801e+08
1.36894e+08
1.05876e+08
8.69407e+07
8.76426e+07
8.98578e+07
8.29888e+06
8.96591e+08
4.92707e+08
3.96524e+08
1.59908e+08
1.71703e+08
1.24539e+08
1.01856e+08
9.9921e+07
9.85142e+07
4.57036e+07
2.93486e+09
1.24399e+09
6.41439e+08
2.13726e+08
1.47788e+08
1.30555e+08
9.66746e+07
9.59158e+07
9.89564e+07
16399.5
15495.9
14660.7
14512.2
14598.4
14807.6
15120
15476.4
15854.1
16227.6
16441.2
15441.8
14688.4
14506
14587.1
14785.5
15097
15476
15905.1
16355.3
16514.5
15358.4
14699.5
14523.9
14590.8
14774
15097.3
15510.8
16026.8
16659.5
16685.2
15350.7
14730.2
14557.7
14600.4
14781.3
15071.2
15451.5
15987.1
16872.3
16758
15333.2
14770.3
14604.2
14654.6
14853.5
15144.6
15466.8
15907.4
16845.9
16643.6
15266.5
14757.3
14677.3
14879.6
15286.6
15875.5
16356.4
16493.8
17577.5
16364.4
15168.4
14725.3
14975.3
15493.4
16444.7
18104.6
20289.3
22386.7
33720
16406.9
14955.4
14780.6
15278
16349.1
18684.4
23980.6
37876.1
62819.8
284976
15893.2
14575.4
14523
15523.5
18440.4
28137.2
61238.1
220490
815547
1.22074e+07
17069.5
13965.6
13345.6
17511
31059.9
101676
777367
9.48573e+06
3.56827e+07
7.21505e+07
16666.8
17285
17823
18203.8
18485.2
18667
18759.3
18772.8
18733
18669.4
18599.5
18550.5
18534.6
18564.8
18683.3
18865.3
19139.8
19534.2
20037.8
20686.8
21494.9
22478.5
23633.9
24940.5
26467.1
28199.8
30142.7
32299
34670.1
37257.8
40065.2
43097.2
46357.9
49966.7
53643.9
57673
62008.9
66663.4
71655.3
77011.7
82760.7
88925.2
95523.1
102576
110103
118102
126553
135426
144682
154279
164175
174327
184696
195245
205940
216753
227658
238635
249670
260757
271893
283083
294333
305649
317038
328506
340057
351689
363401
375188
387043
398960
410936
422972
435072
447248
459518
471900
484415
497081
509916
522925
536113
549466
562975
576591
590312
604027
617798
631369
645030
658141
671639
683861
697374
708156
721991
731334
743774
758025
16916.9
17684.1
18310.3
18778.8
19114.8
19320.8
19412.1
19394.1
19295.2
19161.1
19009.9
18882.9
18770.8
18694.1
18693.6
18778.4
18960.1
19238.9
19635.6
20167.6
20850.1
21700
22737.6
23899.6
25262.1
26828.6
28592.1
30554.8
32718.1
35084.7
37659.9
40450.6
43458.7
46805.9
50239.2
54005.3
58080.7
62478.1
67224.1
72336.8
77839.8
83751.7
90083.9
96856.5
104086
111767
119873
128370
137220
146386
155829
165516
175412
185489
195717
206074
216539
227094
237730
248442
259231
270103
281062
292113
303263
314512
325862
337308
348846
360469
372168
383938
395775
407679
419658
431724
443892
456182
468611
481194
493944
506863
519950
533186
546560
560019
573561
587072
600618
613946
627349
640198
653417
665402
678607
689270
702690
712200
724163
738488
17353.4
18386
19211.8
19843.5
20285.9
20520.2
20577
20461.1
20242.2
19982.3
19683.6
19376.8
19123
18904.5
18730.5
18626.7
18619
18712.3
18924.5
19270.1
19762
20412.4
21244.9
22233.7
23348
24664.9
26163.9
27840.9
29696.1
31733.5
33961.7
36391.7
39022.1
41972.7
45053.2
48429.3
52135.8
56169
60553.5
65294.7
70412.8
75920.8
81816.3
88119.6
94849.3
101992
109510
117364
125523
133955
142636
151542
160653
169948
179409
189019
198762
208628
218608
228705
238921
249261
259730
270328
281059
291915
302897
313995
325201
336505
347899
359374
370927
382561
394282
406103
418039
430107
442320
454689
467218
479903
492740
505699
518770
531893
545069
558181
571305
584189
597133
609529
622268
633869
646548
657050
669765
679612
690555
705477
17755.3
19316
20447.1
21292.1
21895.1
22188.3
22183.8
21991.4
21660.7
21216.1
20712.6
20185.7
19685.1
19235.5
18845.6
18536.1
18331
18248.3
18298.1
18490.5
18834.7
19337.4
20008.6
20887.7
21831.9
22950.6
24254.4
25708.1
27314.3
29080.1
31020.4
33149
35478.8
38108.4
40944.2
44022.8
47459
51225.3
55343.8
59795.7
64603.5
69776.5
75286.1
81158.5
87424.8
94037.8
100945
108108
115508
123129
130964
139005
147246
155677
164287
173069
182010
191103
200344
209744
219305
229033
238929
248987
259208
269580
280096
290745
301511
312385
323358
334420
345568
356808
368148
379600
391180
402900
414768
426788
438959
451267
463701
476225
488826
501438
514068
526595
539108
551361
563653
575423
587482
598560
610496
620777
632516
642779
652319
668015
18279.8
20734.8
22364.4
23459
24276.5
24614.6
24522.5
24156.4
23618.7
22968.5
22256.8
21520
20807
20155.5
19581.8
19112.1
18766.1
18565.3
18527
18657.5
18963.6
19449.4
20112.1
20993.8
21946.5
23056.9
24330.2
25731.5
27266.7
28949
30805.4
32857.2
35135.7
37693.7
40579.4
43645.3
47111.9
50932.6
55124.1
59609.5
64431.4
69602.4
75028.6
80761
86876.4
93279.1
99882.1
106643
113562
120643
127901
135343
142976
150792
158791
166969
175311
183816
192487
201341
210385
219619
229042
238638
248410
258334
268404
278603
288913
299326
309836
320433
331117
341896
352782
363789
374929
386214
397646
409220
420926
432744
444653
456612
468603
480559
492488
504275
516005
527450
538892
549864
561037
571448
582425
592379
602938
613493
621551
637880
20762.4
24275.4
26696.8
28051
28924.6
29190.3
28874.8
28187.6
27320.6
26446.7
25620.1
24798.1
23984.5
23243.5
22590.6
22086.2
21751.6
21617.5
21714.1
22046.7
22614.3
23427.2
24489
25744.7
27169.9
28762.1
30457.3
32259.1
34178.9
36242.4
38504.6
40995.4
43786.1
46852.7
50451.5
54184.8
58373.6
62974.9
68019.6
73244.6
78800.4
84734
90737.3
96927.4
103582
110405
117250
124063
130915
137850
144925
152156
159563
167131
174864
182764
190801
198986
207331
215878
224622
233560
242687
251966
261419
270995
280701
290510
300400
310375
320429
330556
340759
351053
361451
371976
382635
393439
404379
415444
426609
437849
449130
460408
471659
482820
493891
504777
515555
526043
536470
546518
556631
566258
576108
585596
594918
605308
612878
628596
39922.2
41253.4
43295.2
43771.8
43003
42175.6
41229.8
39957.6
38669.2
37678.4
36866.7
36179.2
35619
35127.8
34725.3
34628.4
34835.9
35448.9
36535.3
38112.1
40161.5
42794.4
45907.1
49542.5
53297.2
57184.1
61011.6
64807.3
68602.7
72482.5
76585
81010.6
85864.4
91122.4
97068.5
103401
109932
116959
124730
132060
139699
147937
155651
163079
171449
179576
187309
194394
201319
208197
215176
222254
229464
236757
244164
251687
259249
266908
274699
282725
290942
299346
307945
316638
325531
334485
343555
352697
361871
371107
380409
389768
399187
408699
418313
428074
437970
448022
458191
468466
478794
489151
499479
509742
519894
529904
539722
549340
558767
567907
576903
585702
594343
602863
611236
619923
627769
637470
644647
659345
252773
204516
170805
149177
132557
122317
115706
110023
106851
107197
107242
107585
108604
110389
113189
118058
124019
132324
143066
156394
174235
196605
219999
246109
270358
293428
312472
328510
341724
353162
363271
373884
384333
394594
407703
413599
426765
434163
444772
452073
458909
467618
474697
479429
486228
489899
494099
493287
493950
494112
494338
494593
495157
495857
496796
498170
499518
501141
503061
505568
508574
512103
516264
520605
525596
530692
536118
541738
547427
553285
559321
565513
571829
578347
585049
592047
599245
606718
614322
622091
629879
637716
645464
653129
660613
667976
674993
682011
688680
695138
701395
707939
713873
720085
726078
732798
738251
745972
751786
764718
9.63156e+06
7.38357e+06
5.36857e+06
4.16447e+06
3.37832e+06
2.82262e+06
2.44523e+06
2.18892e+06
2.03758e+06
1.94729e+06
1.91769e+06
1.92107e+06
1.97836e+06
2.056e+06
2.198e+06
2.37182e+06
2.58408e+06
2.87987e+06
3.21982e+06
3.61142e+06
4.03418e+06
4.31788e+06
4.519e+06
4.69907e+06
4.79589e+06
4.84479e+06
4.82631e+06
4.7807e+06
4.73478e+06
4.6758e+06
4.63194e+06
4.59545e+06
4.58068e+06
4.52548e+06
4.49168e+06
4.38456e+06
4.33359e+06
4.25254e+06
4.10911e+06
4.06838e+06
3.92399e+06
3.80207e+06
3.66136e+06
3.49878e+06
3.32336e+06
3.12861e+06
2.93756e+06
2.75725e+06
2.59071e+06
2.42538e+06
2.27283e+06
2.12919e+06
2.0006e+06
1.88396e+06
1.77897e+06
1.68802e+06
1.60522e+06
1.53237e+06
1.4677e+06
1.41161e+06
1.36413e+06
1.32379e+06
1.29001e+06
1.25927e+06
1.23353e+06
1.20979e+06
1.18864e+06
1.1695e+06
1.15148e+06
1.13536e+06
1.1207e+06
1.10756e+06
1.0954e+06
1.08471e+06
1.075e+06
1.06681e+06
1.05953e+06
1.05358e+06
1.04829e+06
1.04407e+06
1.04026e+06
1.03724e+06
1.03446e+06
1.03206e+06
1.02983e+06
1.02799e+06
1.02578e+06
1.02534e+06
1.02345e+06
1.02256e+06
1.02023e+06
1.02164e+06
1.02015e+06
1.0178e+06
1.01974e+06
1.01937e+06
1.01728e+06
1.01818e+06
1.01825e+06
1.02502e+06
6.77591e+07
5.97208e+07
5.1428e+07
4.51927e+07
4.0205e+07
3.61011e+07
3.26363e+07
2.99928e+07
2.76707e+07
2.59006e+07
2.42722e+07
2.29584e+07
2.16268e+07
2.0457e+07
1.94791e+07
1.85793e+07
1.79322e+07
1.72635e+07
1.67132e+07
1.60285e+07
1.54824e+07
1.4763e+07
1.41359e+07
1.34921e+07
1.2851e+07
1.23356e+07
1.18446e+07
1.1458e+07
1.12324e+07
1.10068e+07
1.10049e+07
1.09783e+07
1.0926e+07
1.09558e+07
1.09856e+07
1.10268e+07
1.11399e+07
1.11581e+07
1.12068e+07
1.12237e+07
1.12151e+07
1.12307e+07
1.12502e+07
1.12445e+07
1.11608e+07
1.10211e+07
1.08307e+07
1.0619e+07
1.03902e+07
1.01535e+07
9.9171e+06
9.66557e+06
9.39444e+06
9.09951e+06
8.75851e+06
8.41458e+06
8.03806e+06
7.65256e+06
7.26227e+06
6.88657e+06
6.51194e+06
6.13206e+06
5.77659e+06
5.414e+06
5.08317e+06
4.76243e+06
4.463e+06
4.19083e+06
3.93485e+06
3.70647e+06
3.49998e+06
3.3173e+06
3.15066e+06
3.00396e+06
2.87097e+06
2.7549e+06
2.64978e+06
2.55753e+06
2.47405e+06
2.40144e+06
2.33432e+06
2.27535e+06
2.21968e+06
2.16968e+06
2.12167e+06
2.07809e+06
2.03476e+06
1.99571e+06
1.95658e+06
1.9208e+06
1.88495e+06
1.85355e+06
1.821e+06
1.79239e+06
1.76415e+06
1.73962e+06
1.71495e+06
1.6941e+06
1.67653e+06
1.65442e+06
8.4828e+07
7.93942e+07
7.39124e+07
6.81113e+07
6.34536e+07
5.932e+07
5.51303e+07
5.13309e+07
4.72822e+07
4.37072e+07
3.99469e+07
3.67029e+07
3.35391e+07
3.09392e+07
2.85497e+07
2.63095e+07
2.45069e+07
2.26245e+07
2.11486e+07
1.96748e+07
1.84833e+07
1.72434e+07
1.63025e+07
1.53961e+07
1.45511e+07
1.39271e+07
1.32385e+07
1.28588e+07
1.25115e+07
1.2271e+07
1.22775e+07
1.21509e+07
1.22266e+07
1.22096e+07
1.21817e+07
1.24204e+07
1.24719e+07
1.24482e+07
1.27313e+07
1.26975e+07
1.28189e+07
1.29331e+07
1.30655e+07
1.32419e+07
1.33934e+07
1.34942e+07
1.35444e+07
1.38865e+07
1.3933e+07
1.37153e+07
1.36663e+07
1.3764e+07
1.38869e+07
1.40539e+07
1.42028e+07
1.43384e+07
1.44589e+07
1.45497e+07
1.46391e+07
1.46631e+07
1.46538e+07
1.45805e+07
1.44698e+07
1.43159e+07
1.40808e+07
1.38187e+07
1.34942e+07
1.31646e+07
1.27775e+07
1.23853e+07
1.19583e+07
1.15369e+07
1.10839e+07
1.06433e+07
1.01825e+07
9.7451e+06
9.29485e+06
8.87309e+06
8.4471e+06
8.04394e+06
7.64033e+06
7.26591e+06
6.90363e+06
6.56084e+06
6.23375e+06
5.92642e+06
5.63663e+06
5.36529e+06
5.1152e+06
4.87955e+06
4.66699e+06
4.46463e+06
4.28781e+06
4.11376e+06
3.97049e+06
3.81859e+06
3.70724e+06
3.57109e+06
3.50141e+06
3.34524e+06
6.83234e+07
6.62452e+07
6.2366e+07
5.87995e+07
5.62366e+07
5.36059e+07
5.08314e+07
4.79105e+07
4.47269e+07
4.16257e+07
3.84831e+07
3.57255e+07
3.29605e+07
3.0696e+07
2.81657e+07
2.6029e+07
2.40817e+07
2.21811e+07
2.07824e+07
1.93665e+07
1.82396e+07
1.70975e+07
1.62757e+07
1.54133e+07
1.46966e+07
1.41365e+07
1.34849e+07
1.32786e+07
1.28428e+07
1.28173e+07
1.2711e+07
1.26849e+07
1.28082e+07
1.27444e+07
1.27186e+07
1.29624e+07
1.29841e+07
1.30012e+07
1.31797e+07
1.32452e+07
1.34545e+07
1.35697e+07
1.36216e+07
1.3809e+07
1.42243e+07
1.40495e+07
1.43121e+07
1.41073e+07
1.40896e+07
1.42188e+07
1.43643e+07
1.45546e+07
1.47192e+07
1.49164e+07
1.50847e+07
1.52702e+07
1.54283e+07
1.56165e+07
1.5773e+07
1.5961e+07
1.60671e+07
1.6233e+07
1.62873e+07
1.64153e+07
1.644e+07
1.65029e+07
1.65178e+07
1.65414e+07
1.65284e+07
1.65319e+07
1.65057e+07
1.64879e+07
1.64657e+07
1.6429e+07
1.64168e+07
1.63608e+07
1.62836e+07
1.62217e+07
1.60568e+07
1.59751e+07
1.56292e+07
1.54529e+07
1.54432e+07
1.53016e+07
1.51553e+07
1.48279e+07
1.45947e+07
1.4186e+07
1.39168e+07
1.34263e+07
1.31015e+07
1.25507e+07
1.21966e+07
1.16075e+07
1.12487e+07
1.06466e+07
1.03057e+07
9.72043e+06
9.35653e+06
8.82048e+06
5.90409e+07
5.73536e+07
5.4814e+07
5.24859e+07
5.07286e+07
4.86454e+07
4.62995e+07
4.37859e+07
4.10823e+07
3.8495e+07
3.59645e+07
3.36929e+07
3.13641e+07
2.92352e+07
2.71704e+07
2.54855e+07
2.37741e+07
2.22934e+07
2.10051e+07
1.98091e+07
1.88371e+07
1.79558e+07
1.722e+07
1.65228e+07
1.6001e+07
1.55293e+07
1.51577e+07
1.49157e+07
1.4563e+07
1.45396e+07
1.42841e+07
1.42522e+07
1.43308e+07
1.41453e+07
1.42195e+07
1.44342e+07
1.42852e+07
1.43669e+07
1.43107e+07
1.44235e+07
1.46279e+07
1.48775e+07
1.49668e+07
1.50499e+07
1.53214e+07
1.53912e+07
1.52995e+07
1.53374e+07
1.54455e+07
1.55956e+07
1.56685e+07
1.57574e+07
1.5804e+07
1.59266e+07
1.59822e+07
1.6126e+07
1.61678e+07
1.63269e+07
1.63729e+07
1.65215e+07
1.65645e+07
1.67238e+07
1.67785e+07
1.69581e+07
1.70221e+07
1.72329e+07
1.73004e+07
1.75101e+07
1.75754e+07
1.7818e+07
1.78421e+07
1.81099e+07
1.80706e+07
1.80231e+07
1.75862e+07
1.76227e+07
1.73836e+07
1.72903e+07
1.73305e+07
1.74048e+07
1.75001e+07
1.75813e+07
1.76591e+07
1.77311e+07
1.77882e+07
1.78473e+07
1.78843e+07
1.79406e+07
1.79611e+07
1.80127e+07
1.80233e+07
1.8034e+07
1.79861e+07
1.79414e+07
1.79022e+07
1.77101e+07
1.76206e+07
1.76147e+07
1.74445e+07
1.72303e+07
5.69144e+07
5.60928e+07
5.24667e+07
5.02954e+07
4.89588e+07
4.72522e+07
4.5471e+07
4.33793e+07
4.12322e+07
3.8706e+07
3.6275e+07
3.37193e+07
3.14922e+07
2.95047e+07
2.7696e+07
2.6353e+07
2.48447e+07
2.39341e+07
2.27297e+07
2.17084e+07
2.09492e+07
2.00556e+07
1.94146e+07
1.86527e+07
1.80642e+07
1.74619e+07
1.69534e+07
1.64566e+07
1.60306e+07
1.574e+07
1.53298e+07
1.52267e+07
1.50345e+07
1.48648e+07
1.49253e+07
1.48417e+07
1.45805e+07
1.47592e+07
1.47834e+07
1.48115e+07
1.48997e+07
1.49438e+07
1.5055e+07
1.51571e+07
1.52484e+07
1.53395e+07
1.53651e+07
1.54471e+07
1.55277e+07
1.55891e+07
1.56987e+07
1.57296e+07
1.58777e+07
1.59532e+07
1.60635e+07
1.61953e+07
1.62658e+07
1.64961e+07
1.6631e+07
1.67331e+07
1.68153e+07
1.68562e+07
1.70894e+07
1.71279e+07
1.70363e+07
1.69904e+07
1.6976e+07
1.71095e+07
1.71555e+07
1.73368e+07
1.73785e+07
1.7539e+07
1.75536e+07
1.74575e+07
1.71802e+07
1.7244e+07
1.71254e+07
1.7116e+07
1.71912e+07
1.72834e+07
1.73784e+07
1.74599e+07
1.75209e+07
1.75787e+07
1.76133e+07
1.76528e+07
1.76777e+07
1.77172e+07
1.77418e+07
1.77925e+07
1.78239e+07
1.78969e+07
1.79454e+07
1.80451e+07
1.81134e+07
1.82341e+07
1.83204e+07
1.84483e+07
1.85579e+07
1.86322e+07
5.84867e+07
5.79227e+07
5.31216e+07
4.95928e+07
4.79912e+07
4.67908e+07
4.56517e+07
4.42296e+07
4.25401e+07
4.01983e+07
3.77486e+07
3.49651e+07
3.26444e+07
3.04542e+07
2.87353e+07
2.71938e+07
2.59313e+07
2.47844e+07
2.37654e+07
2.28292e+07
2.20124e+07
2.11719e+07
2.04037e+07
1.96099e+07
1.88557e+07
1.81119e+07
1.74924e+07
1.68251e+07
1.63814e+07
1.59185e+07
1.55121e+07
1.53328e+07
1.50704e+07
1.49129e+07
1.4921e+07
1.47516e+07
1.4591e+07
1.47118e+07
1.47681e+07
1.48386e+07
1.47435e+07
1.47656e+07
1.48811e+07
1.49651e+07
1.5077e+07
1.51596e+07
1.52165e+07
1.52324e+07
1.53231e+07
1.53547e+07
1.54684e+07
1.55293e+07
1.57742e+07
1.58545e+07
1.6103e+07
1.6128e+07
1.61917e+07
1.60342e+07
1.6206e+07
1.60762e+07
1.60196e+07
1.61033e+07
1.61338e+07
1.62789e+07
1.63363e+07
1.65177e+07
1.65758e+07
1.67604e+07
1.67915e+07
1.70064e+07
1.6992e+07
1.69761e+07
1.66807e+07
1.67411e+07
1.65708e+07
1.65352e+07
1.65777e+07
1.66794e+07
1.67858e+07
1.69017e+07
1.69989e+07
1.70931e+07
1.71615e+07
1.72404e+07
1.72885e+07
1.73583e+07
1.74031e+07
1.7478e+07
1.75241e+07
1.76066e+07
1.76517e+07
1.77457e+07
1.77967e+07
1.7907e+07
1.79639e+07
1.80833e+07
1.81425e+07
1.82663e+07
1.83118e+07
1.84785e+07
5.74056e+07
5.59659e+07
5.52352e+07
5.11222e+07
4.84724e+07
4.68371e+07
4.545e+07
4.37422e+07
4.20772e+07
4.00588e+07
3.80679e+07
3.57328e+07
3.36154e+07
3.13654e+07
2.95324e+07
2.77989e+07
2.65045e+07
2.52371e+07
2.42899e+07
2.33624e+07
2.24955e+07
2.15926e+07
2.06914e+07
1.98657e+07
1.89691e+07
1.81675e+07
1.74353e+07
1.67344e+07
1.62619e+07
1.57314e+07
1.53557e+07
1.51506e+07
1.48949e+07
1.474e+07
1.46832e+07
1.45921e+07
1.44266e+07
1.44962e+07
1.44835e+07
1.45587e+07
1.44738e+07
1.45522e+07
1.45521e+07
1.46462e+07
1.47747e+07
1.48441e+07
1.49836e+07
1.50403e+07
1.51422e+07
1.51007e+07
1.51253e+07
1.51703e+07
1.52284e+07
1.52516e+07
1.52841e+07
1.53758e+07
1.54384e+07
1.54888e+07
1.56348e+07
1.58581e+07
1.60996e+07
1.60432e+07
1.62458e+07
1.61122e+07
1.60906e+07
1.60935e+07
1.61613e+07
1.6183e+07
1.62818e+07
1.62833e+07
1.6455e+07
1.64329e+07
1.64197e+07
1.61863e+07
1.62391e+07
1.61085e+07
1.60811e+07
1.61223e+07
1.62076e+07
1.62907e+07
1.63925e+07
1.64699e+07
1.65676e+07
1.66532e+07
1.67477e+07
1.68435e+07
1.6943e+07
1.70526e+07
1.71536e+07
1.72593e+07
1.7348e+07
1.74473e+07
1.75288e+07
1.76223e+07
1.76979e+07
1.77808e+07
1.78361e+07
1.79034e+07
1.79496e+07
1.79804e+07
5.15573e+07
5.31417e+07
5.27955e+07
5.00894e+07
4.72765e+07
4.44511e+07
4.25528e+07
4.06837e+07
3.92417e+07
3.75671e+07
3.60476e+07
3.41599e+07
3.2363e+07
3.03138e+07
2.86002e+07
2.68647e+07
2.55469e+07
2.42983e+07
2.33856e+07
2.24605e+07
2.15939e+07
2.06632e+07
1.97467e+07
1.87938e+07
1.79567e+07
1.72081e+07
1.65143e+07
1.59079e+07
1.54412e+07
1.50351e+07
1.47262e+07
1.46082e+07
1.44175e+07
1.43368e+07
1.42842e+07
1.41815e+07
1.39848e+07
1.41272e+07
1.41679e+07
1.41941e+07
1.42551e+07
1.42673e+07
1.41741e+07
1.41691e+07
1.42297e+07
1.43996e+07
1.45385e+07
1.4715e+07
1.47329e+07
1.46515e+07
1.45989e+07
1.46463e+07
1.47275e+07
1.48085e+07
1.4884e+07
1.4976e+07
1.5015e+07
1.516e+07
1.52936e+07
1.54436e+07
1.55161e+07
1.56562e+07
1.58944e+07
1.57725e+07
1.59314e+07
1.57806e+07
1.57329e+07
1.57266e+07
1.57769e+07
1.57989e+07
1.59416e+07
1.59493e+07
1.59722e+07
1.58729e+07
1.59519e+07
1.58643e+07
1.58196e+07
1.57991e+07
1.57971e+07
1.58011e+07
1.58533e+07
1.58821e+07
1.59765e+07
1.60435e+07
1.61492e+07
1.62334e+07
1.63529e+07
1.64608e+07
1.65642e+07
1.66581e+07
1.67305e+07
1.68132e+07
1.68586e+07
1.69377e+07
1.69792e+07
1.70531e+07
1.70817e+07
1.71451e+07
1.71691e+07
1.72847e+07
4.60289e+07
4.53575e+07
4.62914e+07
4.53985e+07
4.28587e+07
4.02421e+07
3.8377e+07
3.6677e+07
3.54268e+07
3.41667e+07
3.31401e+07
3.17413e+07
3.02247e+07
2.83999e+07
2.6755e+07
2.51855e+07
2.39908e+07
2.29011e+07
2.20536e+07
2.11944e+07
2.03968e+07
1.96554e+07
1.89242e+07
1.82456e+07
1.75331e+07
1.69721e+07
1.62264e+07
1.57447e+07
1.51931e+07
1.48384e+07
1.45672e+07
1.43958e+07
1.42571e+07
1.41628e+07
1.40668e+07
1.38934e+07
1.38822e+07
1.39556e+07
1.40066e+07
1.38928e+07
1.38972e+07
1.39539e+07
1.38862e+07
1.39511e+07
1.38475e+07
1.38173e+07
1.38776e+07
1.39048e+07
1.39109e+07
1.39438e+07
1.4038e+07
1.42394e+07
1.44436e+07
1.46659e+07
1.48719e+07
1.49798e+07
1.51344e+07
1.52069e+07
1.53115e+07
1.53732e+07
1.54618e+07
1.54899e+07
1.56135e+07
1.56691e+07
1.58584e+07
1.57083e+07
1.58077e+07
1.57199e+07
1.57041e+07
1.57283e+07
1.58607e+07
1.58671e+07
1.5813e+07
1.59551e+07
1.59404e+07
1.59254e+07
1.57253e+07
1.57488e+07
1.56514e+07
1.56244e+07
1.55792e+07
1.5683e+07
1.5571e+07
1.56053e+07
1.55346e+07
1.55194e+07
1.55603e+07
1.56527e+07
1.57248e+07
1.58135e+07
1.58646e+07
1.59393e+07
1.59811e+07
1.60487e+07
1.60805e+07
1.61436e+07
1.61704e+07
1.62339e+07
1.6267e+07
1.62962e+07
4.12243e+07
4.09699e+07
4.01685e+07
4.04477e+07
3.95312e+07
3.78885e+07
3.53064e+07
3.26877e+07
3.17374e+07
3.10806e+07
3.02353e+07
2.90517e+07
2.79475e+07
2.65838e+07
2.55746e+07
2.44126e+07
2.35284e+07
2.2605e+07
2.17641e+07
2.09223e+07
2.00949e+07
1.93739e+07
1.87159e+07
1.80402e+07
1.7372e+07
1.66544e+07
1.59651e+07
1.53431e+07
1.48049e+07
1.44043e+07
1.41434e+07
1.39883e+07
1.38783e+07
1.38485e+07
1.3816e+07
1.37828e+07
1.38397e+07
1.36679e+07
1.36246e+07
1.34172e+07
1.33093e+07
1.32775e+07
1.32241e+07
1.3273e+07
1.30466e+07
1.29569e+07
1.2934e+07
1.28813e+07
1.28613e+07
1.28148e+07
1.29308e+07
1.31609e+07
1.34727e+07
1.37938e+07
1.4106e+07
1.43888e+07
1.4591e+07
1.47723e+07
1.49102e+07
1.50672e+07
1.51842e+07
1.52961e+07
1.5365e+07
1.54024e+07
1.54613e+07
1.55008e+07
1.5531e+07
1.56091e+07
1.56684e+07
1.57508e+07
1.58737e+07
1.60982e+07
1.62294e+07
1.62818e+07
1.63272e+07
1.63349e+07
1.64835e+07
1.64889e+07
1.65089e+07
1.6491e+07
1.66158e+07
1.65547e+07
1.65121e+07
1.60026e+07
1.59516e+07
1.58814e+07
1.58074e+07
1.55443e+07
1.55162e+07
1.5368e+07
1.53559e+07
1.53915e+07
1.54622e+07
1.55744e+07
1.56223e+07
1.56544e+07
1.56636e+07
1.57041e+07
1.56931e+07
1.57914e+07
3.84313e+07
3.78664e+07
3.56609e+07
3.52706e+07
3.55896e+07
3.45126e+07
3.29582e+07
3.17528e+07
3.06026e+07
2.95451e+07
2.84831e+07
2.72103e+07
2.62346e+07
2.49159e+07
2.40749e+07
2.29491e+07
2.22035e+07
2.14314e+07
2.06111e+07
1.9885e+07
1.89869e+07
1.84161e+07
1.77783e+07
1.7089e+07
1.62688e+07
1.55735e+07
1.495e+07
1.43705e+07
1.39905e+07
1.36437e+07
1.34766e+07
1.33663e+07
1.32967e+07
1.33041e+07
1.3218e+07
1.31903e+07
1.31028e+07
1.30052e+07
1.27052e+07
1.262e+07
1.2621e+07
1.25441e+07
1.24747e+07
1.21723e+07
1.20108e+07
1.1959e+07
1.19543e+07
1.18808e+07
1.1824e+07
1.17609e+07
1.16911e+07
1.17505e+07
1.19269e+07
1.22213e+07
1.25622e+07
1.29542e+07
1.34147e+07
1.38373e+07
1.42952e+07
1.46791e+07
1.49984e+07
1.52611e+07
1.54552e+07
1.55803e+07
1.56694e+07
1.57465e+07
1.57787e+07
1.58199e+07
1.58963e+07
1.59668e+07
1.61126e+07
1.6254e+07
1.64018e+07
1.65188e+07
1.65972e+07
1.66784e+07
1.6753e+07
1.68273e+07
1.68487e+07
1.69388e+07
1.69716e+07
1.67291e+07
1.67622e+07
1.6498e+07
1.65609e+07
1.65157e+07
1.64979e+07
1.6213e+07
1.59498e+07
1.57291e+07
1.55215e+07
1.5462e+07
1.54008e+07
1.54279e+07
1.54383e+07
1.54612e+07
1.54672e+07
1.55072e+07
1.54988e+07
1.55834e+07
3.59033e+07
3.55386e+07
3.20435e+07
2.9643e+07
2.9218e+07
2.99766e+07
3.03273e+07
2.95485e+07
2.859e+07
2.75476e+07
2.65443e+07
2.55368e+07
2.45625e+07
2.36431e+07
2.28861e+07
2.21299e+07
2.15966e+07
2.08414e+07
2.00064e+07
1.90717e+07
1.82344e+07
1.74623e+07
1.68711e+07
1.61817e+07
1.56338e+07
1.51482e+07
1.46814e+07
1.41996e+07
1.39227e+07
1.36386e+07
1.34757e+07
1.32459e+07
1.30834e+07
1.28312e+07
1.266e+07
1.2604e+07
1.25543e+07
1.24658e+07
1.22492e+07
1.23196e+07
1.23028e+07
1.21525e+07
1.20124e+07
1.15953e+07
1.15278e+07
1.14771e+07
1.14737e+07
1.14166e+07
1.13926e+07
1.1377e+07
1.13039e+07
1.12318e+07
1.12808e+07
1.15143e+07
1.18977e+07
1.23189e+07
1.28679e+07
1.3471e+07
1.41551e+07
1.47613e+07
1.53097e+07
1.57506e+07
1.60567e+07
1.63005e+07
1.64245e+07
1.64867e+07
1.65398e+07
1.66871e+07
1.66205e+07
1.66164e+07
1.66438e+07
1.67446e+07
1.68128e+07
1.6934e+07
1.70149e+07
1.70957e+07
1.70912e+07
1.72365e+07
1.72527e+07
1.72479e+07
1.72199e+07
1.72199e+07
1.72546e+07
1.72121e+07
1.71538e+07
1.6922e+07
1.69418e+07
1.67802e+07
1.64917e+07
1.61041e+07
1.58821e+07
1.56118e+07
1.54425e+07
1.5299e+07
1.52659e+07
1.52602e+07
1.52529e+07
1.52918e+07
1.53136e+07
1.53577e+07
3.29479e+07
3.259e+07
3.02864e+07
2.91628e+07
2.80173e+07
2.62278e+07
2.59885e+07
2.68343e+07
2.65818e+07
2.57953e+07
2.49089e+07
2.41586e+07
2.33516e+07
2.27528e+07
2.21384e+07
2.16079e+07
2.1177e+07
2.04221e+07
1.96976e+07
1.87206e+07
1.79892e+07
1.71214e+07
1.65742e+07
1.58694e+07
1.54709e+07
1.49872e+07
1.47004e+07
1.44537e+07
1.42173e+07
1.40946e+07
1.39839e+07
1.38434e+07
1.37465e+07
1.36899e+07
1.34814e+07
1.33693e+07
1.33196e+07
1.28444e+07
1.26129e+07
1.25374e+07
1.23936e+07
1.21128e+07
1.18861e+07
1.16378e+07
1.16923e+07
1.17328e+07
1.16314e+07
1.168e+07
1.17106e+07
1.18046e+07
1.17522e+07
1.18819e+07
1.19208e+07
1.17919e+07
1.19312e+07
1.24468e+07
1.30505e+07
1.36814e+07
1.43372e+07
1.49171e+07
1.5505e+07
1.59704e+07
1.62945e+07
1.64984e+07
1.67267e+07
1.68959e+07
1.70021e+07
1.70647e+07
1.70737e+07
1.70854e+07
1.69674e+07
1.70389e+07
1.69466e+07
1.69456e+07
1.70139e+07
1.70791e+07
1.71775e+07
1.72167e+07
1.72994e+07
1.73398e+07
1.73342e+07
1.73644e+07
1.73894e+07
1.73693e+07
1.74519e+07
1.73757e+07
1.72182e+07
1.68925e+07
1.66171e+07
1.62611e+07
1.59207e+07
1.59264e+07
1.58485e+07
1.57489e+07
1.54925e+07
1.52097e+07
1.51883e+07
1.5029e+07
1.50746e+07
1.50723e+07
3.05671e+07
3.02078e+07
2.89284e+07
2.74767e+07
2.6331e+07
2.58097e+07
2.46038e+07
2.46906e+07
2.49949e+07
2.45179e+07
2.3614e+07
2.27953e+07
2.2054e+07
2.13377e+07
2.08175e+07
2.04252e+07
2.02729e+07
1.98384e+07
1.9402e+07
1.85887e+07
1.78715e+07
1.70915e+07
1.64111e+07
1.57536e+07
1.52853e+07
1.47703e+07
1.44681e+07
1.4161e+07
1.39196e+07
1.38075e+07
1.36442e+07
1.36216e+07
1.3532e+07
1.35355e+07
1.34601e+07
1.34699e+07
1.33016e+07
1.32038e+07
1.30884e+07
1.30311e+07
1.30736e+07
1.30623e+07
1.30264e+07
1.28651e+07
1.29969e+07
1.29796e+07
1.28249e+07
1.29597e+07
1.29059e+07
1.3048e+07
1.33273e+07
1.34384e+07
1.35676e+07
1.34614e+07
1.32827e+07
1.33318e+07
1.34362e+07
1.38622e+07
1.43379e+07
1.47774e+07
1.52511e+07
1.55934e+07
1.59469e+07
1.62018e+07
1.65067e+07
1.66604e+07
1.68634e+07
1.68654e+07
1.68528e+07
1.68225e+07
1.6908e+07
1.691e+07
1.69261e+07
1.69481e+07
1.68528e+07
1.68081e+07
1.68106e+07
1.68877e+07
1.69578e+07
1.70258e+07
1.71002e+07
1.7184e+07
1.72508e+07
1.73803e+07
1.74342e+07
1.74892e+07
1.75828e+07
1.7571e+07
1.74802e+07
1.75706e+07
1.74368e+07
1.71906e+07
1.67614e+07
1.6692e+07
1.65026e+07
1.61844e+07
1.60707e+07
1.59313e+07
1.58392e+07
1.58647e+07
2.83818e+07
2.84642e+07
2.80889e+07
2.54371e+07
2.44979e+07
2.42603e+07
2.37397e+07
2.25962e+07
2.24304e+07
2.2808e+07
2.28544e+07
2.22016e+07
2.1461e+07
2.05154e+07
1.98971e+07
1.94705e+07
1.93299e+07
1.90725e+07
1.88344e+07
1.84109e+07
1.78303e+07
1.72767e+07
1.66615e+07
1.61384e+07
1.55507e+07
1.50143e+07
1.45842e+07
1.42009e+07
1.39665e+07
1.37961e+07
1.36934e+07
1.36785e+07
1.36259e+07
1.36732e+07
1.36963e+07
1.37556e+07
1.37198e+07
1.38658e+07
1.38282e+07
1.38675e+07
1.40246e+07
1.39796e+07
1.3962e+07
1.39887e+07
1.42593e+07
1.43074e+07
1.4443e+07
1.45704e+07
1.46508e+07
1.47635e+07
1.49375e+07
1.52185e+07
1.51506e+07
1.52759e+07
1.51862e+07
1.51416e+07
1.47791e+07
1.48445e+07
1.46705e+07
1.47673e+07
1.49964e+07
1.53413e+07
1.57188e+07
1.61375e+07
1.65533e+07
1.6911e+07
1.73287e+07
1.76413e+07
1.77222e+07
1.75843e+07
1.75171e+07
1.74882e+07
1.74102e+07
1.73365e+07
1.71891e+07
1.71637e+07
1.72732e+07
1.73676e+07
1.75137e+07
1.75777e+07
1.76692e+07
1.77154e+07
1.77844e+07
1.78661e+07
1.79479e+07
1.80479e+07
1.8124e+07
1.81574e+07
1.82493e+07
1.82623e+07
1.82688e+07
1.82621e+07
1.81966e+07
1.81552e+07
1.81136e+07
1.81232e+07
1.8047e+07
1.80648e+07
1.79996e+07
1.80778e+07
2.53271e+07
2.61223e+07
2.55421e+07
2.41133e+07
2.35641e+07
2.35608e+07
2.24005e+07
2.15876e+07
2.09065e+07
2.01306e+07
1.98816e+07
1.98145e+07
2.02055e+07
1.96532e+07
1.89129e+07
1.84178e+07
1.81816e+07
1.80066e+07
1.79459e+07
1.78463e+07
1.76383e+07
1.7402e+07
1.70062e+07
1.66126e+07
1.60845e+07
1.57318e+07
1.52681e+07
1.49529e+07
1.46386e+07
1.45061e+07
1.44019e+07
1.43288e+07
1.43633e+07
1.45179e+07
1.4623e+07
1.47077e+07
1.48524e+07
1.47713e+07
1.49757e+07
1.51118e+07
1.52086e+07
1.5402e+07
1.53382e+07
1.55414e+07
1.55697e+07
1.55412e+07
1.57331e+07
1.57243e+07
1.58378e+07
1.59828e+07
1.62422e+07
1.63524e+07
1.65122e+07
1.65989e+07
1.66317e+07
1.64568e+07
1.63406e+07
1.63162e+07
1.59473e+07
1.5984e+07
1.58815e+07
1.60831e+07
1.64303e+07
1.67274e+07
1.71984e+07
1.75949e+07
1.79649e+07
1.83241e+07
1.84881e+07
1.87576e+07
1.868e+07
1.87207e+07
1.8604e+07
1.83564e+07
1.81247e+07
1.80927e+07
1.79284e+07
1.78621e+07
1.782e+07
1.78866e+07
1.79717e+07
1.80773e+07
1.81147e+07
1.81554e+07
1.82423e+07
1.83744e+07
1.84967e+07
1.85813e+07
1.86795e+07
1.87259e+07
1.88073e+07
1.88013e+07
1.88586e+07
1.88237e+07
1.88159e+07
1.88215e+07
1.88296e+07
1.88569e+07
1.88832e+07
1.89173e+07
2.32928e+07
2.43361e+07
2.38882e+07
2.42968e+07
2.36925e+07
2.34248e+07
2.2762e+07
2.08664e+07
1.98677e+07
1.9436e+07
1.87566e+07
1.78725e+07
1.76761e+07
1.78072e+07
1.77963e+07
1.76745e+07
1.73665e+07
1.69863e+07
1.69037e+07
1.65158e+07
1.62927e+07
1.5881e+07
1.57168e+07
1.53141e+07
1.52963e+07
1.55967e+07
1.57644e+07
1.56791e+07
1.55937e+07
1.55074e+07
1.5387e+07
1.53459e+07
1.52484e+07
1.52781e+07
1.53111e+07
1.52972e+07
1.53086e+07
1.53279e+07
1.56253e+07
1.58612e+07
1.59492e+07
1.60604e+07
1.61013e+07
1.63315e+07
1.64212e+07
1.66092e+07
1.69188e+07
1.69692e+07
1.71047e+07
1.7415e+07
1.76883e+07
1.77205e+07
1.80788e+07
1.80241e+07
1.80825e+07
1.80647e+07
1.79781e+07
1.81065e+07
1.79782e+07
1.79025e+07
1.76076e+07
1.75599e+07
1.73865e+07
1.72966e+07
1.74994e+07
1.78359e+07
1.82159e+07
1.84993e+07
1.87074e+07
1.89328e+07
1.89858e+07
1.90248e+07
1.90848e+07
1.89201e+07
1.86618e+07
1.84584e+07
1.84194e+07
1.83357e+07
1.81931e+07
1.82184e+07
1.82379e+07
1.83348e+07
1.83915e+07
1.85028e+07
1.86039e+07
1.87237e+07
1.88306e+07
1.89117e+07
1.89692e+07
1.9021e+07
1.90506e+07
1.90663e+07
1.90776e+07
1.90842e+07
1.90859e+07
1.90955e+07
1.91049e+07
1.91226e+07
1.91275e+07
1.9153e+07
2.18389e+07
2.1918e+07
2.22747e+07
2.26359e+07
2.22566e+07
2.23726e+07
2.12514e+07
2.11047e+07
2.08714e+07
1.98014e+07
1.89551e+07