/*--------------------------------*- C++ -*----------------------------------*\
  =========                 |
  \\      /  F ield         | OpenFOAM: The Open Source CFD Toolbox
   \\    /   O peration     | Website:  https://openfoam.org
    \\  /    A nd           | Version:  8
     \\/     M anipulation  |
\*---------------------------------------------------------------------------*/
FoamFile
{
    version     2.0;
    format      ascii;
    class       volScalarField;
    location    "20.000098150058701";
    object      N;
}
// * * * * * * * * * * * * * * * * * * * * * * * * * * * * * * * * * * * * * //

dimensions      [0 -3 0 0 0 0 0];

internalField   nonuniform List<scalar> 
6800
(
6.92597e+06
6.8458e+06
6.86938e+06
7.02968e+06
7.35221e+06
7.33322e+06
7.17823e+06
6.71832e+06
5.59627e+06
4.40029e+06
6.92122e+06
6.78853e+06
6.92827e+06
7.41921e+06
7.42689e+06
7.25625e+06
6.5925e+06
5.15403e+06
3.26148e+06
2.50284e+06
6.93151e+06
6.76075e+06
7.20816e+06
7.57676e+06
7.42593e+06
6.63514e+06
4.67101e+06
2.99686e+06
2.26541e+06
1.93541e+06
6.8296e+06
6.73505e+06
7.63043e+06
7.62645e+06
6.89367e+06
4.6806e+06
2.92843e+06
2.24384e+06
1.88926e+06
1.71586e+06
5.25514e+06
6.77288e+06
7.96797e+06
7.54327e+06
5.26539e+06
3.08026e+06
2.30399e+06
1.93998e+06
1.69142e+06
1.59769e+06
5.23619e+06
8.18218e+06
8.0925e+06
6.48785e+06
3.48051e+06
2.48681e+06
2.01078e+06
1.68802e+06
1.55687e+06
1.54044e+06
5.2514e+06
8.67491e+06
7.913e+06
4.68095e+06
2.8881e+06
2.1633e+06
1.722e+06
1.55353e+06
1.50878e+06
1.5152e+06
5.22098e+06
9.4181e+06
6.96025e+06
3.77546e+06
2.28442e+06
1.86116e+06
1.60513e+06
1.48309e+06
1.46136e+06
1.46317e+06
5.17849e+06
9.84039e+06
5.90095e+06
3.11545e+06
2.07404e+06
1.76414e+06
1.48655e+06
1.41136e+06
1.41808e+06
1.42255e+06
5.13161e+06
9.99076e+06
4.9937e+06
2.70813e+06
1.80668e+06
1.56628e+06
1.40821e+06
1.35673e+06
1.35248e+06
1.35115e+06
6.97846e+06
6.97479e+06
6.9693e+06
6.96663e+06
6.96542e+06
6.96452e+06
6.96411e+06
6.96411e+06
6.96511e+06
6.96539e+06
6.97813e+06
6.97378e+06
6.96954e+06
6.96793e+06
6.96766e+06
6.96924e+06
6.9704e+06
6.97215e+06
6.97442e+06
6.97625e+06
6.97683e+06
6.97354e+06
6.971e+06
6.97076e+06
6.97457e+06
6.9769e+06
6.97822e+06
6.9801e+06
6.98188e+06
6.98366e+06
6.97457e+06
6.9733e+06
6.9727e+06
6.97601e+06
6.97935e+06
6.98063e+06
6.98156e+06
6.98271e+06
6.98455e+06
6.98746e+06
6.97256e+06
6.97309e+06
6.97519e+06
6.97848e+06
6.98061e+06
6.98166e+06
6.98207e+06
6.98266e+06
6.98518e+06
6.99612e+06
6.97083e+06
6.97279e+06
6.97567e+06
6.97968e+06
6.9825e+06
6.98275e+06
6.98301e+06
6.9835e+06
6.99573e+06
7.01942e+06
6.96929e+06
6.97236e+06
6.97594e+06
6.98069e+06
6.98267e+06
6.97997e+06
6.98777e+06
6.99387e+06
7.06259e+06
7.03722e+06
6.96675e+06
6.97178e+06
6.97673e+06
6.974e+06
6.96616e+06
6.97407e+06
7.01894e+06
7.09253e+06
7.11295e+06
7.00214e+06
6.96412e+06
6.97131e+06
6.96227e+06
6.93421e+06
6.96044e+06
7.03857e+06
7.19356e+06
7.17767e+06
7.12679e+06
6.74334e+06
6.9526e+06
6.96715e+06
6.88704e+06
6.92227e+06
7.06825e+06
7.27337e+06
7.25418e+06
7.15184e+06
6.84828e+06
5.87472e+06
6.96616e+06
6.9676e+06
6.97118e+06
6.97387e+06
6.97833e+06
6.98201e+06
6.98725e+06
6.99152e+06
6.9973e+06
7.00178e+06
7.00795e+06
7.01222e+06
7.01879e+06
7.02278e+06
7.02907e+06
7.03303e+06
7.03705e+06
7.0423e+06
7.04606e+06
7.05044e+06
7.05308e+06
7.05623e+06
7.0584e+06
7.06006e+06
7.06191e+06
7.06259e+06
7.064e+06
7.06459e+06
7.06433e+06
7.06446e+06
7.06429e+06
7.06351e+06
7.0625e+06
7.06205e+06
7.06008e+06
7.05959e+06
7.05874e+06
7.05829e+06
7.05762e+06
7.05951e+06
7.058e+06
7.05902e+06
7.05919e+06
7.05852e+06
7.05776e+06
7.05686e+06
7.05498e+06
7.05443e+06
7.0547e+06
7.05419e+06
7.05237e+06
7.04971e+06
7.04666e+06
7.04331e+06
7.03997e+06
7.03661e+06
7.03353e+06
7.03056e+06
7.02804e+06
7.02568e+06
7.02383e+06
7.02218e+06
7.02092e+06
7.01998e+06
7.01917e+06
7.01876e+06
7.0183e+06
7.01809e+06
7.01789e+06
7.01777e+06
7.01771e+06
7.01766e+06
7.01759e+06
7.01755e+06
7.01758e+06
7.01764e+06
7.01786e+06
7.01821e+06
7.01876e+06
7.01918e+06
7.01977e+06
7.02018e+06
7.02082e+06
7.02131e+06
7.02223e+06
7.02289e+06
7.02422e+06
7.02509e+06
7.02688e+06
7.02798e+06
7.03025e+06
7.03159e+06
7.03435e+06
7.03591e+06
7.03917e+06
7.0409e+06
7.04465e+06
7.04635e+06
7.05062e+06
7.05191e+06
6.9792e+06
6.98041e+06
6.98488e+06
6.987e+06
6.99168e+06
6.99418e+06
6.9993e+06
7.00206e+06
7.00713e+06
7.01006e+06
7.01498e+06
7.01757e+06
7.02136e+06
7.02472e+06
7.02815e+06
7.03204e+06
7.0335e+06
7.03641e+06
7.0373e+06
7.0373e+06
7.03694e+06
7.03555e+06
7.0338e+06
7.03034e+06
7.02731e+06
7.02322e+06
7.01989e+06
7.01524e+06
7.01217e+06
7.00662e+06
7.00283e+06
6.99698e+06
6.98875e+06
6.98447e+06
6.97687e+06
6.97225e+06
6.96671e+06
6.95784e+06
6.95558e+06
6.95465e+06
6.95719e+06
6.95574e+06
6.95149e+06
6.94613e+06
6.9399e+06
6.93294e+06
6.92566e+06
6.9177e+06
6.90979e+06
6.90134e+06
6.89331e+06
6.88494e+06
6.87719e+06
6.86935e+06
6.86219e+06
6.8552e+06
6.84886e+06
6.84295e+06
6.83758e+06
6.83286e+06
6.82857e+06
6.82498e+06
6.82179e+06
6.81915e+06
6.81696e+06
6.81506e+06
6.81354e+06
6.81234e+06
6.81101e+06
6.81036e+06
6.80924e+06
6.80873e+06
6.80755e+06
6.80672e+06
6.80541e+06
6.80434e+06
6.80314e+06
6.80188e+06
6.80111e+06
6.80022e+06
6.79863e+06
6.7987e+06
6.7987e+06
6.79875e+06
6.798e+06
6.79776e+06
6.79744e+06
6.79732e+06
6.79714e+06
6.79777e+06
6.79763e+06
6.79796e+06
6.79978e+06
6.80066e+06
6.80163e+06
6.8034e+06
6.80423e+06
6.80597e+06
6.80629e+06
6.80647e+06
6.98639e+06
6.98904e+06
6.9944e+06
6.99705e+06
7.00197e+06
7.00453e+06
7.00849e+06
7.01132e+06
7.01436e+06
7.01599e+06
7.01875e+06
7.02099e+06
7.02265e+06
7.02504e+06
7.02603e+06
7.02609e+06
7.02504e+06
7.02424e+06
7.02197e+06
7.0183e+06
7.0128e+06
7.00535e+06
6.99746e+06
6.98716e+06
6.9774e+06
6.96531e+06
6.9544e+06
6.94189e+06
6.93078e+06
6.91862e+06
6.90801e+06
6.89603e+06
6.886e+06
6.87375e+06
6.86267e+06
6.8499e+06
6.83747e+06
6.8242e+06
6.8104e+06
6.79602e+06
6.78099e+06
6.76556e+06
6.74962e+06
6.73337e+06
6.71681e+06
6.70025e+06
6.68353e+06
6.66732e+06
6.65095e+06
6.63544e+06
6.61977e+06
6.60496e+06
6.59024e+06
6.57604e+06
6.56235e+06
6.54883e+06
6.53623e+06
6.5236e+06
6.51222e+06
6.5008e+06
6.49083e+06
6.48086e+06
6.47255e+06
6.46411e+06
6.45757e+06
6.45063e+06
6.44572e+06
6.4401e+06
6.43643e+06
6.43185e+06
6.42898e+06
6.42502e+06
6.42257e+06
6.4189e+06
6.41658e+06
6.41302e+06
6.41069e+06
6.40721e+06
6.4049e+06
6.40153e+06
6.39933e+06
6.39615e+06
6.39409e+06
6.39118e+06
6.38939e+06
6.38691e+06
6.38545e+06
6.38339e+06
6.38224e+06
6.38052e+06
6.37963e+06
6.37824e+06
6.37755e+06
6.37645e+06
6.37591e+06
6.375e+06
6.3745e+06
6.37384e+06
6.37289e+06
6.37146e+06
6.99133e+06
6.99753e+06
7.00322e+06
7.00709e+06
7.00949e+06
7.01265e+06
7.01408e+06
7.01574e+06
7.01752e+06
7.01782e+06
7.01925e+06
7.01866e+06
7.01721e+06
7.01567e+06
7.01229e+06
7.0098e+06
7.00449e+06
6.99994e+06
6.99092e+06
6.98078e+06
6.96667e+06
6.95112e+06
6.93202e+06
6.91121e+06
6.88813e+06
6.86339e+06
6.83826e+06
6.81165e+06
6.78608e+06
6.75874e+06
6.73359e+06
6.70577e+06
6.68091e+06
6.65222e+06
6.62691e+06
6.59651e+06
6.56978e+06
6.53721e+06
6.50865e+06
6.47422e+06
6.44447e+06
6.4094e+06
6.37942e+06
6.34502e+06
6.31592e+06
6.28303e+06
6.25563e+06
6.2249e+06
6.19962e+06
6.1712e+06
6.14783e+06
6.12141e+06
6.09946e+06
6.07459e+06
6.05358e+06
6.02995e+06
6.00967e+06
5.98728e+06
5.96785e+06
5.94699e+06
5.92876e+06
5.9099e+06
5.89332e+06
5.87686e+06
5.86233e+06
5.84845e+06
5.83612e+06
5.82477e+06
5.81443e+06
5.80542e+06
5.79647e+06
5.78953e+06
5.78144e+06
5.77591e+06
5.76883e+06
5.76388e+06
5.75763e+06
5.75392e+06
5.7482e+06
5.74372e+06
5.73911e+06
5.73385e+06
5.72726e+06
5.72203e+06
5.71795e+06
5.71402e+06
5.7107e+06
5.70786e+06
5.7009e+06
5.69471e+06
5.69051e+06
5.68517e+06
5.68233e+06
5.68318e+06
5.67676e+06
5.67564e+06
5.67381e+06
5.674e+06
5.67378e+06
5.67373e+06
6.99706e+06
7.00011e+06
7.00395e+06
7.00797e+06
7.00968e+06
7.0134e+06
7.01334e+06
7.01277e+06
7.01025e+06
7.00727e+06
7.00316e+06
7.00025e+06
6.99397e+06
6.98988e+06
6.9817e+06
6.97532e+06
6.96267e+06
6.95032e+06
6.93093e+06
6.90888e+06
6.88152e+06
6.84922e+06
6.81262e+06
6.77109e+06
6.7263e+06
6.67892e+06
6.6291e+06
6.57972e+06
6.52827e+06
6.47874e+06
6.42783e+06
6.37805e+06
6.32737e+06
6.2764e+06
6.22446e+06
6.17109e+06
6.11718e+06
6.06121e+06
6.00576e+06
5.94792e+06
5.89288e+06
5.83537e+06
5.78224e+06
5.72734e+06
5.67771e+06
5.62669e+06
5.58151e+06
5.53529e+06
5.49487e+06
5.4532e+06
5.41674e+06
5.37849e+06
5.34476e+06
5.30879e+06
5.27675e+06
5.24231e+06
5.21141e+06
5.17832e+06
5.14858e+06
5.11714e+06
5.08896e+06
5.05966e+06
5.03356e+06
5.0068e+06
4.98314e+06
4.95908e+06
4.93786e+06
4.91637e+06
4.89717e+06
4.87805e+06
4.86007e+06
4.84313e+06
4.82587e+06
4.81054e+06
4.79453e+06
4.77997e+06
4.76573e+06
4.75265e+06
4.73984e+06
4.72945e+06
4.71724e+06
4.70846e+06
4.69812e+06
4.6913e+06
4.68301e+06
4.67515e+06
4.66873e+06
4.66075e+06
4.65334e+06
4.64454e+06
4.63919e+06
4.63263e+06
4.62683e+06
4.62268e+06
4.61592e+06
4.61024e+06
4.60569e+06
4.59612e+06
4.59401e+06
4.59105e+06
7.01915e+06
7.01526e+06
7.01845e+06
7.01841e+06
7.01478e+06
7.00711e+06
7.00105e+06
6.99327e+06
6.98686e+06
6.97965e+06
6.97188e+06
6.96349e+06
6.95207e+06
6.94116e+06
6.92446e+06
6.90652e+06
6.8801e+06
6.85035e+06
6.81086e+06
6.76606e+06
6.71127e+06
6.64899e+06
6.57849e+06
6.50044e+06
6.41799e+06
6.33083e+06
6.24272e+06
6.1538e+06
6.0649e+06
5.97779e+06
5.89103e+06
5.80558e+06
5.72035e+06
5.63559e+06
5.54986e+06
5.4648e+06
5.37766e+06
5.292e+06
5.20472e+06
5.11957e+06
5.03639e+06
4.95485e+06
4.87747e+06
4.80259e+06
4.73285e+06
4.66547e+06
4.60392e+06
4.54489e+06
4.49139e+06
4.43864e+06
4.38931e+06
4.34026e+06
4.29437e+06
4.24804e+06
4.2047e+06
4.16036e+06
4.11896e+06
4.07644e+06
4.03706e+06
3.99672e+06
3.95975e+06
3.92222e+06
3.88811e+06
3.85393e+06
3.82296e+06
3.79228e+06
3.76438e+06
3.73691e+06
3.71166e+06
3.6869e+06
3.66364e+06
3.64111e+06
3.61922e+06
3.59888e+06
3.57787e+06
3.56021e+06
3.54e+06
3.52514e+06
3.50743e+06
3.4938e+06
3.48117e+06
3.46937e+06
3.45969e+06
3.44924e+06
3.44124e+06
3.43249e+06
3.42483e+06
3.41759e+06
3.40825e+06
3.40223e+06
3.39194e+06
3.3861e+06
3.37511e+06
3.37361e+06
3.36251e+06
3.36054e+06
3.35735e+06
3.3667e+06
3.36074e+06
3.3592e+06
7.02588e+06
7.01441e+06
7.00368e+06
6.99457e+06
6.98412e+06
6.97409e+06
6.96412e+06
6.95217e+06
6.94087e+06
6.92587e+06
6.90998e+06
6.88904e+06
6.86565e+06
6.83541e+06
6.79966e+06
6.75372e+06
6.70011e+06
6.63259e+06
6.5566e+06
6.46372e+06
6.36191e+06
6.24223e+06
6.11641e+06
5.97747e+06
5.8369e+06
5.69308e+06
5.54948e+06
5.4082e+06
5.26917e+06
5.13603e+06
5.00633e+06
4.88119e+06
4.76044e+06
4.64262e+06
4.5279e+06
4.4111e+06
4.29343e+06
4.18048e+06
4.06825e+06
3.9642e+06
3.86487e+06
3.77288e+06
3.6864e+06
3.60856e+06
3.53553e+06
3.47008e+06
3.40955e+06
3.35556e+06
3.30631e+06
3.26298e+06
3.22445e+06
3.18986e+06
3.15857e+06
3.12998e+06
3.10378e+06
3.07956e+06
3.0572e+06
3.03638e+06
3.01715e+06
2.9991e+06
2.98248e+06
2.96676e+06
2.95235e+06
2.93868e+06
2.92617e+06
2.91429e+06
2.90331e+06
2.89299e+06
2.88314e+06
2.87411e+06
2.86506e+06
2.85702e+06
2.84853e+06
2.84138e+06
2.83335e+06
2.82689e+06
2.81967e+06
2.81393e+06
2.8077e+06
2.80277e+06
2.79778e+06
2.79361e+06
2.78995e+06
2.78667e+06
2.78392e+06
2.7817e+06
2.7793e+06
2.77785e+06
2.77556e+06
2.77429e+06
2.77246e+06
2.77123e+06
2.76995e+06
2.76831e+06
2.76728e+06
2.76608e+06
2.76549e+06
2.76441e+06
2.76399e+06
2.76278e+06
6.98711e+06
6.9738e+06
6.956e+06
6.94265e+06
6.92319e+06
6.90779e+06
6.88511e+06
6.86229e+06
6.83323e+06
6.80014e+06
6.75943e+06
6.71178e+06
6.65357e+06
6.58446e+06
6.50043e+06
6.40161e+06
6.28675e+06
6.15287e+06
6.00638e+06
5.83356e+06
5.6529e+06
5.44632e+06
5.24679e+06
5.02679e+06
4.8317e+06
4.62172e+06
4.41887e+06
4.22393e+06
4.04698e+06
3.88379e+06
3.7378e+06
3.60444e+06
3.48509e+06
3.37594e+06
3.27812e+06
3.19497e+06
3.12321e+06
3.06245e+06
3.00858e+06
2.96259e+06
2.92235e+06
2.88733e+06
2.8566e+06
2.8301e+06
2.8068e+06
2.7867e+06
2.76882e+06
2.75393e+06
2.74088e+06
2.72941e+06
2.71935e+06
2.71067e+06
2.70322e+06
2.69678e+06
2.69131e+06
2.68696e+06
2.6832e+06
2.68027e+06
2.67774e+06
2.67571e+06
2.67399e+06
2.67243e+06
2.6712e+06
2.66977e+06
2.66885e+06
2.66744e+06
2.66661e+06
2.66532e+06
2.66441e+06
2.66325e+06
2.66231e+06
2.6611e+06
2.66019e+06
2.65923e+06
2.65774e+06
2.65746e+06
2.65686e+06
2.65708e+06
2.65718e+06
2.65727e+06
2.65743e+06
2.65758e+06
2.65746e+06
2.6582e+06
2.65839e+06
2.65813e+06
2.65846e+06
2.65861e+06
2.65874e+06
2.65905e+06
2.65916e+06
2.65963e+06
2.65965e+06
2.65982e+06
2.65986e+06
2.66035e+06
2.66018e+06
2.66115e+06
2.66134e+06
2.66169e+06
6.75575e+06
6.75816e+06
6.74719e+06
6.72665e+06
6.70012e+06
6.67138e+06
6.62987e+06
6.58099e+06
6.5168e+06
6.44092e+06
6.3464e+06
6.23414e+06
6.10052e+06
5.94619e+06
5.77056e+06
5.57773e+06
5.36541e+06
5.14296e+06
4.88615e+06
4.61675e+06
4.33987e+06
4.08012e+06
3.82767e+06
3.61253e+06
3.40837e+06
3.24838e+06
3.12458e+06
3.02635e+06
2.94959e+06
2.88684e+06
2.83757e+06
2.79601e+06
2.76286e+06
2.73454e+06
2.71091e+06
2.6903e+06
2.67277e+06
2.65744e+06
2.64422e+06
2.63293e+06
2.62328e+06
2.6151e+06
2.60798e+06
2.60231e+06
2.59746e+06
2.59398e+06
2.59106e+06
2.5896e+06
2.58896e+06
2.58785e+06
2.58811e+06
2.58921e+06
2.59141e+06
2.59421e+06
2.59732e+06
2.60068e+06
2.60409e+06
2.60769e+06
2.61116e+06
2.61479e+06
2.6181e+06
2.62132e+06
2.6242e+06
2.62681e+06
2.62925e+06
2.63132e+06
2.63343e+06
2.6351e+06
2.63697e+06
2.63834e+06
2.63999e+06
2.64114e+06
2.64263e+06
2.64367e+06
2.64504e+06
2.64604e+06
2.64738e+06
2.64846e+06
2.64979e+06
2.65102e+06
2.65234e+06
2.65364e+06
2.65494e+06
2.6562e+06
2.65743e+06
2.65858e+06
2.65976e+06
2.66082e+06
2.66196e+06
2.66299e+06
2.66406e+06
2.66523e+06
2.66619e+06
2.6675e+06
2.66846e+06
2.66986e+06
2.67077e+06
2.67213e+06
2.67303e+06
2.67481e+06
5.91178e+06
5.95772e+06
6.0022e+06
6.00858e+06
5.98613e+06
5.93593e+06
5.83916e+06
5.71548e+06
5.55215e+06
5.36949e+06
5.15145e+06
4.92308e+06
4.67378e+06
4.42477e+06
4.17458e+06
3.93011e+06
3.70072e+06
3.48038e+06
3.30267e+06
3.15465e+06
3.03549e+06
2.93474e+06
2.85394e+06
2.78551e+06
2.73077e+06
2.68508e+06
2.64825e+06
2.61846e+06
2.59486e+06
2.57594e+06
2.56165e+06
2.5501e+06
2.54168e+06
2.53462e+06
2.52962e+06
2.52558e+06
2.52387e+06
2.52173e+06
2.52162e+06
2.52267e+06
2.52364e+06
2.52514e+06
2.52706e+06
2.52999e+06
2.53316e+06
2.53714e+06
2.54182e+06
2.54698e+06
2.55322e+06
2.55979e+06
2.5676e+06
2.57542e+06
2.58422e+06
2.59277e+06
2.60185e+06
2.61004e+06
2.61876e+06
2.62646e+06
2.63438e+06
2.6414e+06
2.6483e+06
2.6548e+06
2.66099e+06
2.66679e+06
2.67249e+06
2.67748e+06
2.68277e+06
2.68711e+06
2.69208e+06
2.69609e+06
2.70083e+06
2.7047e+06
2.70934e+06
2.71317e+06
2.71777e+06
2.72165e+06
2.72619e+06
2.73015e+06
2.73456e+06
2.73853e+06
2.74242e+06
2.74608e+06
2.74936e+06
2.75247e+06
2.75521e+06
2.75766e+06
2.75997e+06
2.76211e+06
2.76434e+06
2.76635e+06
2.76865e+06
2.77054e+06
2.77285e+06
2.775e+06
2.77671e+06
2.77915e+06
2.78051e+06
2.78275e+06
2.78437e+06
2.78747e+06
3.13435e+06
3.23821e+06
3.31206e+06
3.34488e+06
3.36646e+06
3.36006e+06
3.34185e+06
3.30688e+06
3.25792e+06
3.2017e+06
3.13747e+06
3.07225e+06
3.00476e+06
2.94053e+06
2.87748e+06
2.81871e+06
2.76399e+06
2.71308e+06
2.66759e+06
2.62584e+06
2.58971e+06
2.55727e+06
2.53029e+06
2.50682e+06
2.48767e+06
2.4718e+06
2.45943e+06
2.45043e+06
2.44338e+06
2.43933e+06
2.43656e+06
2.43611e+06
2.43565e+06
2.43633e+06
2.43742e+06
2.43998e+06
2.44172e+06
2.44487e+06
2.44713e+06
2.45072e+06
2.45328e+06
2.45817e+06
2.46187e+06
2.46934e+06
2.47409e+06
2.48327e+06
2.48952e+06
2.49977e+06
2.50809e+06
2.51893e+06
2.52955e+06
2.54115e+06
2.55363e+06
2.56552e+06
2.57894e+06
2.59067e+06
2.60425e+06
2.61588e+06
2.62891e+06
2.64052e+06
2.65243e+06
2.66372e+06
2.67454e+06
2.68544e+06
2.69542e+06
2.70578e+06
2.71509e+06
2.72515e+06
2.7337e+06
2.74369e+06
2.75149e+06
2.76132e+06
2.7686e+06
2.77792e+06
2.78498e+06
2.79361e+06
2.80057e+06
2.80857e+06
2.81535e+06
2.8229e+06
2.82966e+06
2.83701e+06
2.84361e+06
2.85074e+06
2.85702e+06
2.86387e+06
2.86987e+06
2.8758e+06
2.88117e+06
2.88592e+06
2.89053e+06
2.89436e+06
2.89799e+06
2.90162e+06
2.9042e+06
2.90778e+06
2.9099e+06
2.91313e+06
2.9144e+06
2.92177e+06
2.32666e+06
2.37913e+06
2.43207e+06
2.46556e+06
2.49727e+06
2.51294e+06
2.52719e+06
2.52712e+06
2.52367e+06
2.51622e+06
2.50404e+06
2.4908e+06
2.47506e+06
2.45955e+06
2.44221e+06
2.4265e+06
2.411e+06
2.39751e+06
2.38581e+06
2.37617e+06
2.36849e+06
2.36285e+06
2.35875e+06
2.35631e+06
2.35463e+06
2.35454e+06
2.35499e+06
2.35653e+06
2.35804e+06
2.36129e+06
2.36357e+06
2.36755e+06
2.37012e+06
2.37407e+06
2.37641e+06
2.38089e+06
2.38382e+06
2.3891e+06
2.39281e+06
2.39985e+06
2.40484e+06
2.4136e+06
2.42011e+06
2.42977e+06
2.43809e+06
2.44822e+06
2.45752e+06
2.46848e+06
2.47879e+06
2.49081e+06
2.50182e+06
2.51465e+06
2.52565e+06
2.53887e+06
2.54974e+06
2.56258e+06
2.57367e+06
2.58565e+06
2.59681e+06
2.60819e+06
2.61868e+06
2.62981e+06
2.63976e+06
2.65026e+06
2.66076e+06
2.67017e+06
2.68155e+06
2.6908e+06
2.70189e+06
2.71238e+06
2.72238e+06
2.73449e+06
2.74396e+06
2.75701e+06
2.76706e+06
2.78046e+06
2.79176e+06
2.80506e+06
2.81791e+06
2.83087e+06
2.84475e+06
2.85738e+06
2.87234e+06
2.88483e+06
2.89978e+06
2.91245e+06
2.92687e+06
2.93903e+06
2.95215e+06
2.96393e+06
2.9748e+06
2.98609e+06
2.99461e+06
3.00534e+06
3.01205e+06
3.02166e+06
3.02716e+06
3.03608e+06
3.03969e+06
3.05139e+06
1.9595e+06
2.00422e+06
2.04501e+06
2.0802e+06
2.11097e+06
2.138e+06
2.16089e+06
2.18026e+06
2.19607e+06
2.20922e+06
2.21979e+06
2.22816e+06
2.2344e+06
2.23925e+06
2.24267e+06
2.24662e+06
2.24964e+06
2.2539e+06
2.25825e+06
2.26322e+06
2.26905e+06
2.27509e+06
2.28129e+06
2.28809e+06
2.29432e+06
2.30137e+06
2.30716e+06
2.31404e+06
2.31891e+06
2.32542e+06
2.32933e+06
2.33501e+06
2.33853e+06
2.34349e+06
2.34697e+06
2.35239e+06
2.3558e+06
2.36293e+06
2.36728e+06
2.37617e+06
2.38207e+06
2.39259e+06
2.39905e+06
2.41064e+06
2.41744e+06
2.42958e+06
2.43613e+06
2.44849e+06
2.45497e+06
2.4671e+06
2.47315e+06
2.48503e+06
2.49098e+06
2.50293e+06
2.50892e+06
2.52096e+06
2.52701e+06
2.5392e+06
2.54535e+06
2.55772e+06
2.56398e+06
2.57656e+06
2.58291e+06
2.59571e+06
2.60217e+06
2.61511e+06
2.62166e+06
2.63484e+06
2.64157e+06
2.65498e+06
2.66192e+06
2.6758e+06
2.68292e+06
2.69747e+06
2.70483e+06
2.7199e+06
2.72763e+06
2.74293e+06
2.75084e+06
2.76623e+06
2.77413e+06
2.78945e+06
2.7974e+06
2.81269e+06
2.82088e+06
2.83634e+06
2.84482e+06
2.8607e+06
2.86953e+06
2.88581e+06
2.89499e+06
2.91162e+06
2.92086e+06
2.93773e+06
2.94686e+06
2.964e+06
2.97293e+06
2.99057e+06
2.99824e+06
3.02156e+06
1.80914e+06
1.84951e+06
1.88684e+06
1.92136e+06
1.9539e+06
1.984e+06
2.01207e+06
2.03698e+06
2.05922e+06
2.07779e+06
2.09448e+06
2.10851e+06
2.12222e+06
2.13489e+06
2.14739e+06
2.16014e+06
2.17185e+06
2.18448e+06
2.1965e+06
2.20791e+06
2.22064e+06
2.23055e+06
2.24249e+06
2.25073e+06
2.26058e+06
2.26702e+06
2.27455e+06
2.27897e+06
2.28468e+06
2.28774e+06
2.29195e+06
2.29449e+06
2.29838e+06
2.30079e+06
2.3053e+06
2.30817e+06
2.31303e+06
2.3177e+06
2.32291e+06
2.32895e+06
2.33494e+06
2.34133e+06
2.34769e+06
2.35409e+06
2.36017e+06
2.36623e+06
2.37192e+06
2.37764e+06
2.38303e+06
2.3887e+06
2.3938e+06
2.3999e+06
2.40494e+06
2.4119e+06
2.41696e+06
2.4247e+06
2.43029e+06
2.43865e+06
2.44517e+06
2.45387e+06
2.46142e+06
2.47098e+06
2.47989e+06
2.49037e+06
2.50066e+06
2.51173e+06
2.52359e+06
2.53519e+06
2.54835e+06
2.56029e+06
2.57429e+06
2.58668e+06
2.60052e+06
2.61406e+06
2.62663e+06
2.64093e+06
2.65301e+06
2.6668e+06
2.67867e+06
2.69174e+06
2.70278e+06
2.71565e+06
2.72574e+06
2.73854e+06
2.74876e+06
2.76201e+06
2.77184e+06
2.78783e+06
2.79668e+06
2.81439e+06
2.82473e+06
2.84181e+06
2.85401e+06
2.87087e+06
2.88387e+06
2.90228e+06
2.91294e+06
2.93452e+06
2.94448e+06
2.96981e+06
1.72938e+06
1.76944e+06
1.80525e+06
1.83897e+06
1.87223e+06
1.90469e+06
1.93603e+06
1.96468e+06
1.98994e+06
2.01048e+06
2.02798e+06
2.04256e+06
2.05723e+06
2.07131e+06
2.08656e+06
2.10174e+06
2.11696e+06
2.13226e+06
2.14614e+06
2.16e+06
2.17164e+06
2.18233e+06
2.19097e+06
2.19807e+06
2.20342e+06
2.20779e+06
2.21082e+06
2.21377e+06
2.21608e+06
2.21895e+06
2.22129e+06
2.2254e+06
2.22824e+06
2.23314e+06
2.23716e+06
2.24209e+06
2.24607e+06
2.25145e+06
2.25468e+06
2.26019e+06
2.26285e+06
2.26776e+06
2.27044e+06
2.27534e+06
2.27808e+06
2.28319e+06
2.286e+06
2.29142e+06
2.29455e+06
2.30054e+06
2.30432e+06
2.3111e+06
2.31531e+06
2.323e+06
2.32733e+06
2.3355e+06
2.34017e+06
2.34847e+06
2.35385e+06
2.36262e+06
2.36898e+06
2.3787e+06
2.38621e+06
2.39683e+06
2.40543e+06
2.41659e+06
2.42596e+06
2.43781e+06
2.44718e+06
2.46033e+06
2.46928e+06
2.48381e+06
2.49292e+06
2.50814e+06
2.51843e+06
2.53351e+06
2.54518e+06
2.55982e+06
2.57222e+06
2.5863e+06
2.59898e+06
2.61248e+06
2.6255e+06
2.63815e+06
2.65263e+06
2.6638e+06
2.67963e+06
2.69086e+06
2.70518e+06
2.71922e+06
2.73171e+06
2.74724e+06
2.75877e+06
2.77566e+06
2.78651e+06
2.80582e+06
2.81558e+06
2.83494e+06
2.84493e+06
2.86783e+06
1.66042e+06
1.7019e+06
1.7394e+06
1.77221e+06
1.80499e+06
1.83584e+06
1.86587e+06
1.89249e+06
1.91761e+06
1.93913e+06
1.95845e+06
1.97472e+06
1.99014e+06
2.00383e+06
2.01863e+06
2.03228e+06
2.04745e+06
2.0609e+06
2.0746e+06
2.08591e+06
2.09624e+06
2.10383e+06
2.11018e+06
2.11442e+06
2.11802e+06
2.12068e+06
2.12372e+06
2.12644e+06
2.13059e+06
2.1343e+06
2.13955e+06
2.14463e+06
2.15018e+06
2.15525e+06
2.16089e+06
2.16451e+06
2.16891e+06
2.17204e+06
2.17478e+06
2.17826e+06
2.18034e+06
2.18423e+06
2.18678e+06
2.19171e+06
2.19506e+06
2.2012e+06
2.20488e+06
2.2122e+06
2.21641e+06
2.22434e+06
2.22939e+06
2.23775e+06
2.2443e+06
2.25336e+06
2.26089e+06
2.27039e+06
2.27784e+06
2.28696e+06
2.29416e+06
2.30353e+06
2.31095e+06
2.32049e+06
2.32886e+06
2.339e+06
2.34892e+06
2.35948e+06
2.37056e+06
2.38164e+06
2.39272e+06
2.40484e+06
2.41483e+06
2.42823e+06
2.43698e+06
2.45087e+06
2.45949e+06
2.47299e+06
2.482e+06
2.49516e+06
2.50418e+06
2.51768e+06
2.52612e+06
2.54039e+06
2.54887e+06
2.56311e+06
2.57292e+06
2.58632e+06
2.5977e+06
2.61134e+06
2.62324e+06
2.63818e+06
2.64961e+06
2.66625e+06
2.6774e+06
2.69534e+06
2.70524e+06
2.72459e+06
2.73446e+06
2.75344e+06
2.76288e+06
2.78406e+06
1.59488e+06
1.63452e+06
1.67152e+06
1.7033e+06
1.73288e+06
1.75982e+06
1.78664e+06
1.81149e+06
1.83553e+06
1.85767e+06
1.87761e+06
1.89562e+06
1.91139e+06
1.92622e+06
1.94052e+06
1.95424e+06
1.9681e+06
1.98052e+06
1.99192e+06
2.00123e+06
2.00816e+06
2.01359e+06
2.01727e+06
2.02076e+06
2.02386e+06
2.02789e+06
2.03191e+06
2.03716e+06
2.04232e+06
2.04843e+06
2.05387e+06
2.06018e+06
2.0647e+06
2.07006e+06
2.0735e+06
2.07719e+06
2.07944e+06
2.08302e+06
2.08516e+06
2.0897e+06
2.09254e+06
2.09861e+06
2.10229e+06
2.11023e+06
2.11479e+06
2.124e+06
2.129e+06
2.13827e+06
2.143e+06
2.15215e+06
2.15684e+06
2.16639e+06
2.17137e+06
2.18144e+06
2.18682e+06
2.19782e+06
2.2039e+06
2.21658e+06
2.22379e+06
2.23748e+06
2.24504e+06
2.25887e+06
2.26657e+06
2.28e+06
2.2874e+06
2.30062e+06
2.30782e+06
2.32071e+06
2.32787e+06
2.34052e+06
2.34749e+06
2.35996e+06
2.36658e+06
2.37909e+06
2.38549e+06
2.39818e+06
2.40459e+06
2.41749e+06
2.42413e+06
2.43739e+06
2.44448e+06
2.4582e+06
2.46564e+06
2.47991e+06
2.48758e+06
2.50239e+06
2.51024e+06
2.52555e+06
2.53347e+06
2.54919e+06
2.55716e+06
2.57319e+06
2.58129e+06
2.59751e+06
2.60574e+06
2.6222e+06
2.63053e+06
2.64744e+06
2.65476e+06
2.67777e+06
1.54103e+06
1.5766e+06
1.60873e+06
1.64014e+06
1.66511e+06
1.69057e+06
1.71447e+06
1.73814e+06
1.7616e+06
1.78417e+06
1.80501e+06
1.82306e+06
1.83783e+06
1.85168e+06
1.86342e+06
1.87655e+06
1.88792e+06
1.90016e+06
1.90975e+06
1.91915e+06
1.92603e+06
1.93371e+06
1.93986e+06
1.94753e+06
1.95382e+06
1.96191e+06
1.96792e+06
1.97599e+06
1.98174e+06
1.98935e+06
1.99469e+06
2.00145e+06
2.00545e+06
2.0111e+06
2.01414e+06
2.0191e+06
2.02198e+06
2.02758e+06
2.03077e+06
2.03729e+06
2.04105e+06
2.04909e+06
2.0536e+06
2.06307e+06
2.06826e+06
2.07822e+06
2.08357e+06
2.09353e+06
2.09869e+06
2.10889e+06
2.11427e+06
2.125e+06
2.13073e+06
2.14168e+06
2.14759e+06
2.15845e+06
2.16438e+06
2.1752e+06
2.18094e+06
2.1917e+06
2.19725e+06
2.20796e+06
2.2136e+06
2.22452e+06
2.23041e+06
2.2417e+06
2.24788e+06
2.26001e+06
2.26654e+06
2.27926e+06
2.28631e+06
2.29954e+06
2.30669e+06
2.32052e+06
2.328e+06
2.3422e+06
2.34991e+06
2.36459e+06
2.3725e+06
2.38762e+06
2.39547e+06
2.41094e+06
2.41873e+06
2.43434e+06
2.44221e+06
2.45799e+06
2.46601e+06
2.48196e+06
2.49006e+06
2.50602e+06
2.51413e+06
2.53005e+06
2.53817e+06
2.55402e+06
2.56211e+06
2.57793e+06
2.58595e+06
2.60198e+06
2.60891e+06
2.63067e+06
1.50302e+06
1.53351e+06
1.56199e+06
1.59199e+06
1.61629e+06
1.64132e+06
1.66158e+06
1.68342e+06
1.704e+06
1.72616e+06
1.74515e+06
1.76406e+06
1.78026e+06
1.79653e+06
1.81057e+06
1.82518e+06
1.83707e+06
1.84987e+06
1.85915e+06
1.86975e+06
1.87699e+06
1.88631e+06
1.89249e+06
1.90046e+06
1.90556e+06
1.91255e+06
1.9173e+06
1.92488e+06
1.93045e+06
1.93937e+06
1.94603e+06
1.95555e+06
1.96222e+06
1.9714e+06
1.97707e+06
1.98475e+06
1.98962e+06
1.99601e+06
1.99985e+06
2.00632e+06
2.01016e+06
2.01725e+06
2.02124e+06
2.02871e+06
2.03251e+06
2.03978e+06
2.04378e+06
2.051e+06
2.05539e+06
2.06329e+06
2.06865e+06
2.07784e+06
2.08443e+06
2.09478e+06
2.10212e+06
2.11298e+06
2.12033e+06
2.13105e+06
2.13808e+06
2.14851e+06
2.15489e+06
2.16475e+06
2.1705e+06
2.18009e+06
2.18569e+06
2.19569e+06
2.20125e+06
2.21239e+06
2.21843e+06
2.2307e+06
2.23757e+06
2.25116e+06
2.2587e+06
2.27283e+06
2.28078e+06
2.29525e+06
2.30342e+06
2.31797e+06
2.32615e+06
2.34095e+06
2.34906e+06
2.36362e+06
2.37152e+06
2.38543e+06
2.39289e+06
2.407e+06
2.41447e+06
2.42853e+06
2.43584e+06
2.44991e+06
2.45713e+06
2.47119e+06
2.47835e+06
2.49229e+06
2.49938e+06
2.51317e+06
2.52024e+06
2.53437e+06
2.54038e+06
2.56105e+06
1.47727e+06
1.5049e+06
1.52899e+06
1.55534e+06
1.57761e+06
1.6005e+06
1.61942e+06
1.64088e+06
1.65948e+06
1.67959e+06
1.69695e+06
1.71465e+06
1.73061e+06
1.74577e+06
1.76016e+06
1.77379e+06
1.78624e+06
1.79831e+06
1.80735e+06
1.81693e+06
1.82368e+06
1.83241e+06
1.83884e+06
1.84719e+06
1.85384e+06
1.863e+06
1.87081e+06
1.88081e+06
1.88974e+06
1.90002e+06
1.90903e+06
1.91829e+06
1.9261e+06
1.93388e+06
1.93909e+06
1.94455e+06
1.94803e+06
1.95162e+06
1.95331e+06
1.95673e+06
1.9587e+06
1.96274e+06
1.96523e+06
1.97025e+06
1.9735e+06
1.98065e+06
1.98592e+06
1.99459e+06
2.00154e+06
2.01149e+06
2.0199e+06
2.03133e+06
2.04143e+06
2.05436e+06
2.06566e+06
2.07936e+06
2.09077e+06
2.10406e+06
2.11421e+06
2.1266e+06
2.13501e+06
2.1466e+06
2.15357e+06
2.16434e+06
2.17025e+06
2.1806e+06
2.18586e+06
2.19616e+06
2.20157e+06
2.21235e+06
2.21809e+06
2.22973e+06
2.23596e+06
2.24826e+06
2.2548e+06
2.26776e+06
2.27458e+06
2.28823e+06
2.29534e+06
2.30923e+06
2.31672e+06
2.33022e+06
2.33746e+06
2.35104e+06
2.35854e+06
2.37235e+06
2.37978e+06
2.39344e+06
2.40039e+06
2.41388e+06
2.4207e+06
2.43418e+06
2.44108e+06
2.45451e+06
2.46146e+06
2.47476e+06
2.48173e+06
2.49524e+06
2.501e+06
2.52215e+06
1.45673e+06
1.48173e+06
1.50236e+06
1.52487e+06
1.54599e+06
1.56858e+06
1.58793e+06
1.60797e+06
1.62522e+06
1.64415e+06
1.65968e+06
1.67725e+06
1.6912e+06
1.70707e+06
1.71986e+06
1.73382e+06
1.74451e+06
1.75504e+06
1.76196e+06
1.77032e+06
1.77688e+06
1.78588e+06
1.79344e+06
1.80245e+06
1.81074e+06
1.82063e+06
1.82947e+06
1.83945e+06
1.84845e+06
1.8582e+06
1.86631e+06
1.87495e+06
1.88164e+06
1.88913e+06
1.89513e+06
1.90232e+06
1.90774e+06
1.91345e+06
1.91702e+06
1.92203e+06
1.92487e+06
1.92884e+06
1.93148e+06
1.93583e+06
1.93857e+06
1.945e+06
1.94897e+06
1.95727e+06
1.96329e+06
1.97381e+06
1.98202e+06
1.99451e+06
2.00537e+06
2.02028e+06
2.03366e+06
2.05043e+06
2.06495e+06
2.08234e+06
2.0963e+06
2.11284e+06
2.12471e+06
2.1395e+06
2.14874e+06
2.16157e+06
2.16858e+06
2.17977e+06
2.18552e+06
2.196e+06
2.20129e+06
2.21171e+06
2.21721e+06
2.22814e+06
2.23399e+06
2.24564e+06
2.25182e+06
2.26425e+06
2.2708e+06
2.28395e+06
2.29087e+06
2.30451e+06
2.31171e+06
2.32579e+06
2.33334e+06
2.34698e+06
2.3539e+06
2.36718e+06
2.37402e+06
2.38749e+06
2.3941e+06
2.40704e+06
2.41349e+06
2.42647e+06
2.43304e+06
2.44631e+06
2.45312e+06
2.46675e+06
2.47392e+06
2.4875e+06
2.49633e+06
2.5124e+06
1.43904e+06
1.46318e+06
1.48208e+06
1.50474e+06
1.5234e+06
1.54502e+06
1.56344e+06
1.5845e+06
1.60087e+06
1.61911e+06
1.63357e+06
1.65116e+06
1.66413e+06
1.68044e+06
1.69169e+06
1.70561e+06
1.71523e+06
1.72635e+06
1.7346e+06
1.74497e+06
1.75322e+06
1.76319e+06
1.7712e+06
1.78084e+06
1.78877e+06
1.79812e+06
1.80592e+06
1.81548e+06
1.82279e+06
1.83239e+06
1.83998e+06
1.84986e+06
1.85821e+06
1.86859e+06
1.87662e+06
1.8865e+06
1.89374e+06
1.90165e+06
1.90725e+06
1.91416e+06
1.91816e+06
1.92311e+06
1.92595e+06
1.93092e+06
1.93399e+06
1.94063e+06
1.94444e+06
1.95294e+06
1.95798e+06
1.9688e+06
1.97598e+06
1.98894e+06
1.99857e+06
2.01377e+06
2.02622e+06
2.04394e+06
2.05815e+06
2.07666e+06
2.09092e+06
2.10872e+06
2.12149e+06
2.13752e+06
2.1476e+06
2.16145e+06
2.16935e+06
2.18175e+06
2.18801e+06
2.1994e+06
2.20513e+06
2.21622e+06
2.22188e+06
2.23336e+06
2.23932e+06
2.25153e+06
2.25787e+06
2.27082e+06
2.27754e+06
2.29087e+06
2.29798e+06
2.31166e+06
2.31877e+06
2.3324e+06
2.33977e+06
2.35298e+06
2.35985e+06
2.37266e+06
2.37905e+06
2.39135e+06
2.39753e+06
2.40976e+06
2.41599e+06
2.42873e+06
2.43531e+06
2.44866e+06
2.45539e+06
2.46894e+06
2.47605e+06
2.49037e+06
2.49653e+06
2.51767e+06
1.42735e+06
1.45229e+06
1.46741e+06
1.49008e+06
1.50479e+06
1.52769e+06
1.54268e+06
1.56511e+06
1.57869e+06
1.5974e+06
1.6095e+06
1.62646e+06
1.63815e+06
1.6539e+06
1.66505e+06
1.68001e+06
1.69073e+06
1.7039e+06
1.71253e+06
1.72307e+06
1.72956e+06
1.73892e+06
1.7444e+06
1.75299e+06
1.75852e+06
1.76738e+06
1.77439e+06
1.78506e+06
1.79394e+06
1.80686e+06
1.81705e+06
1.83105e+06
1.84183e+06
1.85563e+06
1.86575e+06
1.87816e+06
1.88653e+06
1.89677e+06
1.90386e+06
1.91285e+06
1.91764e+06
1.92434e+06
1.92787e+06
1.93471e+06
1.93861e+06
1.94658e+06
1.95122e+06
1.96041e+06
1.96593e+06
1.97719e+06
1.98368e+06
1.99738e+06
2.00491e+06
2.02014e+06
2.02922e+06
2.04599e+06
2.05692e+06
2.07542e+06
2.08761e+06
2.10621e+06
2.11801e+06
2.13539e+06
2.14573e+06
2.1616e+06
2.17052e+06
2.18495e+06
2.19258e+06