/*--------------------------------*- C++ -*----------------------------------*\
  =========                 |
  \\      /  F ield         | OpenFOAM: The Open Source CFD Toolbox
   \\    /   O peration     | Website:  https://openfoam.org
    \\  /    A nd           | Version:  8
     \\/     M anipulation  |
\*---------------------------------------------------------------------------*/
FoamFile
{
    version     2.0;
    format      ascii;
    class       volScalarField;
    location    "20.000098150058701";
    object      nut;
}
// * * * * * * * * * * * * * * * * * * * * * * * * * * * * * * * * * * * * * //

dimensions      [0 2 -1 0 0 0 0];

internalField   nonuniform List<scalar> 
6800
(
0.078048
0.262155
0.270631
0.252284
0.19587
0.148647
0.12452
0.106508
0.0846957
0.0863855
0.078902
0.218794
0.193619
0.144143
0.139536
0.136148
0.120212
0.103436
0.0858935
0.0572646
0.0748718
0.14342
0.136731
0.145017
0.152518
0.151876
0.124802
0.078222
0.0434872
0.0323456
0.0637978
0.120991
0.128253
0.158972
0.168036
0.113929
0.0554736
0.0380949
0.0309384
0.0277795
0.0617875
0.118654
0.137281
0.181391
0.132328
0.0687227
0.0431375
0.0338719
0.0299418
0.0269509
0.0689245
0.117558
0.156469
0.195027
0.0971
0.0540132
0.0383719
0.0326711
0.0270794
0.0240749
0.0685168
0.130648
0.196568
0.143052
0.0618119
0.03586
0.0311972
0.0275202
0.0246433
0.0237289
0.0694272
0.148674
0.213629
0.102072
0.0489373
0.0398383
0.0347033
0.0290751
0.024522
0.0230561
0.0691691
0.178212
0.191033
0.0738898
0.044159
0.0347021
0.0278934
0.0242171
0.0225957
0.0220668
0.0691083
0.202056
0.169754
0.0650372
0.0403645
0.0345882
0.0304035
0.0259195
0.0229693
0.0219801
0.0767173
0.652665
1.07736
1.28704
1.39431
1.44495
1.47324
1.49631
1.51986
1.54527
0.0758673
0.638744
1.05258
1.25536
1.35742
1.40079
1.42194
1.43677
1.4513
1.46819
0.0744164
0.610607
1.00046
1.1935
1.28203
1.31293
1.31983
1.31848
1.31742
1.32246
0.0723397
0.570819
0.927834
1.10271
1.17099
1.18316
1.1699
1.14574
1.12074
1.10708
0.0695955
0.522928
0.838137
0.984052
1.02599
1.01453
0.977033
0.928533
0.876289
0.824582
0.0667751
0.478435
0.743742
0.843316
0.845008
0.800661
0.743653
0.691752
0.6481
0.559415
0.0644156
0.452267
0.640262
0.664431
0.625544
0.56767
0.527907
0.491141
0.470208
0.447729
0.0634766
0.419994
0.500306
0.480078
0.446928
0.407821
0.395433
0.401893
0.391977
0.308134
0.0656556
0.373029
0.387401
0.371163
0.336004
0.353978
0.341639
0.290388
0.239068
0.131064
0.0681914
0.332704
0.308964
0.314895
0.299925
0.267614
0.196036
0.139971
0.105477
0.0809655
1.58361
1.63415
1.68104
1.72548
1.76733
1.80654
1.84312
1.87722
1.90901
1.93836
1.96498
1.98861
2.00913
2.02699
2.04221
2.05499
2.06518
2.07284
2.07794
2.08173
2.08254
2.08131
2.07799
2.07267
2.06545
2.05659
2.04636
2.03505
2.0229
2.01017
1.9971
1.98392
1.97071
1.95751
1.94438
1.93141
1.91865
1.90611
1.89381
1.88171
1.86978
1.85801
1.84636
1.83481
1.82336
1.81199
1.80071
1.78953
1.77845
1.76749
1.75666
1.74598
1.73548
1.72516
1.71506
1.70517
1.69552
1.68611
1.67693
1.668
1.6593
1.65082
1.64256
1.63451
1.62667
1.61901
1.61153
1.60423
1.59709
1.5901
1.58327
1.57658
1.57002
1.56359
1.55729
1.5511
1.54502
1.53905
1.53317
1.52739
1.52169
1.51607
1.51053
1.50507
1.49968
1.49437
1.48911
1.48394
1.47882
1.47382
1.46881
1.46402
1.45907
1.4546
1.4496
1.44559
1.44043
1.43678
1.43247
1.42742
1.50033
1.55186
1.59832
1.64281
1.68474
1.72394
1.76033
1.79413
1.8259
1.85538
1.88233
1.90634
1.92708
1.94502
1.96026
1.97305
1.9831
1.99049
1.99662
1.99996
2.00123
2.00052
1.99771
1.99288
1.98616
1.97791
1.96845
1.95808
1.94704
1.93558
1.92391
1.91215
1.90038
1.88867
1.87709
1.86567
1.85443
1.84336
1.83248
1.82174
1.81112
1.80059
1.79015
1.77977
1.76946
1.75922
1.74904
1.73896
1.72896
1.71908
1.70933
1.69972
1.69027
1.681
1.67192
1.66305
1.65438
1.64593
1.63769
1.62965
1.62181
1.61417
1.6067
1.59942
1.5923
1.58535
1.57856
1.57191
1.5654
1.55904
1.5528
1.54668
1.54069
1.5348
1.52902
1.52334
1.51776
1.51226
1.50685
1.50151
1.49625
1.49105
1.48592
1.48086
1.47586
1.47092
1.46604
1.46125
1.45648
1.45184
1.44718
1.44274
1.43812
1.43399
1.42931
1.42563
1.4208
1.41741
1.41353
1.40873
1.35572
1.41553
1.46794
1.51747
1.56372
1.60656
1.64597
1.68254
1.71636
1.74747
1.77597
1.80123
1.82214
1.83971
1.85427
1.8663
1.87469
1.88262
1.88693
1.8893
1.89001
1.88884
1.88533
1.87978
1.87226
1.86348
1.8538
1.84354
1.83292
1.82213
1.81133
1.80065
1.79016
1.77989
1.76985
1.76003
1.7504
1.74093
1.73158
1.72233
1.71316
1.70406
1.69504
1.68609
1.67721
1.66841
1.6597
1.65111
1.64264
1.63431
1.62612
1.6181
1.61025
1.60259
1.59511
1.58782
1.58071
1.57379
1.56703
1.56044
1.55399
1.54768
1.5415
1.53546
1.52955
1.52376
1.5181
1.51254
1.5071
1.50177
1.49653
1.49139
1.48635
1.48138
1.4765
1.47169
1.46695
1.46227
1.45765
1.45309
1.44858
1.44412
1.4397
1.43534
1.43102
1.42677
1.42255
1.41841
1.41428
1.41028
1.40623
1.40243
1.3984
1.39489
1.39078
1.38767
1.38345
1.38049
1.37745
1.37298
1.15925
1.23754
1.30397
1.3644
1.4195
1.46937
1.51432
1.55503
1.59156
1.62449
1.6533
1.67714
1.69453
1.70851
1.71919
1.72708
1.73344
1.73612
1.7366
1.73563
1.7334
1.72934
1.72426
1.71859
1.71237
1.70535
1.69762
1.68938
1.68084
1.67214
1.66344
1.65483
1.6464
1.63816
1.63011
1.62225
1.61452
1.6069
1.59939
1.59195
1.58456
1.57723
1.56997
1.56277
1.55564
1.54858
1.54162
1.53478
1.52808
1.52153
1.51515
1.50895
1.50293
1.4971
1.49145
1.48596
1.48064
1.47547
1.47043
1.46551
1.46071
1.45603
1.45145
1.44697
1.44257
1.43827
1.43404
1.42989
1.42582
1.42182
1.41788
1.41402
1.41021
1.40646
1.40275
1.39909
1.39547
1.39188
1.38831
1.38478
1.38127
1.37779
1.37433
1.37091
1.36752
1.36418
1.36085
1.3576
1.35434
1.35121
1.34799
1.34504
1.34181
1.33913
1.33581
1.33348
1.33007
1.32774
1.32575
1.32173
0.909743
1.01161
1.09503
1.16605
1.22708
1.27889
1.32304
1.3627
1.39993
1.43369
1.46367
1.49112
1.51343
1.53218
1.54953
1.56369
1.57361
1.5808
1.58546
1.58699
1.58448
1.57923
1.57193
1.56282
1.55269
1.54199
1.5311
1.52034
1.50997
1.50014
1.49093
1.48237
1.47448
1.46717
1.46035
1.45393
1.44777
1.44181
1.43601
1.43034
1.42478
1.4193
1.41395
1.40874
1.40362
1.39861
1.39374
1.38906
1.38458
1.38031
1.37625
1.37241
1.36878
1.36534
1.36208
1.35894
1.35592
1.35299
1.35012
1.34731
1.34455
1.34184
1.33917
1.33654
1.33395
1.3314
1.32888
1.3264
1.32395
1.32154
1.31916
1.31681
1.31449
1.31218
1.30988
1.30759
1.3053
1.30301
1.30071
1.29841
1.2961
1.29379
1.29149
1.28918
1.28687
1.2846
1.28231
1.2801
1.27785
1.27575
1.27351
1.27157
1.2693
1.26761
1.26522
1.26383
1.26136
1.25989
1.25892
1.25557
0.646873
0.749663
0.839123
0.916252
0.985778
1.04838
1.10444
1.15452
1.19917
1.23177
1.2587
1.2798
1.29741
1.31127
1.31934
1.3245
1.32674
1.32636
1.32372
1.31904
1.31309
1.30567
1.29706
1.28741
1.27726
1.26699
1.25709
1.24797
1.23988
1.23278
1.22671
1.22164
1.21752
1.21412
1.21133
1.20899
1.20683
1.20485
1.203
1.20124
1.19962
1.19802
1.19657
1.19526
1.19401
1.19283
1.19174
1.19084
1.19016
1.1897
1.18945
1.18941
1.18953
1.18977
1.19008
1.19041
1.19072
1.19097
1.19118
1.19135
1.19148
1.19157
1.19163
1.19164
1.19161
1.19155
1.19146
1.19134
1.1912
1.19104
1.19085
1.19064
1.19038
1.19009
1.18975
1.18935
1.18889
1.18838
1.1878
1.18718
1.1865
1.18579
1.18503
1.18427
1.18347
1.1827
1.18188
1.18114
1.1803
1.17963
1.17877
1.17822
1.17727
1.17691
1.1758
1.17568
1.17445
1.17419
1.17443
1.17213
0.493494
0.549825
0.609015
0.666206
0.723127
0.772933
0.816379
0.854655
0.887589
0.912661
0.935767
0.955505
0.967884
0.976372
0.981051
0.982534
0.981428
0.978057
0.972845
0.965812
0.957484
0.947906
0.937776
0.927203
0.917057
0.907522
0.899319
0.893093
0.888648
0.885425
0.88361
0.88332
0.884391
0.886283
0.888949
0.892042
0.895258
0.898696
0.902449
0.906104
0.910132
0.914042
0.918119
0.922315
0.926471
0.930604
0.934708
0.939014
0.943485
0.948226
0.953152
0.958167
0.963175
0.968042
0.972865
0.977395
0.981762
0.985823
0.98986
0.993814
0.997683
1.00143
1.00506
1.00854
1.01189
1.01513
1.01824
1.02126
1.02417
1.02697
1.02966
1.03223
1.03468
1.03699
1.03916
1.04119
1.04308
1.04483
1.04645
1.04797
1.04937
1.05069
1.05192
1.05312
1.05424
1.05537
1.0564
1.05752
1.05848
1.05961
1.06047
1.06167
1.06237
1.0637
1.06418
1.06565
1.06593
1.06724
1.06883
1.06814
0.323305
0.346712
0.372393
0.398764
0.426498
0.455111
0.481581
0.505356
0.524483
0.544178
0.558857
0.568634
0.573945
0.575361
0.573621
0.569334
0.563261
0.555576
0.546993
0.537145
0.527007
0.515988
0.50559
0.495228
0.48671
0.479282
0.474765
0.471254
0.470739
0.472388
0.477551
0.483062
0.490062
0.497372
0.506202
0.514053
0.523686
0.533435
0.544665
0.554221
0.564859
0.5751
0.58563
0.596225
0.60655
0.616674
0.626559
0.636816
0.647189
0.658124
0.668826
0.67885
0.688429
0.697239
0.706517
0.714534
0.723266
0.730787
0.740161
0.749152
0.757973
0.766523
0.774812
0.782812
0.790561
0.798039
0.805308
0.812331
0.819125
0.825618
0.831868
0.837822
0.843532
0.84895
0.854111
0.859035
0.863727
0.868216
0.872498
0.876629
0.880572
0.884439
0.888092
0.891815
0.895325
0.898863
0.902226
0.905657
0.908843
0.912204
0.91518
0.91852
0.921246
0.924622
0.927028
0.930471
0.932535
0.93585
0.938864
0.940578
0.137963
0.147248
0.158037
0.168024
0.178673
0.186303
0.195582
0.20274
0.207926
0.211284
0.21263
0.211817
0.209023
0.204591
0.199021
0.192578
0.185807
0.178594
0.171539
0.164131
0.157191
0.150011
0.143722
0.137551
0.132742
0.128445
0.125879
0.123885
0.123987
0.123801
0.127318
0.127756
0.131198
0.134609
0.140739
0.147574
0.153298
0.160401
0.167313
0.174672
0.183298
0.19228
0.201836
0.212177
0.222813
0.233948
0.245514
0.257876
0.271069
0.285174
0.300026
0.316876
0.334676
0.353459
0.372635
0.39121
0.409226
0.426365
0.442958
0.458903
0.474337
0.489126
0.503365
0.516955
0.530102
0.542566
0.554852
0.56626
0.577092
0.587148
0.596802
0.605935
0.614931
0.623364
0.631737
0.639924
0.64785
0.655566
0.663022
0.670329
0.677353
0.68439
0.690827
0.698456
0.704909
0.711386
0.717387
0.723402
0.729071
0.734964
0.740365
0.746173
0.751222
0.757005
0.761578
0.767388
0.771468
0.77729
0.78167
0.786922
0.0813085
0.0821924
0.0833621
0.0843043
0.0847228
0.0848462
0.0844407
0.0836726
0.0824514
0.08076
0.0785981
0.0759884
0.073018
0.0697583
0.0663697
0.0628873
0.0594867
0.0560912
0.0529057
0.0497599
0.0469056
0.0441337
0.041726
0.0394597
0.0375918
0.0359071
0.034599
0.0334632
0.0326734
0.0319677
0.0316143
0.0312863
0.0311443
0.0310364
0.0312799
0.0313656
0.0320824
0.0325852
0.0333254
0.0343034
0.0354776
0.0366417
0.0378902
0.0399232
0.0417545
0.0442306
0.0470828
0.0504974
0.0543762
0.0589814
0.0641691
0.0701613
0.0770697
0.0848154
0.0937234
0.10339
0.114046
0.125301
0.137294
0.149843
0.162831
0.176415
0.190108
0.20443
0.218622
0.23338
0.247884
0.262855
0.278357
0.293892
0.309616
0.325039
0.340034
0.354505
0.368397
0.381799
0.394612
0.406999
0.418823
0.430341
0.44132
0.45216
0.462421
0.472794
0.482507
0.492093
0.501087
0.510069
0.518436
0.527045
0.535028
0.543469
0.551027
0.559453
0.566241
0.575174
0.581909
0.590694
0.596747
0.606558
0.0590829
0.0582173
0.058134
0.0579536
0.0575097
0.0567243
0.0556553
0.0543169
0.0527557
0.0509901
0.0490811
0.047049
0.0449731
0.0428735
0.0408278
0.0388289
0.0369455
0.0351381
0.0334834
0.0319174
0.0305206
0.0292255
0.028103
0.0270924
0.0262384
0.0254961
0.0248709
0.0243465
0.0238949
0.0235257
0.0231977
0.0229303
0.0226891
0.0224863
0.0223123
0.0221551
0.0220331
0.0219171
0.0218456
0.0217534
0.0217279
0.0216496
0.0216507
0.0216205
0.0216263
0.0216422
0.0216768
0.0217497
0.0218608
0.022015
0.0221555
0.022377
0.0227481
0.0231355
0.023678
0.0243442
0.0251967
0.0262689
0.0275415
0.029171
0.0309832
0.0333322
0.0358368
0.0390478
0.0424452
0.0466343
0.0511214
0.0564027
0.0621168
0.0686971
0.0757176
0.0836568
0.0919533
0.10112
0.110496
0.120663
0.130902
0.141866
0.15279
0.164397
0.175863
0.187994
0.19987
0.212404
0.224569
0.237738
0.250364
0.263931
0.276599
0.29013
0.302156
0.31533
0.326424
0.339251
0.349129
0.361715
0.370307
0.382808
0.390648
0.403552
0.0385267
0.038804
0.0391236
0.0393564
0.0392993
0.0389323
0.0383567
0.037578
0.0366589
0.0355997
0.0344807
0.0332946
0.0321224
0.0309497
0.0298372
0.0287602
0.0277729
0.0268443
0.0260213
0.0252599
0.0246095
0.0240233
0.0235454
0.023122
0.0227857
0.0224926
0.0222575
0.022058
0.0218883
0.0217511
0.0216209
0.0215228
0.0214172
0.0213405
0.0212557
0.0211913
0.0211149
0.0210661
0.0209975
0.0209551
0.0208948
0.0208537
0.0208021
0.0207645
0.0207181
0.0206833
0.0206423
0.0206094
0.0205759
0.020543
0.0205169
0.0204841
0.0204655
0.0204345
0.0204253
0.020397
0.0203998
0.0203769
0.0203962
0.0203839
0.0204261
0.0204317
0.0205089
0.020542
0.0206976
0.0207797
0.0209389
0.0211835
0.0213961
0.0218056
0.0221088
0.0227755
0.0232066
0.0242371
0.0248602
0.0263568
0.0272364
0.0293469
0.030572
0.0334502
0.0351185
0.0389505
0.041159
0.0461736
0.0490078
0.0553969
0.0590268
0.0667481
0.0715814
0.0806329
0.0867485
0.0970762
0.104066
0.115664
0.123148
0.135906
0.143528
0.157062
0.165263
0.181012
0.0278124
0.027895
0.0280802
0.0281948
0.028215
0.0280847
0.0278679
0.0275541
0.0271863
0.0267433
0.0262866
0.0257774
0.0252888
0.0247712
0.0243071
0.0238522
0.0234594
0.0230957
0.0227904
0.0225054
0.0222945
0.0220894
0.0219416
0.0217903
0.0216852
0.0215714
0.0214899
0.021402
0.0213308
0.0212604
0.0211925
0.0211336
0.0210643
0.0210121
0.020944
0.0208881
0.0208224
0.020774
0.0206965
0.0206557
0.0205829
0.0205419
0.0204707
0.020433
0.0203648
0.0203323
0.0202672
0.0202394
0.0201771
0.0201531
0.0200933
0.0200724
0.0200147
0.0199966
0.0199399
0.0199244
0.0198676
0.0198548
0.0197974
0.0197875
0.0197292
0.0197223
0.0196632
0.019659
0.0195999
0.019597
0.0195382
0.0195275
0.0194738
0.0194691
0.0194224
0.0194237
0.0193857
0.0193943
0.0193675
0.0193852
0.0193744
0.0194045
0.0194172
0.019467
0.0195145
0.0195939
0.0197394
0.0198417
0.0199808
0.0202509
0.0204702
0.0208962
0.0212408
0.0219119
0.0224291
0.0234648
0.0242212
0.0257254
0.0268301
0.0288632
0.0305299
0.0328835
0.0364087
0.038534
0.0233897
0.023424
0.0234916
0.0235396
0.0235724
0.0235244
0.0234378
0.023316
0.0231675
0.0229929
0.0228061
0.0226023
0.022414
0.022216
0.0220524
0.0218777
0.0217496
0.0215981
0.0214949
0.0213739
0.0212858
0.0211733
0.0210951
0.0209875
0.0209188
0.0208138
0.020754
0.0206512
0.0205965
0.0204966
0.020439
0.0203438
0.0202793
0.0201842
0.02012
0.0200195
0.0199535
0.0198624
0.0197924
0.0197083
0.0196403
0.0195628
0.0195031
0.019436
0.0193816
0.0193248
0.0192753
0.0192279
0.0191823
0.0191436
0.0191007
0.0190692
0.0190276
0.0190016
0.0189601
0.0189384
0.0188961
0.0188779
0.0188345
0.0188191
0.0187749
0.0187624
0.018718
0.0187084
0.0186642
0.0186579
0.0186142
0.0186115
0.0185681
0.0185692
0.0185257
0.0185307
0.0184868
0.0184952
0.0184506
0.0184631
0.0184175
0.0184343
0.0183875
0.0184082
0.0183608
0.0183848
0.0183378
0.0183651
0.0183194
0.0183494
0.0183066
0.0183397
0.0183011
0.0183385
0.0183055
0.0183502
0.0183251
0.0183817
0.0183684
0.0184433
0.0184485
0.0185501
0.0185856
0.0187605
0.0216588
0.0216856
0.0217126
0.0217589
0.0217667
0.0217639
0.0217288
0.0216909
0.0216334
0.0215806
0.0215147
0.0214554
0.0213875
0.0213231
0.0212532
0.0211774
0.0211007
0.0210147
0.0209336
0.0208411
0.020754
0.0206566
0.0205654
0.0204668
0.0203756
0.020277
0.0201878
0.0200878
0.0200023
0.0199006
0.0198197
0.0197191
0.0196411
0.019545
0.0194733
0.0193768
0.0193168
0.0192269
0.01917
0.0190928
0.0190442
0.018973
0.0189334
0.018868
0.0188375
0.0187793
0.0187552
0.0187021
0.0186827
0.0186335
0.0186172
0.0185706
0.0185562
0.0185113
0.0184979
0.0184543
0.0184415
0.0183992
0.0183871
0.0183462
0.0183348
0.0182956
0.0182854
0.0182484
0.0182395
0.0182049
0.0181975
0.0181652
0.0181592
0.0181293
0.0181244
0.0180964
0.0180921
0.0180657
0.0180617
0.0180367
0.0180326
0.0180086
0.0180043
0.0179813
0.0179767
0.0179547
0.0179499
0.0179289
0.0179238
0.0179039
0.0178985
0.0178796
0.0178738
0.0178558
0.0178496
0.0178325
0.017826
0.0178098
0.017803
0.017788
0.0177795
0.0177734
0.0177243
0.0177883
0.0205721
0.0206355
0.0206774
0.0207012
0.020736
0.0207399
0.02075
0.0207346
0.0207258
0.0206932
0.0206644
0.0206123
0.0205618
0.0204912
0.0204221
0.0203368
0.0202555
0.0201598
0.0200726
0.0199683
0.0198781
0.0197709
0.0196796
0.0195717
0.0194824
0.0193775
0.0192944
0.0191962
0.019121
0.0190321
0.0189638
0.0188856
0.0188223
0.0187533
0.0186968
0.0186295
0.0185828
0.0185209
0.0184765
0.0184215
0.0183819
0.0183325
0.0182994
0.0182555
0.0182287
0.018188
0.0181662
0.0181291
0.018111
0.0180767
0.0180612
0.0180287
0.018015
0.0179835
0.0179712
0.0179405
0.0179293
0.0178995
0.0178895
0.0178608
0.0178519
0.0178243
0.0178167
0.0177905
0.0177843
0.0177593
0.0177543
0.0177306
0.0177264
0.0177036
0.0177
0.0176778
0.0176743
0.0176525
0.017649
0.0176277
0.017624
0.0176032
0.0175995
0.0175795
0.017576
0.0175568
0.0175535
0.0175354
0.0175323
0.0175153
0.0175123
0.0174963
0.0174931
0.0174781
0.0174746
0.0174606
0.0174565
0.0174435
0.0174389
0.017427
0.0174204
0.0174171
0.0173704
0.0174333
0.0197598
0.0198118
0.0198596
0.0198928
0.019923
0.0199382
0.0199467
0.0199386
0.0199268
0.0198996
0.0198708
0.019825
0.0197796
0.0197176
0.0196595
0.0195868
0.0195214
0.0194433
0.0193742
0.0192934
0.019223
0.0191404
0.0190709
0.018991
0.0189265
0.018853
0.0187959
0.0187284
0.0186799
0.0186162
0.0185753
0.0185151
0.0184773
0.0184231
0.0183853
0.0183328
0.0183014
0.0182477
0.0182168
0.0181694
0.018141
0.0180962
0.0180712
0.0180299
0.0180086
0.01797
0.0179531
0.0179171
0.0179025
0.0178692
0.017857
0.0178259
0.0178154
0.0177859
0.0177764
0.0177479
0.0177391
0.0177113
0.0177028
0.017675
0.0176665
0.017639
0.0176307
0.0176037
0.0175958
0.01757
0.0175629
0.0175382
0.017532
0.0175084
0.0175027
0.01748
0.0174747
0.0174527
0.0174478
0.0174266
0.017422
0.0174016
0.0173975
0.0173781
0.0173744
0.0173559
0.0173525
0.0173348
0.0173314
0.0173145
0.0173108
0.0172945
0.0172903
0.0172745
0.0172698
0.0172544
0.0172491
0.0172343
0.0172284
0.0172144
0.0172081
0.0171947
0.0171892
0.0171706
0.0190583
0.0191181
0.0191691
0.0191988
0.0192309
0.0192458
0.0192569
0.0192503
0.0192405
0.0192186
0.0191947
0.0191601
0.0191255
0.0190796
0.019037
0.0189816
0.018933
0.0188713
0.0188188
0.0187525
0.0186983
0.0186284
0.0185745
0.0185047
0.0184525
0.0183855
0.0183375
0.0182754
0.0182311
0.0181737
0.0181323
0.0180788
0.0180404
0.0179905
0.0179546
0.0179063
0.0178763
0.017827
0.0177988
0.0177546
0.0177288
0.0176863
0.0176631
0.0176247
0.0176055
0.0175696
0.0175538
0.0175198
0.0175064
0.0174751
0.0174639
0.0174349
0.0174259
0.017399
0.0173917
0.0173661
0.0173596
0.0173349
0.0173291
0.0173057
0.0173007
0.0172783
0.0172742
0.0172528
0.0172494
0.0172285
0.0172254
0.0172053
0.0172022
0.0171824
0.0171793
0.0171598
0.0171565
0.0171372
0.0171339
0.0171149
0.0171116
0.0170932
0.0170898
0.017072
0.0170685
0.0170514
0.0170477
0.0170312
0.0170273
0.0170114
0.0170072
0.0169919
0.0169874
0.0169726
0.0169677
0.0169535
0.0169483
0.0169347
0.0169292
0.0169163
0.0169106
0.0168983
0.0168932
0.0168767
0.0185139
0.0185557
0.0186038
0.0186319
0.0186645
0.0186798
0.0186956
0.0186912
0.0186898
0.0186732
0.0186602
0.0186355
0.0186132
0.0185802
0.0185488
0.0185062
0.0184682
0.0184188
0.0183775
0.0183239
0.0182796
0.0182225
0.0181759
0.0181177
0.0180728
0.0180173
0.0179777
0.017926
0.0178926
0.0178442
0.0178157
0.0177712
0.0177456
0.0177064
0.0176818
0.0176469
0.0176258
0.0175896
0.0175714
0.0175366
0.0175184
0.0174835
0.0174669
0.0174324
0.0174159
0.017383
0.0173683
0.0173361
0.0173236
0.017294
0.0172839
0.0172568
0.0172492
0.0172245
0.0172192
0.0171963
0.0171926
0.0171715
0.0171687
0.0171487
0.0171462
0.0171266
0.0171241
0.0171044
0.0171018
0.017082
0.017079
0.0170594
0.017056
0.0170366
0.0170332
0.017014
0.0170105
0.0169915
0.016988
0.0169694
0.0169661
0.0169481
0.016945
0.0169278
0.0169248
0.0169083
0.0169053
0.0168892
0.0168862
0.0168711
0.016868
0.0168533
0.0168498
0.0168355
0.0168316
0.0168177
0.0168133
0.0167998
0.0167948
0.0167816
0.0167773
0.016758
0.0167886
0.0167028
0.0180924
0.0181359
0.0181764
0.0182037
0.0182291
0.0182442
0.0182615
0.0182613
0.0182654
0.0182536
0.0182482
0.0182294
0.0182159
0.0181906
0.0181678
0.0181346
0.0181044
0.0180649
0.0180315
0.0179873
0.0179514
0.0179025
0.0178652
0.0178141
0.0177794
0.0177316
0.0177009
0.0176569
0.0176298
0.0175891
0.0175653
0.0175268
0.017507
0.0174712
0.0174546
0.0174227
0.0174087
0.0173778
0.0173641
0.0173353
0.0173218
0.0172916
0.0172764
0.0172447
0.0172306
0.0171991
0.0171851
0.017154
0.0171413
0.0171121
0.017102
0.0170752
0.017068
0.0170445
0.0170397
0.0170185
0.0170154
0.0169955
0.0169932
0.016974
0.0169716
0.0169527
0.0169501
0.0169312
0.0169284
0.0169093
0.0169064
0.0168875
0.0168845
0.0168659
0.016863
0.0168448
0.0168421
0.0168243
0.0168217
0.0168044
0.0168021
0.0167856
0.0167833
0.0167675
0.0167653
0.0167499
0.0167478
0.0167331
0.0167312
0.016717
0.016715
0.016701
0.0166986
0.0166851
0.0166824
0.0166693
0.0166662
0.0166532
0.0166493
0.0166368
0.016632
0.0166199
0.0166149
0.0165993
0.0177641
0.0177958
0.0178291
0.0178592
0.0178806
0.0178973
0.0179098
0.0179095
0.017912
0.0179033
0.0179026
0.0178885
0.0178837
0.0178637
0.0178507
0.0178229
0.0178008
0.0177673
0.0177411
0.0177052
0.0176774
0.0176393
0.0176108
0.0175718
0.0175458
0.0175074
0.0174842
0.017447
0.0174253
0.0173895
0.017369
0.0173356
0.0173182
0.0172883
0.0172749
0.0172492
0.0172398
0.0172133
0.0172068
0.0171823
0.0171716
0.0171444
0.0171337
0.0171054
0.0170943
0.0170664
0.0170552
0.0170272
0.0170174
0.0169915
0.0169831
0.0169581
0.016952
0.0169296
0.0169248
0.0169036
0.0168999
0.0168798
0.0168765
0.016857
0.0168537
0.0168346
0.0168317
0.0168133
0.0168112
0.0167933
0.016792
0.0167747
0.0167738
0.0167567
0.0167562
0.0167396
0.0167389
0.0167226
0.0167216
0.0167054
0.0167041
0.016688
0.0166863
0.0166703
0.0166682
0.0166525
0.0166501
0.0166345
0.0166318
0.0166168
0.016614
0.0165996
0.0165967
0.0165828
0.0165797
0.0165667
0.0165633
0.016551
0.0165473
0.0165353
0.0165321
0.0165141
0.0165456
0.0164614
0.0175245
0.0175353
0.0175749
0.0175976
0.0176258
0.0176356
0.017655
0.017653
0.0176595
0.017652
0.0176533
0.0176427
0.0176412
0.0176259
0.017618
0.017595
0.0175788
0.0175502
0.0175314
0.0175021
0.0174841
0.0174545
0.0174362
0.0174051
0.0173857
0.0173523
0.0173321
0.0172968
0.0172763
0.0172408
0.0172212
0.0171878
0.0171706
0.0171409
0.0171271
0.0171016
0.0170903
0.0170663
0.0170586
0.0170337
0.0170262
0.0170026
0.0169947
0.016971
0.0169659
0.0169446
0.016939
0.0169181
0.016914
0.0168941
0.0168898
0.0168697
0.0168656
0.0168449
0.0168393
0.0168174
0.0168118
0.0167889
0.016783
0.0167606
0.0167557
0.0167345
0.0167308
0.0167112
0.0167092
0.0166913
0.0166906
0.0166742
0.0166746
0.016659
0.0166602
0.0166451
0.0166463
0.0166313
0.0166319
0.0166167
0.0166165
0.0166009
0.0165997
0.0165839
0.0165817
0.0165658
0.0165632
0.0165473
0.0165442
0.0165288
0.0165253
0.0165106
0.016507
0.0164931
0.0164895
0.0164768
0.0164728
0.0164611
0.0164569
0.0164458
0.0164427
0.0164259
0.0164575
0.0163747
0.0173266
0.0173322
0.0173723
0.0173884
0.0174236
0.0174317
0.0174518
0.0174479
0.0174589
0.0174516
0.0174548
0.0174428
0.0174437
0.0174298
0.0174272
0.0174072
0.0173957
0.0173698
0.0173542
0.0173281
0.0173134
0.0172875
0.0172724
0.0172439
0.0172274
0.0171961
0.01718
0.0171466
0.0171322
0.0170983
0.0170849
0.0170527
0.0170396
0.0170106
0.0169987
0.0169719
0.0169625
0.0169369
0.0169289
0.0169073
0.0168995
0.0168777
0.0168737
0.0168557
0.0168555
0.016838
0.0168382
0.0168223
0.0168221
0.016807
0.0168055
0.0167868
0.0167835
0.0167631
0.0167571
0.0167354
0.0167277
0.0167035
0.0166954
0.0166715
0.0166646
0.0166425
0.0166382
0.0166186
0.0166168
0.0165993
0.016599
0.0165828
0.0165837
0.0165683
0.0165695
0.0165543
0.0165555
0.0165402
0.016541
0.0165253
0.0165257
0.0165099
0.0165095
0.0164935
0.0164925
0.0164768
0.0164751
0.0164598
0.0164573
0.0164425
0.0164393
0.0164256
0.016422
0.0164097
0.016406
0.0163949
0.0163909
0.0163813
0.0163773
0.016369
0.016365
0.0163582
0.0163529
0.016344
0.0171955
0.0172058
0.0172306
0.017255
0.017273
0.0172869
0.0173061
0.0173102
0.0173208
0.0173194
0.0173192
0.0173097
0.0173083
0.0172976
0.0172969
0.0172816
0.0172742
0.0172504
0.0172377
0.0172104
0.0171953
0.0171662
0.017149
0.0171183
0.0171001
0.0170704
0.0170554
0.0170272
0.0170159
0.0169873
0.016978
0.0169497
0.0169406
0.0169143
0.0169047
0.0168812
0.0168721
0.0168497
0.0168444
0.0168216
0.0168168
0.0167962
0.016792
0.016774
0.0167711
0.0167523
0.0167504
0.0167295
0.0167274
0.0167078
0.0167043
0.016683
0.0166795
0.0166587
0.0166543
0.0166335
0.0166294
0.0166098
0.0166063
0.016587
0.0165847
0.0165664
0.0165648
0.0165475
0.0165468
0.0165304
0.0165302
0.0165141
0.0165137
0.0164974
0.0164976
0.0164815
0.0164818
0.0164658
0.0164661
0.0164503
0.0164504
0.0164348
0.016435
0.0164196
0.0164194
0.0164044
0.0164037
0.0163895
0.0163882
0.0163752
0.0163732
0.0163615
0.0163588
0.0163485
0.0163452
0.0163364
0.0163328
0.0163256
0.016322
0.0163159
0.0163136
0.0163014
0.0163373
0.016253
0.0170875
0.0171002
0.0171229
0.0171394
0.0171697
0.017177
0.0171825
0.0171796
0.0171949
0.0171961
0.0172025
0.0171968
0.017201
0.0171913
0.0171909
0.017175
0.0171669
0.0171446
0.0171321
0.0171057
0.0170913
0.017062
0.0170455
0.0170149
0.0169988
0.0169695
0.0169547
0.016928
0.0169165
0.0168922
0.0168838
0.0168603
0.0168536
0.0168308
0.0168245
0.0168028
0.0167968
0.0167761
0.0167692
0.0167492
0.0167426
0.0167212
0.016717
0.0166949
0.016689
0.0166694
0.0166657
0.0166466
0.0166456
0.0166286
0.0166274
0.0166104
0.0166106
0.0165941
0.0165948
0.0165788
0.0165803
0.0165641
0.016565
0.0165494
0.0165491
0.0165324
0.0165315
0.0165134
0.0165118
0.0164934
0.0164911
0.0164728
0.0164705
0.0164526
0.0164507
0.0164334
0.0164326
0.0164159
0.016416
0.0164004
0.0164009
0.0163862
0.0163872
0.0163731
0.0163744
0.016361
0.0163622
0.0163495
0.0163505
0.0163384
0.0163389
0.0163272
0.0163269
0.0163157
0.0163146
0.0163038
0.0163019
0.0162917
0.016289
0.0162794
0.0162759
0.016267
0.0162635
0.0162505
0.0169903
0.0169929
0.0170174
0.0170299
0.0170479
0.0170524
0.017072
0.0170751
0.0170885
0.0170839
0.0170845
0.0170778
0.0170801
0.0170711
0.0170721
0.017059
0.0170536
0.0170348
0.0170263
0.0170048
0.0169957
0.0169731
0.0169625
0.0169378
0.0169259
0.0169014
0.0168903
0.0168673
0.0168593
0.0168369
0.0168313
0.0168092
0.0168035
0.0167822
0.0167755
0.0167542
0.0167478
0.0167267
0.0167197
0.016699
0.0166919
0.0166706
0.0166662
0.0166465
0.0166443
0.0166276
0.0166259
0.0166103
0.0166119
0.0165968
0.0165972
0.0165825
0.0165848
0.0165697
0.0165719
0.016558
0.0165602
0.0165456
0.0165478
0.0165336
0.0165343
0.0165186
0.0165172
0.0164997
0.0164967
0.0164774
0.0164735
0.0164536
0.0164494
0.01643
0.0164261
0.0164081
0.0164051
0.0163882
0.0163865
0.0163707
0.0163701
0.0163554
0.0163551
0.0163414
0.0163414
0.0163283
0.0163283
0.0163155
0.0163155
0.016303
0.0163024
0.0162901
0.0162888
0.0162767
0.0162748
0.0162629
0.0162601
0.0162487
0.016245
0.0162342
0.0162285
0.0162249
0.0161841
0.0162396
0.0169375
0.0169486
0.0169644
0.0169774
0.0170064
0.0170229
0.0170298
0.0170281
0.0170391
0.0170313
0.0170282
0.0170195
0.0170184
0.0170062
0.017005
0.0169914
0.0169855
0.016968
0.016959
0.0169377
0.0169285
0.016906
0.0168959
0.0168713
0.0168597
0.0168342
0.0168218
0.0167966
0.0167858
0.0167614
0.016754
0.0167308
0.0167273
0.0167063
0.0167054
0.0166865
0.0166864
0.0166697
0.0166668
0.0166502
0.0166457
0.016627
0.0166253
0.0166057
0.0166044
0.0165864
0.0165862
0.01657
0.0165696
0.016554
0.0165534
0.0165377
0.0165369
0.0165216
0.0165226
0.0165069
0.0165077
0.0164922
0.0164931
0.0164778
0.0164777
0.0164617
0.016461
0.0164439
0.0164414
0.0164235
0.0164204
0.0164021
0.0163986
0.0163801
0.0163768
0.0163589
0.0163559
0.0163386
0.0163361
0.0163195
0.0163175
0.0163018
0.0163002
0.0162853
0.016284
0.0162699
0.0162687
0.0162555
0.0162543
0.0162417
0.0162403
0.0162283
0.0162265
0.016215
0.0162128
0.0162019
0.0161992
0.016189
0.0161858
0.0161762
0.0161724
0.0161636
0.0161584
0.0161485
0.0168472
0.0168526
0.0168629
0.0168753
0.0169019
0.0169067
0.0169191
0.0169231
0.0169355
0.0169284
0.0169282
0.0169204
0.0169242
0.0169158
0.0169214
0.0169112
0.0169089
0.0168907
0.0168812
0.0168589
0.0168486
0.0168254
0.0168149
0.01679
0.0167789
0.0167538
0.016744
0.016721
0.0167137
0.0166934
0.0166889
0.016671
0.0166692
0.0166525
0.0166525
0.0166369
0.0166383
0.0166214
0.0166216
0.0166061
0.0166025
0.0165856
0.0165845
0.0165659
0.0165634
0.0165466
0.0165437
0.0165256
0.016525
0.0165072
0.0165053
0.0164881
0.0164872
0.0164702
0.0164697
0.0164539
0.0164538
0.0164381
0.0164385
0.0164234
0.0164239
0.0164089
0.0164093
0.016394
0.0163938
0.0163782
0.0163776
0.0163615
0.0163604
0.0163441
0.0163427
0.0163265
0.0163252
0.0163093
0.016308
0.0162926
0.0162915
0.0162767
0.0162756
0.0162613
0.0162603
0.0162467
0.0162457
0.0162329
0.0162318
0.0162197
0.0162184
0.0162069
0.0162052
0.0161943
0.0161922
0.0161819
0.0161793
0.0161697
0.0161666
0.016158
0.016153
0.0161517
0.016112
0.0161682
0.0168447
0.016849
0.0168651
0.0168791
0.0169068
0.0169007
0.0169185
0.0169168
0.0169246
0.0169245
0.0169289
0.0169171
0.0169178
0.0169058
0.0169057
0.0168879
0.016878
0.0168536
0.0168397
0.0168142
0.016802
0.0167787
0.0167685
0.0167459
0.0167373
0.0167158
0.0167095
0.0166899
0.0166856
0.0166674
0.0166651
0.0166483
0.0166472
0.0166312
0.0166308
0.0166153
0.0166156
0.0166002
0.0165997
0.0165843
0.0165823
0.0165658
0.0165653
0.0165475
0.016546
0.0165285
0.0165268
0.0165093
0.0165084
0.0164909
0.01649
0.0164732
0.0164722
0.016456
0.0164561
0.0164402
0.0164406
0.0164253
0.016426
0.0164111
0.0164119
0.0163971
0.0163979
0.0163829
0.0163834
0.0163682
0.0163681
0.0163525
0.016352
0.0163362
0.0163353
0.0163195
0.0163185
0.0163028
0.0163018
0.0162866
0.0162856
0.016271
0.01627
0.0162558
0.016255
0.0162415
0.0162406
0.0162277
0.0162267
0.0162145
0.0162132
0.0162016
0.0162
0.016189
0.0161869
0.0161765
0.016174
0.0161642
0.0161611
0.0161518
0.0161494
0.0161341
0.0161655
0.0160867
0.0167781
0.0167823
0.0167918
0.0167991
0.0168222
0.0168133
0.0168258
0.01682
0.0168314
0.0168325
0.0168285
0.0168204
0.0168213
0.0168109
0.0168133
0.0168011
0.0167997
0.016785
0.0167809
0.0167641
0.0167594
0.0167425
0.0167387
0.0167214
0.0167179
0.0167002
0.0166969
0.0166794
0.0166765
0.0166597
0.0166578
0.0166417
0.0166407
0.016625
0.0166247
0.0166094
0.0166102
0.0165945
0.0165947
0.016579