/*--------------------------------*- C++ -*----------------------------------*\
  =========                 |
  \\      /  F ield         | OpenFOAM: The Open Source CFD Toolbox
   \\    /   O peration     | Website:  https://openfoam.org
    \\  /    A nd           | Version:  8
     \\/     M anipulation  |
\*---------------------------------------------------------------------------*/
FoamFile
{
    version     2.0;
    format      ascii;
    class       volScalarField;
    location    "20.000098150058701";
    object      p;
}
// * * * * * * * * * * * * * * * * * * * * * * * * * * * * * * * * * * * * * //

dimensions      [1 -1 -2 0 0 0 0];

internalField   nonuniform List<scalar> 
6800
(
99169.9
99473.7
99583.3
99615.1
99624.6
99717
99749.9
99793.7
99846.2
99901.9
98948.7
99270.8
99566.6
99619.3
99620.7
99696.6
99760.3
99824.5
99882.9
99924.1
99021.3
98967
99360.4
99595.5
99605.5
99675.3
99754.8
99817.5
99873.5
99936.3
99307.6
99121.7
99141.4
99550.3
99598.2
99663.9
99729.3
99813.6
99894
99975.1
99661.1
100014
99335.5
99581.2
99609.7
99655.9
99723.9
99819.3
99892.6
99956
99672.9
100193
99244.1
99487.4
99532
99593.5
99660.6
99767.5
99858.1
99964.6
98762.3
99780.6
99011.3
99306.6
99389.6
99500.6
99589.1
99739.1
99841.1
99965.1
97624.1
99152
98654.4
99037.8
99166.6
99359.6
99487.8
99670.4
99782.6
99921.6
96362.6
98401.3
98231.7
98724
98967.4
99254
99428.8
99624.2
99750.6
99902.3
95350
97701.6
97719.7
98435.9
98750.4
99145.6
99391.3
99617
99751.1
99894.4
99794.8
99736.4
99682.1
99662.9
99654.8
99651.9
99652.7
99657.3
99665.7
99677.7
99778.5
99721.2
99673.6
99654.7
99646.9
99643.6
99643.5
99647.4
99655.6
99668.1
99742.4
99692.3
99655.4
99639.8
99632.4
99627.9
99626.9
99629.8
99638.3
99654.7
99694.1
99660.6
99634.6
99623.5
99616.6
99611.6
99609.3
99610.1
99620.8
99647.4
99646.3
99631.5
99617.1
99610.5
99604.5
99598.7
99594.2
99594
99610.4
99662.7
99604.3
99608.1
99603.5
99604.3
99603.5
99599.5
99594.2
99586.9
99600
99698.1
99565.3
99590.6
99598.3
99612.7
99618.2
99614.9
99607.1
99605.2
99604.8
99751.1
99523.5
99572.5
99605.2
99631.1
99641.6
99638.2
99628.1
99652.8
99634.9
99762.3
99465.6
99554.1
99612.3
99644.6
99658.4
99663.8
99661.6
99656.4
99698.9
99797
99363.6
99535.6
99598.3
99641.3
99663.4
99662.1
99710.1
99794.5
99788
99823.9
99696.8
99735.6
99786.2
99847.2
99917.2
99996.1
100083
100176
100273
100375
100478
100583
100687
100789
100889
100985
101076
101162
101241
101315
101382
101442
101496
101543
101584
101618
101647
101670
101688
101702
101712
101718
101720
101721
101718
101714
101709
101702
101694
101685
101676
101666
101656
101645
101634
101623
101613
101602
101591
101580
101570
101560
101549
101540
101530
101521
101512
101503
101495
101486
101479
101471
101464
101457
101450
101444
101438
101432
101427
101421
101416
101411
101407
101402
101398
101394
101390
101386
101383
101379
101376
101373
101369
101366
101364
101361
101358
101355
101353
101350
101348
101346
101343
101341
101338
101336
101334
101332
101329
101328
99684.1
99726.4
99777
99837.6
99908
99987.2
100074
100167
100264
100366
100470
100576
100681
100783
100883
100979
101071
101157
101237
101311
101378
101439
101493
101540
101581
101616
101645
101669
101687
101701
101710
101716
101719
101720
101717
101714
101708
101701
101694
101685
101676
101666
101655
101645
101634
101623
101612
101601
101591
101580
101570
101559
101549
101539
101530
101520
101511
101503
101494
101486
101478
101471
101464
101457
101450
101444
101438
101432
101426
101421
101416
101411
101407
101402
101398
101394
101390
101386
101382
101379
101376
101372
101369
101366
101364
101361
101358
101355
101353
101350
101348
101345
101343
101341
101338
101336
101334
101332
101329
101328
99666.6
99712.5
99761.9
99822.4
99893.2
99972.9
100061
100154
100250
100352
100456
100560
100665
100770
100871
100968
101060
101147
101228
101303
101371
101432
101487
101534
101576
101611
101641
101664
101683
101697
101707
101713
101717
101717
101715
101711
101706
101700
101692
101683
101674
101664
101654
101644
101633
101622
101611
101601
101590
101579
101569
101559
101548
101539
101529
101520
101511
101502
101494
101486
101478
101471
101463
101456
101450
101444
101437
101432
101426
101421
101416
101411
101406
101402
101398
101393
101390
101386
101382
101379
101375
101372
101369
101366
101363
101361
101358
101355
101353
101350
101348
101345
101343
101341
101338
101336
101334
101332
101329
101328
99652.5
99698.9
99748.6
99808.3
99878.1
99956.1
100041
100133
100232
100334
100438
100543
100648
100752
100853
100951
101044
101132
101213
101289
101358
101420
101475
101524
101566
101602
101632
101657
101676
101691
101701
101708
101711
101712
101710
101707
101702
101696
101689
101680
101671
101662
101652
101641
101631
101620
101609
101599
101588
101578
101567
101557
101547
101537
101528
101519
101510
101501
101493
101485
101477
101470
101463
101456
101449
101443
101437
101431
101426
101420
101415
101410
101406
101401
101397
101393
101389
101385
101382
101378
101375
101372
101369
101366
101363
101360
101358
101355
101353
101350
101348
101345
101343
101341
101338
101336
101334
101332
101329
101328
99655.7
99692.9
99741.6
99799.3
99866.7
99942.7
100026
100117
100214
100315
100419
100523
100628
100732
100833
100931
101025
101113
101195
101271
101340
101403
101459
101509
101552
101589
101620
101645
101665
101680
101691
101699
101703
101704
101703
101700
101696
101690
101684
101676
101667
101658
101648
101638
101627
101617
101607
101596
101586
101575
101565
101555
101545
101536
101526
101517
101508
101500
101492
101484
101476
101469
101461
101455
101448
101442
101436
101430
101425
101419
101414
101410
101405
101401
101396
101392
101389
101385
101381
101378
101375
101372
101368
101366
101363
101360
101357
101355
101352
101350
101347
101345
101343
101340
101338
101336
101333
101331
101329
101327
99686.2
99707
99749.4
99803.1
99866.6
99938.7
100020
100108
100202
100300
100402
100505
100609
100712
100813
100910
101003
101091
101174
101250
101319
101383
101439
101490
101533
101571
101603
101629
101650
101666
101678
101686
101691
101693
101693
101690
101687
101682
101676
101669
101661
101652
101643
101633
101622
101612
101602
101592
101582
101572
101562
101552
101542
101533
101524
101515
101506
101498
101490
101482
101474
101467
101460
101453
101447
101441
101435
101429
101424
101418
101413
101409
101404
101400
101396
101392
101388
101384
101381
101377
101374
101371
101368
101365
101362
101360
101357
101354
101352
101349
101347
101345
101342
101340
101338
101336
101333
101331
101329
101327
99745.4
99748.5
99778
99823.3
99881.2
99946.8
100025
100108
100198
100291
100389
100490
100591
100692
100791
100888
100980
101067
101149
101225
101295
101358
101415
101466
101510
101549
101581
101609
101631
101648
101661
101671
101676
101679
101680
101677
101675
101672
101666
101661
101651
101644
101635
101626
101616
101606
101597
101588
101578
101568
101558
101548
101539
101530
101521
101512
101504
101495
101487
101479
101472
101465
101458
101451
101445
101439
101433
101428
101422
101417
101412
101407
101403
101399
101395
101391
101387
101383
101380
101377
101373
101370
101367
101364
101362
101359
101356
101354
101351
101349
101347
101344
101342
101340
101338
101335
101333
101331
101329
101327
99788
99804.5
99829
99864.3
99912.3
99972.1
100039
100115
100203
100292
100385
100480
100577
100674
100770
100863
100953
101038
101119
101194
101263
101326
101383
101434
101480
101519
101553
101582
101605
101624
101639
101650
101657
101661
101663
101662
101663
101660
101656
101650
101642
101635
101626
101618
101609
101600
101591
101581
101571
101562
101553
101543
101534
101525
101517
101508
101500
101492
101484
101477
101469
101462
101456
101449
101443
101437
101431
101426
101421
101416
101411
101406
101402
101397
101393
101390
101386
101382
101379
101376
101372
101369
101366
101364
101361
101358
101356
101353
101351
101349
101346
101344
101342
101340
101337
101335
101333
101331
101328
101326
99789.6
99836
99880.1
99917
99958.3
100011
100068
100144
100224
100307
100393
100482
100573
100664
100755
100844
100930
101013
101090
101163
101231
101294
101350
101401
101447
101487
101521
101551
101576
101597
101613
101625
101635
101640
101644
101643
101646
101642
101640
101636
101630
101622
101615
101607
101600
101592
101583
101573
101564
101556
101547
101538
101530
101520
101512
101504
101496
101488
101481
101473
101466
101459
101453
101446
101440
101434
101429
101423
101418
101413
101409
101404
101400
101396
101392
101388
101384
101381
101378
101374
101371
101368
101365
101363
101360
101358
101355
101353
101350
101348
101346
101344
101341
101339
101337
101335
101333
101331
101328
101326
99837
99875.8
99927.6
99970.6
100010
100057
100111
100174
100244
100318
100397
100478
100562
100647
100731
100815
100896
100974
101049
101120
101187
101248
101305
101356
101402
101443
101479
101510
101537
101560
101578
101593
101604
101613
101617
101620
101622
101622
101622
101618
101612
101607
101601
101594
101588
101580
101572
101564
101555
101547
101539
101531
101523
101515
101507
101499
101491
101484
101477
101470
101463
101456
101450
101444
101438
101432
101427
101421
101417
101412
101407
101403
101398
101394
101390
101387
101383
101380
101376
101373
101370
101367
101364
101362
101359
101357
101354
101352
101350
101347
101345
101343
101341
101339
101337
101335
101333
101331
101328
101326
99907.8
99927.4
99988.6
100035
100073
100118
100169
100226
100291
100360
100433
100509
100587
100666
100745
100824
100900
100974
101045
101112
101174
101233
101287
101337
101382
101423
101458
101490
101517
101540
101558
101574
101585
101596
101598
101605
101608
101608
101608
101602
101597
101593
101587
101582
101575
101568
101561
101553
101546
101538
101530
101523
101515
101508
101500
101492
101484
101477
101470
101464
101457
101451
101445
101439
101433
101428
101423
101418
101413
101408
101404
101400
101396
101392
101388
101385
101381
101378
101375
101372
101369
101366
101363
101361
101358
101356
101354
101351
101349
101347
101345
101343
101341
101339
101337
101335
101332
101330
101328
101326
100001
100027
100088
100131
100166
100208
100257
100310
100369
100433
100499
100568
100639
100710
100783
100854
100925
100994
101060
101122
101181
101234
101285
101331
101373
101411
101444
101473
101499
101520
101538
101553
101564
101575
101578
101587
101590
101584
101584
101580
101578
101574
101569
101565
101559
101553
101546
101539
101532
101525
101518
101511
101504
101497
101490
101482
101475
101469
101462
101456
101450
101444
101439
101433
101428
101423
101418
101414
101409
101404
101400
101396
101392
101388
101385
101381
101378
101375
101372
101369
101367
101364
101361
101359
101357
101354
101352
101350
101348
101346
101344
101342
101340
101338
101336
101334
101332
101330
101329
101326
100095
100119
100171
100208
100240
100280
100325
100375
100429
100486
100547
100611
100676
100742
100809
100875
100940
101004
101066
101124
101178
101229
101276
101319
101359
101395
101427
101455
101479
101501
101519
101533
101546
101555
101564
101571
101570
101566
101567
101564
101563
101559
101555
101551
101546
101540
101534
101528
101522
101515
101509
101502
101495
101489
101482
101475
101469
101462
101456
101450
101445
101439
101434
101428
101423
101419
101414
101409
101405
101400
101397
101393
101389
101385
101382
101379
101376
101373
101370
101367
101365
101362
101360
101357
101355
101353
101351
101349
101347
101345
101343
101341
101339
101337
101335
101334
101332
101330
101328
101326
100174
100202
100250
100285
100318
100356
100399
100445
100495
100549
100605
100664
100723
100784
100845
100906
100965
101023
101078
101132
101182
101230
101274
101315
101352
101386
101415
101442
101465
101486
101503
101517
101529
101538
101548
101552
101549
101551
101553
101549
101547
101541
101539
101536
101531
101526
101521
101515
101509
101503
101497
101491
101485
101478
101472
101466
101460
101454
101448
101443
101437
101432
101427
101422
101417
101413
101409
101404
101400
101396
101392
101389
101385
101382
101379
101376
101373
101370
101368
101365
101362
101360
101358
101355
101353
101351
101349
101347
101345
101343
101342
101340
101338
101337
101335
101333
101331
101330
101328
101326
100250
100280
100327
100361
100391
100427
100466
100509
100555
100604
100655
100708
100762
100817
100873
100928
100983
101036
101088
101138
101185
101229
101270
101308
101342
101374
101402
101427
101449
101468
101485
101499
101510
101520
101527
101533
101532
101535
101535
101534
101530
101526
101525
101521
101517
101513
101508
101503
101498
101492
101487
101481
101475
101469
101463
101458
101452
101447
101441
101436
101431
101426
101422
101417
101413
101408
101404
101400
101396
101392
101389
101385
101382
101379
101376
101373
101370
101368
101365
101363
101361
101358
101356
101354
101352
101350
101348
101346
101344
101342
101341
101339
101338
101336
101334
101333
101331
101329
101328
101326
100329
100352
100400
100433
100462
100496
100533
100573
100615
100659
100706
100755
100805
100855
100906
100957
101007
101056
101103
101148
101190
101231
101269
101304
101336
101366
101392
101416
101437
101455
101471
101484
101495
101504
101512
101516
101517
101521
101520
101517
101514
101513
101511
101506
101503
101500
101495
101491
101486
101481
101476
101471
101465
101460
101454
101449
101444
101439
101434
101429
101424
101420
101415
101411
101407
101403
101399
101395
101392
101388
101385
101381
101378
101375
101373
101370
101367
101365
101363
101360
101358
101356
101354
101352
101350
101348
101346
101344
101343
101341
101340
101338
101337
101335
101334
101332
101331
101329
101327
101326
100404
100424
100473
100504
100531
100563
100597
100634
100672
100712
100755
100799
100844
100890
100936
100982
101027
101071
101114
101155
101195
101233
101268
101300
101330
101357
101382
101404
101424
101441
101456
101468
101479
101487
101495
101499
101502
101505
101503
101500
101498
101498
101495
101493
101491
101486
101482
101479
101474
101470
101465
101460
101455
101450
101445
101440
101435
101431
101426
101422
101418
101413
101409
101405
101402
101398
101394
101391
101387
101384
101381
101378
101375
101372
101370
101367
101365
101362
101360
101358
101356
101354
101352
101350
101348
101347
101345
101343
101342
101340
101339
101337
101336
101335
101333
101332
101330
101329
101327
101326
100482
100503
100546
100574
100600
100628
100660
100693
100728
100764
100803
100843
100883
100925
100967
101008
101050
101090
101129
101167
101203
101237
101269
101299
101327
101352
101374
101395
101413
101429
101443
101455
101465
101473
101481
101483
101490
101490
101486
101485
101485
101483
101482
101482
101477
101473
101470
101468
101464
101459
101455
101450
101445
101440
101436
101432
101427
101423
101419
101415
101411
101407
101403
101400
101396
101393
101389
101386
101383
101380
101377
101374
101371
101369
101366
101364
101362
101360
101358
101356
101354
101352
101350
101348
101347
101345
101343
101342
101340
101339
101337
101336
101335
101334
101332
101331
101330
101328
101327
101326
100567
100585
100618
100644
100667
100693
100721
100751
100782
100815
100850
100885
100922
100959
100997
101034
101071
101108
101143
101177
101210
101241
101270
101297
101323
101345
101366
101385
101402
101417
101430
101441
101451
101458
101465
101468
101475
101475
101473
101471
101472
101468
101468
101467
101461
101459
101459
101455
101451
101448
101444
101440
101435
101430
101426
101423
101419
101415
101411
101408
101404
101400
101397
101394
101390
101387
101384
101381
101378
101375
101373
101370
101368
101365
101363
101361
101359
101357
101355
101353
101351
101350
101348
101346
101345
101343
101342
101340
101339
101338
101337
101336
101334
101333
101332
101331
101329
101328
101327
101326
100645
100661
100688
100712
100733
100755
100780
100807
100835
100864
100895
100927
100960
100993
101027
101060
101094
101126
101158
101189
101218
101246
101273
101297
101320
101341
101361
101378
101393
101407
101419
101429
101438
101445
101451
101456
101459
101462
101460
101459
101457
101455
101454
101452
101450
101449
101448
101444
101440
101437
101433
101430
101425
101420
101418
101414
101411
101407
101404
101401
101397
101394
101391
101388
101385
101382
101379
101376
101374
101371
101369
101366
101364
101362
101360
101358
101356
101354
101352
101351
101349
101348
101346
101345
101343
101342
101341
101339
101338
101337
101336
101335
101334
101333
101331
101330
101329
101328
101327
101326
100719
100734
100758
100780
100797
100817
100839
100862
100887
100913
100940
100968
100997
101027
101057
101086
101116
101145
101173
101200
101227
101252
101275
101297
101318
101337
101355
101370
101384
101396
101407
101417
101425
101431
101437
101441
101444
101446
101445
101445
101444
101443
101442
101440
101439
101436
101434
101432
101429
101426
101423
101419
101414
101409
101407
101405
101402
101399
101396
101393
101390
101387
101385
101382
101379
101376
101374
101371
101369
101367
101364
101362
101360
101358
101356
101354
101353
101351
101350
101348
101347
101345
101344
101343
101341
101340
101339
101338
101337
101336
101335
101334
101333
101332
101331
101330
101329
101328
101326
101326
100791
100805
100828
100846
100860
100877
100895
100915
100937
100960
100984
101008
101034
101060
101086
101112
101138
101163
101188
101213
101236
101258
101279
101299
101317
101334
101350
101364
101376
101387
101397
101406
101413
101419
101424
101427
101431
101431
101433
101431
101431
101431
101431
101430
101426
101425
101423
101421
101420
101417
101414
101409
101405
101401
101400
101396
101393
101391
101389
101386
101384
101381
101379
101376
101374
101371
101369
101367
101365
101363
101360
101358
101356
101355
101353
101351
101350
101348
101347
101346
101344
101343
101342
101341
101340
101339
101338
101337
101336
101335
101334
101333
101332
101331
101330
101329
101328
101327
101326
101325
100861
100877
100898
100911
100922
100936
100951
100969
100988
101007
101027
101049
101070
101092
101115
101138
101160
101183
101204
101225
101245
101265
101283
101301
101317
101332
101345
101358
101369
101379
101387
101395
101401
101407
101410
101415
101416
101418
101418
101418
101418
101420
101419
101415
101415
101414
101410
101409
101410
101406
101403
101400
101396
101394
101391
101386
101384
101382
101380
101379
101377
101374
101372
101370
101368
101366
101364
101362
101360
101358
101356
101354
101352
101350
101349
101348
101347
101345
101344
101343
101342
101341
101340
101339
101338
101337
101336
101335
101334
101333
101333
101332
101331
101330
101330
101329
101328
101327
101326
101325
100928
100944
100965
100973
100983
100992
101005
101020
101036
101052
101069
101087
101105
101124
101144
101163
101182
101201
101220
101238
101255
101272
101288
101303
101317
101330
101341
101352
101361
101370
101378
101385
101390
101395
101398
101402
101403
101404
101404
101407
101406
101410
101408
101405
101406
101403
101401
101400
101398
101394
101393
101390
101387
101386
101382
101379
101376
101374
101373
101372
101370
101368
101366
101364
101362
101360
101359
101357
101355
101354
101352
101350
101349
101347
101346
101345
101344
101343
101342
101341
101339
101339
101338
101337
101336
101335
101335
101334
101333
101332
101332
101331
101330
101330
101329
101328
101328
101327
101326
101325
100992
101005
101031
101037
101042
101048
101056
101070
101084
101098
101111
101126
101141
101156
101172
101189
101205
101221
101236
101251
101266
101280
101293
101306
101317
101328
101338
101347
101355
101363
101369
101375
101379
101384
101387
101389
101391
101391
101392
101395
101393
101396
101395
101394
101393
101390
101392
101389
101386
101384
101382
101380
101378
101377
101374
101371
101368
101367
101366
101363
101363
101361
101359
101357
101356
101355
101353
101352
101351
101349
101348
101346
101345
101344
101342
101342
101341
101340
101339
101338
101337
101336
101336
101335
101334
101334
101333
101333
101332
101331
101331
101330
101330
101329
101328
101328
101327
101326
101326
101325
101054
101071
101081
101092
101099
101108
101112
101121
101133
101143
101152
101163
101175
101187
101201
101214
101227
101240
101252
101264
101276
101287
101298
101309
101318
101327
101335
101343
101349
101355
101360
101365
101369
101373
101375
101377
101379
101379
101381
101381
101382
101383
101381
101380
101378
101378
101379
101377
101374
101374
101372
101370
101369
101368
101365
101363
101362
101360
101359
101357
101356
101355
101353
101351
101351
101350
101348
101347
101346
101345
101344
101342
101342
101341
101340
101338
101338
101337
101336
101335
101335
101334
101334
101333
101332
101332
101332
101331
101331
101330
101330
101329
101329
101328
101328
101327
101327
101326
101326
101325
101122
101129
101126
101141
101150
101160
101167
101170
101181
101185
101193
101200
101209
101218
101229
101239
101249
101259
101268
101278
101287
101296
101304
101312
101319
101326
101333
101338
101344
101348
101352
101356
101359
101362
101364
101365
101367
101368
101370
101367
101370
101370
101368
101366
101366
101366
101365
101366
101363
101363
101361
101360
101358
101358
101356
101354
101353
101352
101351
101351
101350
101348
101346
101347
101345
101344
101343
101342
101341
101340
101339
101338
101338
101337
101337
101335
101335
101335
101334
101333
101332
101332
101332
101331
101331
101331
101330
101330
101329
101329
101329
101328
101328
101328
101327
101327
101326
101326
101326
101325
101189
101182
101186
101193
101201
101203
101219
101223
101223
101222
101234
101237
101242
101248
101257
101265
101272
101278
101284
101291
101298
101304
101310
101315
101321
101326
101330
101334
101338
101341
101344
101346
101349
101350
101353
101354
101356
101356
101356
101355
101356
101357
101355
101353
101353
101353
101352
101353
101352
101352
101350
101350
101349
101349
101346
101345
101345
101344
101344
101344
101343
101341
101341
101342
101339
101338
101338
101337
101336
101336
101335
101335
101334
101334
101333
101333
101332
101332
101332
101331
101331
101330
101330
101330
101329
101329
101329
101328
101328
101328
101328
101327
101327
101327
101327
101326
101326
101326
101325
101325
101244
101240
101242
101242
101251
101250
101266
101266
101264
101269
101272
101275
101275
101277
101286
101290
101295
101298
101299
101305
101309
101312
101316
101319
101322
101325
101328
101330
101333
101335
101337
101338
101340
101340
101342
101343
101344
101344
101343
101344
101344
101343
101343
101343
101343
101342
101342
101341
101342
101342
101339
101341
101339
101340
101338
101338
101337
101337
101337
101336
101336
101335
101335
101335
101333
101334
101332
101332
101331
101331
101332
101331
101330
101330
101329
101330
101329
101329
101329
101329
101329
101328
101328
101327
101328
101327
101327
101327
101327
101327
101327
101326
101326
101326
101326
101326
101326
101325
101325
101325
101297
101297
101297
101295
101300
101300
101306
101304
101307
101312
101308
101311
101309
101310
101313
101314
101316
101317
101316
101319
101320
101321
101322
101323
101324
101325
101326
101327
101328
101328
101329
101330
101330
101331
101331
101332
101331
101331
101331
101332
101332
101331
101332
101331
101332
101331
101330
101330
101331
101330
101329
101330
101329
101329
101329
101330
101328
101328
101328
101328
101328
101328
101329
101328
101328
101328
101327
101328
101327
101327
101328
101327
101327
101327
101326
101326
101326
101326
101326
101327
101326
101326
101326
101326
101326
101326
101326
101326
101326
101326
101326
101326
101325
101325
101325
101325
101325
101325
101325
101325
100034
100039
100043
100056
100069
100037
100037
100020
99988.6
99961.6
100160
100149
100135
100121
100127
100128
100110
100089
100069
100054
100273
100255
100240
100218
100202
100201
100199
100172
100137
100127
100360
100343
100329
100305
100291
100277
100264
100253
100208
100192
100455
100436
100419
100394
100379
100365
100338
100332
100293
100264
100539
100517
100497
100475
100453
100444
100416
100405
100378
100344
100618
100596
100573
100554
100529
100520
100495
100479
100460
100432
100691
100669
100645
100628
100602
100592
100570
100551
100536
100515
100759
100738
100714
100698
100675
100660
100643
100621
100607
100592
100822
100802
100781
100763
100745
100727
100712
100691
100677
100663
100882
100863
100844
100827
100810
100792
100779
100758
100746
100734
100939
100920
100905
100888
100874
100855
100845
100822
100810
100802
100992
100976
100962
100947
100936
100916
100909
100889
100871
100865
101043
101029
101017
101004
100997
100975
100967
100955
100936
100923
101092
101081
101072
101059
101054
101037
101022
101019
101004
100992
101139
101130
101121
101115
101106
101096
101080
101079
101068
101061
101186
101182
101172
101161
101156
101157
101141
101139
101130
101130
101227
101221
101217
101209
101207
101211
101197
101195
101189
101188
101264
101263
101258
101263
101254
101260
101255
101250
101250
101240
101304
101307
101304
101305
101299
101305
101307
101302
101303
101297
101759
101720
101671
101568
101427
101194
100918
100417
99922.8
98446.7
101466
101354
101257
101109
100916
100651
100307
99686.3
99101
97380.4
101172
101016
100888
100697
100460
100093
99705.6
98989.9
98359.2
96458.1
100880
100686
100527
100300
100033
99661.3
99208.2
98411.2
97650.4
95792.1
100611
100415
100243
99986.5
99672.5
99214.7
98764.8
97943.6
97228.7
95199.1
100384
100156
99955.5
99682.8
99384.4
98937.8
98428.5
97655.7
96943.8
94584.9
100198
99999.8
99808.9
99516.3
99163.8
98681.6
98117.4
97345.9
96814
94278.8
100045
99800.1
99609
99365.3
99044
98603.2
98107.4
97276.3
96687.2
94235.6
99948.6
99761.2
99577.2
99305.7
98999.4
98553.8
98120.8
97299.8
96964.2
94054.3
99942.6
99795.1
99609.6
99325
99050.5
98598
98212
97416.3
97169.5
94389.9
104087
104278
104491
104721
104979
105250
105546
105832
106088
106300
104059
104254
104462
104692
104935
105208
105482
105762
105984
106211
103937
104123
104312
104525
104745
104988
105240
105475
105660
105844
103787
103946
104131
104297
104509
104690
104907
105082
105185
105251
103577
103721
103882
104041
104193
104377
104512
104629
104655
104575
103337
103463
103587
103710
103825
103908
104047
104060
103991
103766
103071
103168
103283
103331
103437
103467
103462
103431
103262
102821
102751
102804
102922
102928
102922
102913
102859
102721
102486
101786
102452
102457
102543
102516
102445
102361
102222
101952
101630
100689
102083
102069
102084
102044
101930
101791
101587
101195
100772
99552.2
101328
101328
101328
101328
101329
101329
101329
101329
101329
101329
101330
101330
101330
101331
101331
101331
101332
101332
101333
101334
101334
101335
101336
101336
101337
101338
101339
101340
101341
101342
101343
101344
101346
101347
101348
101350
101352
101353
101355
101357
101359
101361
101363
101365
101368
101371
101374
101377
101380
101383
101388
101391
101396
101400
101406
101411
101418
101423
101431
101437
101446
101454
101464
101473
101484
101495
101508
101520
101536
101550
101568
101584
101606
101625
101649
101671
101700
101726
101758
101789
101827
101863
101907
101950
102002
102052
102113
102174
102247
102319
102407
102497
102605
102717
102852
102996
103169
103359
103589
103844
101328
101328
101328
101328
101328
101329
101329
101329
101329
101329
101330
101330
101330
101331
101331
101331
101332
101332
101333
101334
101334
101335
101336
101336
101337
101338
101339
101340
101341
101342
101343
101344
101346
101347
101348
101350
101352
101353
101355
101357
101359
101361
101363
101365
101368
101371
101374
101377
101380
101383
101388
101391
101396
101400
101406
101411
101418
101423
101431
101437
101446
101454
101464
101473
101484
101495
101508
101520
101536
101550
101568
101584
101606
101624
101649
101671
101700
101725
101759
101788
101828
101862
101908
101949
102003
102051
102114
102172
102247
102317
102407
102493
102603
102712
102847
102986
103159
103342
103569
103815
101328
101328
101328
101328
101328
101329
101329
101329
101329
101329
101330
101330
101330
101331
101331
101331
101332
101332
101333
101334
101334
101335
101336
101336
101337
101338
101339
101340
101341
101342
101343
101344
101346
101347
101348
101350
101351
101353
101355
101356
101359
101361
101363
101365
101368
101370
101374
101376
101380
101383
101388
101391
101396
101400
101406
101411
101417
101423
101430
101437
101446
101453
101463
101472
101484
101495
101508
101520
101536
101550
101568
101584
101605
101625
101649
101671
101699
101726
101758
101789
101826
101863
101906
101949
102000
102051
102111
102171
102242
102316
102399
102490
102591
102703
102829
102968
103127
103304
103507
103734
101328
101328
101328
101328
101328
101329
101329
101329
101329
101329
101330
101330
101330
101331
101331
101331
101332
101332
101333
101333
101334
101335
101336
101336
101337
101338
101339
101340
101341
101342
101343
101344
101345
101347
101348
101349
101351
101353
101355
101356
101358
101360
101363
101365
101368
101370
101373
101376
101380
101383
101387
101391
101396
101400
101406
101411
101417
101423
101430
101437
101445
101453
101463
101472
101484
101494
101508
101520
101535
101550
101568
101584
101605
101625
101649
101671
101699
101726
101758
101789
101827
101862
101907
101948
102001
102049
102111
102168
102242
102309
102397
102477
102584
102682
102811
102933
103089
103240
103430
103611
101328
101328
101328
101328
101328
101328
101329
101329
101329
101329
101330
101330
101330
101330
101331
101331
101332
101332
101333
101333
101334
101335
101335
101336
101337
101338
101339
101340
101341
101342
101343
101344
101345
101346
101348
101349
101351
101352
101354
101356
101358
101360
101363
101365
101367
101370
101373
101376
101380
101383
101387
101391
101395
101400
101405
101410
101417
101422
101430
101437
101445
101453
101463
101472
101483
101494
101507
101520
101535
101550
101567
101584
101604
101624
101648
101671
101698
101725
101757
101788
101825
101862
101905
101947
101997
102047
102106
102165
102233
102303
102384
102466
102562
102660
102774
102890
103023
103155
103304
103446
101328
101328
101328
101328
101328
101328
101329
101329
101329
101329
101329
101330
101330
101330
101331
101331
101332
101332
101333
101333
101334
101335
101335
101336
101337
101338
101339
101339
101341
101341
101343
101344
101345
101346
101348
101349
101351
101352
101354
101356
101358
101360
101362
101364
101367
101370
101373