/*--------------------------------*- C++ -*----------------------------------*\
  =========                 |
  \\      /  F ield         | OpenFOAM: The Open Source CFD Toolbox
   \\    /   O peration     | Website:  https://openfoam.org
    \\  /    A nd           | Version:  8
     \\/     M anipulation  |
\*---------------------------------------------------------------------------*/
FoamFile
{
    version     2.0;
    format      ascii;
    class       surfaceScalarField;
    location    "20.000098150058701";
    object      phi;
}
// * * * * * * * * * * * * * * * * * * * * * * * * * * * * * * * * * * * * * //

dimensions      [1 0 -1 0 0 0 0];

internalField   nonuniform List<scalar> 
13330
(
-0.141353
1.06217
-0.920818
0.367779
-0.419491
-0.0896406
1.02802
-1.18793
0.527688
1.95969
-2.02654
1.09486
2.89331
-2.70576
1.77214
3.56628
-3.02887
2.35589
3.98139
-3.14524
2.73013
4.28983
-3.17819
2.86975
4.5377
-3.18869
2.94082
-3.19274
2.96358
4.76686
0.0611907
1.00098
0.789099
-1.1474
1.67853
-2.07736
2.58158
-2.92958
3.16231
-3.28649
3.51565
-3.38222
3.77614
-3.40573
4.0021
-3.40416
4.20841
-3.395
-3.37407
4.38974
0.350602
0.650379
1.25764
-2.05444
2.16236
-2.98208
2.71037
-3.47758
3.02514
-3.60126
3.26393
-3.62101
3.47177
-3.61356
3.65822
-3.5906
3.83519
-3.57197
-3.53371
3.99483
0.694396
-0.0440175
1.62725
-2.9873
2.23734
-3.59217
2.55236
-3.79261
2.76728
-3.81618
2.95634
-3.81007
3.12707
-3.7843
3.28814
-3.75167
3.4351
-3.71894
-3.68834
3.58973
1.24573
-1.28975
1.83042
-3.57199
2.09818
-3.85993
2.30602
-4.00044
2.47149
-3.98165
2.63193
-3.97051
2.76969
-3.92206
2.90247
-3.88446
3.04091
-3.85738
-3.83512
3.1877
1.07864
-2.36839
1.47898
-3.97233
1.74624
-4.12719
1.95097
-4.20518
2.10941
-4.14009
2.25631
-4.11741
2.38979
-4.05553
2.52755
-4.02222
2.66491
-3.99474
-3.95896
2.78875
0.835026
-3.20341
1.25146
-4.38876
1.48094
-4.35667
1.67778
-4.40203
1.80768
-4.26999
1.9358
-4.24553
2.055
-4.17473
2.16947
-4.13669
2.27983
-4.1051
-4.06471
2.38558
0.663098
-3.86651
0.960468
-4.68613
1.1608
-4.55699
1.32631
-4.56754
1.45888
-4.40256
1.57865
-4.3653
1.68679
-4.28287
1.78569
-4.2356
1.88125
-4.20066
-4.1613
1.97785
0.515361
-4.38187
0.759209
-4.92998
0.927404
-4.72519
1.05119
-4.69132
1.15136
-4.50273
1.23607
-4.45
1.31369
-4.3605
1.39273
-4.31463
1.46571
-4.27364
-4.23402
1.53843
0.351999
-4.73387
0.554833
-5.13282
0.695861
-4.86622
0.775372
-4.77083
0.860579
-4.58793
0.924958
-4.51438
0.971607
-4.40715
1.01721
-4.36023
1.06873
-4.32516
1.12939
-4.29468
-0.152284
0.152284
-0.274773
0.122489
-0.381491
0.106718
-0.480765
0.0992742
-0.575497
0.0947316
-0.667197
0.0917003
-0.756185
0.0889876
-0.841543
0.0853584
-0.922474
0.0809315
0.0761344
-0.998609
-0.139663
0.291947
-0.255559
0.238385
-0.354389
0.205548
-0.44446
0.189345
-0.528515
0.178786
-0.607724
0.17091
-0.682348
0.163612
-0.750142
0.153152
-0.809469
0.140258
0.125551
-0.858886
-0.124716
0.416663
-0.220171
0.33384
-0.30167
0.287047
-0.371839
0.259514
-0.433476
0.240423
-0.486581
0.224014
-0.530328
0.207359
-0.562359
0.185183
-0.577516
0.155415
0.120424
-0.572389
-0.101371
0.518034
-0.171846
0.404314
-0.22733
0.342531
-0.268803
0.300986
-0.297
0.26862
-0.311939
0.238954
-0.31089
0.20631
-0.290237
0.16453
-0.238156
0.103334
0.0254151
-0.143147
-0.0707021
0.588736
-0.113707
0.447319
-0.13821
0.367034
-0.14329
0.306066
-0.125252
0.250582
-0.0823381
0.19604
-0.0160283
0.14
0.0773421
0.0711597
0.221079
-0.0404027
-0.209535
0.456029
-0.0478481
0.636585
-0.0616471
0.461118
-0.0528277
0.358215
-0.00883814
0.262077
0.0750802
0.166663
0.19354
0.0775801
0.362191
-0.0286508
0.59557
-0.162219
0.909825
-0.354658
-0.662771
1.36306
-0.0333981
0.669983
-0.0278278
0.455547
0.023352
0.307035
0.140346
0.145083
0.314046
-0.00703705
0.561129
-0.169504
0.922776
-0.390298
1.41118
-0.650619
1.98616
-0.929641
-1.3563
2.67969
-0.0459675
0.71595
-0.0168848
0.426465
0.114221
0.175928
0.336513
-0.0772082
0.660915
-0.33144
1.12858
-0.637168
1.76508
-1.0268
2.53026
-1.4158
3.39109
-1.79047
-2.14371
4.1785
-0.0748161
0.790766
0.010262
0.341386
0.270558
-0.0843673
0.658497
-0.465148
1.22605
-0.898988
1.98828
-1.3994
2.89823
-1.93674
3.79321
-2.31079
4.55817
-2.55543
-2.66598
5.08043
-0.130052
0.121694
0.565015
1.19473
2.06789
3.02438
3.81777
4.37673
4.76213
5.05974
-1.03954
0.0409336
-1.06062
0.0210767
-1.06372
0.00310012
-1.05093
-0.0127865
-1.02297
-0.0279618
-0.98118
-0.0417913
-0.92658
-0.0546001
-0.860543
-0.0660371
-0.783871
-0.076672
-0.697285
-0.0865859
-0.601964
-0.0953207
-0.498285
-0.103679
-0.388058
-0.110227
-0.2722
-0.115858
-0.152204
-0.119996
-0.027591
-0.124613
0.10116
-0.128751
0.232459
-0.131299
0.365934
-0.133475
0.500317
-0.134383
0.634668
-0.134351
0.768333
-0.133665
0.900685
-0.132352
1.03115
-0.13046
1.15917
-0.128024
1.28426
-0.125091
1.40597
-0.121708
1.52391
-0.117947
1.63779
-0.113878
1.74738
-0.109583
1.85252
-0.105144
1.95316
-0.100639
2.0493
-0.0961403
2.14102
-0.0917177
2.22844
-0.0874247
2.31175
-0.0833065
2.39115
-0.0793999
2.46685
-0.0757008
2.53907
-0.0722214
2.60799
-0.0689201
2.67378
-0.0657859
2.7366
-0.0628184
2.79659
-0.0599953
2.85389
-0.0572973
2.90862
-0.0547282
2.9609
-0.0522798
3.01084
-0.0499466
3.05854
-0.0476999
3.10407
-0.0455246
3.14748
-0.0434143
3.18886
-0.0413753
3.22826
-0.0394075
3.26578
-0.0375177
3.30149
-0.0357078
3.33547
-0.0339803
3.36781
-0.0323402
3.39859
-0.0307842
3.4279
-0.0293098
3.45582
-0.0279138
3.48241
-0.0265952
3.50777
-0.0253524
3.53195
-0.0241816
3.55503
-0.0230805
3.57707
-0.0220422
3.59813
-0.0210643
3.61827
-0.0201393
3.63754
-0.0192641
3.65597
-0.0184338
3.67362
-0.0176445
3.69051
-0.0168946
3.70669
-0.0161801
3.72219
-0.0154993
3.73704
-0.0148502
3.75127
-0.0142329
3.76492
-0.0136458
3.77801
-0.0130894
3.79057
-0.012562
3.80263
-0.0120639
3.81423
-0.0115929
3.82537
-0.0111484
3.8361
-0.010728
3.84643
-0.0103303
3.85639
-0.00995284
3.86598
-0.00959374
3.87523
-0.00925103
3.88415
-0.00892268
3.89276
-0.00860708
3.90106
-0.00830243
3.90907
-0.00800828
3.91679
-0.00772211
3.92424
-0.00744627
3.93141
-0.00717416
3.93833
-0.00691726
3.94498
-0.00665321
3.95141
-0.00642223
3.95756
-0.00615146
3.96352
-0.00596636
3.96918
-0.00565346
3.97473
-0.00555317
-0.0049423
-0.884375
0.0664232
-0.894911
0.0316123
-0.889451
-0.00235957
-0.868879
-0.0333589
-0.834601
-0.0622399
-0.787789
-0.0886034
-0.729338
-0.113051
-0.660696
-0.134679
-0.582322
-0.155047
-0.494892
-0.174016
-0.400412
-0.1898
-0.301346
-0.202746
-0.195519
-0.216054
-0.0814146
-0.229962
0.0392087
-0.240619
0.16406
-0.249465
0.291157
-0.255848
0.420249
-0.260391
0.550164
-0.263391
0.680463
-0.264682
0.810528
-0.264415
0.939706
-0.262843
1.06743
-0.260073
1.19319
-0.256221
1.31651
-0.251344
1.43695
-0.245532
1.55409
-0.238855
1.66759
-0.231447
1.77715
-0.22343
1.88252
-0.214961
1.98357
-0.206192
2.08021
-0.197276
2.17244
-0.188367
2.26032
-0.179599
2.34398
-0.171086
2.42359
-0.162922
2.4994
-0.155204
2.5716
-0.147908
2.64045
-0.141065
2.7061
-0.134574
2.76873
-0.128411
2.8285
-0.122593
2.88557
-0.117067
2.94006
-0.111783
2.99208
-0.106754
3.04177
-0.101969
3.08925
-0.0974249
3.1346
-0.0930503
3.17789
-0.0888089
3.21916
-0.0846874
3.25849
-0.0807034
3.29593
-0.0768544
3.33157
-0.0731577
3.36548
-0.0696154
3.39774
-0.0662344
3.42842
-0.0630267
3.45762
-0.0599845
3.48542
-0.0571026
3.51188
-0.0543742
3.53708
-0.0517984
3.5611
-0.0493723
3.58401
-0.0470883
3.60587
-0.0449425
3.62675
-0.0429197
3.6467
-0.0410161
3.66577
-0.039215
3.68402
-0.0375118
3.70148
-0.0358955
3.7182
-0.0343591
3.7342
-0.0329001
3.74953
-0.0315096
3.76422
-0.0301851
3.77829
-0.0289224
3.79178
-0.0277227
3.80472
-0.0265821
3.81713
-0.025502
3.82905
-0.0244787
3.84049
-0.0235129
3.8515
-0.0225997
3.86209
-0.0217383
3.87229
-0.0209231
3.88211
-0.0201518
3.89157
-0.0194194
3.9007
-0.0187221
3.90951
-0.0180565
3.918
-0.0174181
3.9262
-0.0168044
3.93411
-0.0162113
3.94174
-0.0156394
3.9491
-0.0150817
3.9562
-0.0145464
3.96304
-0.014015
3.96964
-0.0135196
3.97599
-0.0130013
3.98213
-0.012563
3.98801
-0.0120251
3.99372
-0.011685
3.99912
-0.0110511
4.00442
-0.0108521
-0.00999237
-0.575792
0.0698269
-0.565569
0.021389
-0.542841
-0.0250883
-0.508295
-0.0679041
-0.464042
-0.106494
-0.412059
-0.140586
-0.354704
-0.170406
-0.288183
-0.201201
-0.209485
-0.233744
-0.122047
-0.261454
-0.0262547
-0.285592
0.0787533
-0.307754
0.190059
-0.32736
0.303909
-0.343812
0.420962
-0.357672
0.540521
-0.369024
0.662024
-0.377351
0.784614
-0.382981
0.907514
-0.386291
1.03024
-0.387412
1.15228
-0.38645
1.27311
-0.38367
1.39226
-0.379224
1.50932
-0.37328
1.62385
-0.365878
1.73547
-0.357152
1.8438
-0.347184
1.94851
-0.336161
2.04935
-0.324265
2.14612
-0.31173
2.23871
-0.298786
2.3271
-0.28566
2.4113
-0.272571
2.4914
-0.259703
2.56755
-0.24723
2.63989
-0.235269
2.70872
-0.224025
2.77422
-0.21341
2.83663
-0.20348
2.89612
-0.194058
2.95279
-0.185086
3.00686
-0.176659
3.05845
-0.168657
3.10765
-0.160987
3.15459
-0.153688
3.19937
-0.146751
3.24214
-0.140199
3.28298
-0.133889
3.32193
-0.127756
3.35903
-0.121786
3.39434
-0.116021
3.42794
-0.110447
3.45988
-0.105101
3.49024
-0.0999784
3.5191
-0.0950922
3.54654
-0.0904664
3.57264
-0.0860821
3.59747
-0.0819318
3.6211
-0.0780034
3.6436
-0.0742978
3.66504
-0.0708121
3.68548
-0.0675331
3.705
-0.0644576
3.72363
-0.0615573
3.74145
-0.0588321
3.75849
-0.0562507
3.77479
-0.0538115
3.79038
-0.051495
3.80532
-0.0492928
3.81962
-0.0472038
3.83332
-0.0452121
3.84646
-0.0433157
3.85904
-0.0415081
3.87111
-0.0397928
3.88269
-0.0381627
3.89381
-0.0366217
3.90449
-0.0351619
3.91477
-0.0337862
3.92465
-0.032485
3.93417
-0.0312588
3.94335
-0.0300974
3.95219
-0.0289986
3.96073
-0.0279542
3.96897
-0.0269593
3.97692
-0.0260089
3.9846
-0.0250965
3.99201
-0.0242193
3.99917
-0.0233704
4.00609
-0.0225532
4.01276
-0.0217543
4.0192
-0.0209913
4.02542
-0.0202296
4.03143
-0.0195279
4.03721
-0.0187837
4.04282
-0.0181709
4.04819
-0.017398
4.05344
-0.0169317
4.05842
-0.016039
4.06333
-0.0157581
-0.0146484
-0.114147
0.0408267
-0.0821556
-0.0106021
-0.043529
-0.063715
0.00243533
-0.113868
0.0558787
-0.159937
0.117589
-0.202297
0.190984
-0.2438
0.272017
-0.282234
0.356276
-0.318004
0.445526
-0.350704
0.540015
-0.380081
0.639437
-0.407177
0.743332
-0.431254
0.850885
-0.451365
0.961038
-0.467826
1.07286
-0.480844
1.1857
-0.49019
1.29889
-0.496169
1.41175
-0.499152
1.52379
-0.499453
1.63455
-0.497207
1.74369
-0.492817
1.85082
-0.486355
1.95562
-0.478076
2.05769
-0.467947
2.15672
-0.456185
2.25239
-0.44285
2.34445
-0.428229
2.43274
-0.412545
2.51712
-0.39612
2.5976
-0.379259
2.67419
-0.362247
2.74698
-0.34537
2.81609
-0.328808
2.88167
-0.312807
2.94381
-0.297415
3.00289
-0.283105
3.05909
-0.269606
3.11261
-0.257004
3.1636
-0.245043
3.21206
-0.233547
3.25826
-0.22286
3.30231
-0.212707
3.34425
-0.202923
3.38416
-0.193596
3.42215
-0.184746
3.45841
-0.176462
3.493
-0.168477
3.52593
-0.160682
3.55722
-0.153077
3.58695
-0.145753
3.61517
-0.138668
3.64196
-0.131893
3.66738
-0.125399
3.69151
-0.119215
3.71442
-0.113383
3.7362
-0.107862
3.75691
-0.102641
3.77661
-0.0977013
3.79536
-0.0930475
3.81323
-0.0886792
3.83027
-0.084573
3.84654
-0.0807317
3.86209
-0.0771043
3.87696
-0.0737052
3.89119
-0.0704765
3.90481
-0.0674311
3.91785
-0.0645329
3.93033
-0.061778
3.9423
-0.0591697
3.95377
-0.0566807
3.96476
-0.0543127
3.97531
-0.0520553
3.98543
-0.049918
3.99516
-0.0478871
4.00451
-0.045972
4.0135
-0.0441575
4.02217
-0.0424519
4.03052
-0.0408371
4.03858
-0.0393182
4.04636
-0.0378772
4.05388
-0.0365149
4.06114
-0.0352176
4.06816
-0.0339813
4.07495
-0.0327996
4.08152
-0.0316635
4.08787
-0.0305716
4.09402
-0.0295133
4.09996
-0.0284971
4.10571
-0.0275007
4.11127
-0.0265555
4.11665
-0.0256051
4.12186
-0.0247431
4.12689
-0.0238143
4.13179
-0.0230731
4.13651
-0.022112
4.14114
-0.0215607
4.14558
-0.0204775
4.14996
-0.0201455
-0.0188527
0.516549
-0.0196936
0.575798
-0.0698504
0.63523
-0.123147
0.696792
-0.175431
0.761762
-0.224907
0.830105
-0.27064
0.904474
-0.318169
0.982612
-0.360371
1.0645
-0.39989
1.14959
-0.435794
1.23789
-0.468387
1.32918
-0.498461
1.42331
-0.525391
1.5201
-0.548155
1.61872
-0.566445
1.7183
-0.580421
1.81827
-0.590157
1.91809
-0.595992
2.01712
-0.598182
2.11498
-0.59731
2.21127
-0.593499
2.30577
-0.587317
2.39805
-0.578633
2.48784
-0.567871
2.57476
-0.554865
2.65858
-0.540005
2.73901
-0.523284
2.81593
-0.505147
2.88923
-0.48584
2.95889
-0.465789
3.02502
-0.445382
3.0877
-0.424925
3.14712
-0.404796
3.20337
-0.38506
3.25669
-0.366124
3.3069
-0.347623
3.35463
-0.33084
3.40004
-0.315012
3.44323
-0.300193
3.4844
-0.286213
3.52326
-0.272416
3.56033
-0.259928
3.59564
-0.248011
3.62915
-0.236438
3.66087
-0.225314
3.69094
-0.214813
3.71961
-0.205131
3.74692
-0.195796
3.77283
-0.186592
3.79735
-0.177591
3.82057
-0.168972
3.84252
-0.160618
3.8633
-0.152678
3.88296
-0.145057
3.90156
-0.137817
3.91921
-0.131034
3.93597
-0.124617
3.95189
-0.118563
3.96703
-0.112837
3.98143
-0.107452
3.99516
-0.102414
4.00827
-0.0976792
4.02081
-0.0932686
4.03279
-0.0890893
4.04428
-0.0851928
4.05527
-0.0814695
4.06581
-0.0779718
4.07591
-0.0746273
4.08558
-0.071451
4.09486
-0.0684541
4.10377
-0.0655884
4.11233
-0.0628659
4.12054
-0.0602692
4.12844
-0.0578195
4.13604
-0.0554903
4.14338
-0.0533032
4.15045
-0.0512288
4.15728
-0.0492873
4.16389
-0.0474447
4.17029
-0.0457183
4.17649
-0.0440744
4.1825
-0.0425241
4.18832
-0.0410428
4.19397
-0.0396315
4.19945
-0.038282
4.20477
-0.0369823
4.20994
-0.0357342
4.21494
-0.0345222
4.21981
-0.033363
4.22453
-0.0322222
4.22913
-0.0311497
4.23358
-0.0300617
4.23793
-0.0290941
4.24215
-0.0280326
4.24629
-0.0272159
4.25031
-0.0261258
4.25428
-0.025535
4.25815
-0.024342
4.262
-0.023997
-0.0226105
1.41099
-0.0676237
1.46374
-0.122603
1.51747
-0.176871
1.57239
-0.230349
1.6301
-0.282619
1.68809
-0.328629
1.75242
-0.382506
1.81746
-0.425404
1.88527
-0.467706
1.95582
-0.50634
2.02962
-0.54219
2.1062
-0.57504
2.18497
-0.604165
2.26558
-0.628767
2.34758
-0.648443
2.43042
-0.663256
2.51343
-0.673173
2.59617
-0.678728
2.67805
-0.680061
2.75883
-0.678097
2.83802
-0.67269
2.91548
-0.664771
2.99066
-0.653816
3.06342
-0.640628
3.13329
-0.624732
3.20014
-0.606857
3.2637
-0.586841
3.32394
-0.565395
3.38084
-0.542741
3.4345
-0.519441
3.4851
-0.495991
3.53281
-0.472633
3.57797
-0.449951
3.62054
-0.42763
3.66113
-0.406715
3.69849
-0.384985
3.73427
-0.366621
3.7684
-0.349143
3.80061
-0.332397
3.8317
-0.317302
3.86023
-0.300953
3.88775
-0.287442
3.91387
-0.274137
3.93864
-0.26121
3.96169
-0.248359
3.98339
-0.236516
4.00406
-0.225802
4.02385
-0.215584
4.04242
-0.205162
4.05985
-0.195018
4.07628
-0.185401
4.09169
-0.176035
4.10624
-0.167228
4.11992
-0.158734
4.13281
-0.150706
4.14503
-0.143257
4.15662
-0.136204
4.16764
-0.129583
4.17812
-0.123318
4.18811
-0.117442
4.19766
-0.111967
4.2068
-0.106814
4.21558
-0.102046
4.22398
-0.0974919
4.23208
-0.0932874
4.23982
-0.0892194
4.24729
-0.0854341
4.25443
-0.0817735
4.26129
-0.0783092
4.2679
-0.0750608
4.27425
-0.0719412
4.28037
-0.0689848
4.28626
-0.0661611
4.29196
-0.0635136
4.29746
-0.0609911
4.30279
-0.0586396
4.30797
-0.0564024
4.313
-0.0543247
4.3179
-0.0523424
4.32268
-0.0504991
4.32734
-0.0487308
4.33189
-0.0470731
4.33632
-0.0454785
4.34066
-0.0439631
4.34489
-0.0425127
4.34902
-0.0411135
4.35306
-0.0397716
4.357
-0.0384661
4.36086
-0.037224
4.36463
-0.0359964
4.36834
-0.0348552
4.37196
-0.0336862
4.37554
-0.0326704
4.37904
-0.0315357
4.38252
-0.0306966
4.38595
-0.0295466
4.38937
-0.0289586
4.39277
-0.0277469
4.3962
-0.0274274
-0.0260439
2.6611
-0.049041
2.65051
-0.112007
2.64937
-0.175731
2.6558
-0.236782
2.6714
-0.298216
2.6888
-0.346029
2.72067
-0.414382
2.75393
-0.45866
2.79322
-0.506992
2.83725
-0.550377
2.88685
-0.591788
2.94048
-0.628671
2.99722
-0.6609
3.05644
-0.687992
3.11742
-0.709418
3.17951
-0.725348
3.24193
-0.735597
3.3043
-0.741091
3.36588
-0.741648
3.42658
-0.738793
3.4857
-0.731815
3.54335
-0.722414
3.59876
-0.709228
3.65198
-0.693848
3.70241
-0.675163
3.75013
-0.654572
3.79485
-0.631565
3.83669
-0.607238
3.87574
-0.581791
3.9122
-0.555899
3.94639
-0.53018
3.97842
-0.504665
4.00883
-0.480355
4.03727
-0.456075
4.06533
-0.434774
4.08925
-0.408908
4.11323
-0.3906
4.13608
-0.371987
4.15689
-0.353207
4.17839
-0.33881
4.19615
-0.318714
4.21435
-0.305639
4.23134
-0.291128
4.24772
-0.277585
4.26217
-0.262813
4.27579
-0.250138
4.28872
-0.238728
4.3015
-0.228364
4.31306
-0.216724
4.32373
-0.20569
4.33373
-0.1954
4.343
-0.185297
4.35175
-0.175978
4.35987
-0.166854
4.36751
-0.158354
4.37481
-0.150553
4.38172
-0.143112
4.38835
-0.136218
4.3947
-0.129663
4.40078
-0.123525
4.40665
-0.117835
4.41228
-0.11245
4.41776
-0.107525
4.42301
-0.102741
4.42814
-0.098413
4.43303
-0.0941159
4.43781
-0.0902064
4.44236
-0.0863297
4.44675
-0.0826979
4.45102
-0.0793279
4.45514
-0.0760664
4.45915
-0.0729909
4.46303
-0.0700443
4.46683
-0.0673101
4.47053
-0.0646929
4.47418
-0.0622843
4.47775
-0.0599763
4.48129
-0.057863
4.48477
-0.0558227
4.48822
-0.053954
4.49163
-0.052133
4.495
-0.0504493
4.49833
-0.048804
4.50162
-0.0472548
4.50487
-0.0457666
4.50809
-0.0443304
4.51127
-0.0429541
4.51442
-0.0416139
4.51754
-0.0403458
4.52063
-0.0390888
4.52371
-0.0379351
4.52677
-0.036744
4.52984
-0.0357336
4.53289
-0.0345907
4.53597
-0.0337757
4.53906
-0.0326405
4.5422
-0.0320935
4.5454
-0.0309496
4.54868
-0.030702
-0.0293922
4.10346
0.0259939
4.01868
-0.0272195
3.94622
-0.103279
3.88549
-0.176046
3.83762
-0.250343
3.79996
-0.308369
3.77378
-0.388206
3.76272
-0.447596
3.76068
-0.504957
3.76633
-0.556027
3.78012
-0.605574
3.80063
-0.649184
3.82638
-0.686655
3.85605
-0.71766
3.88846
-0.74183
3.92282
-0.7597
3.95812
-0.770898
3.99407
-0.77704
4.02977
-0.777349
4.06543
-0.774453
4.10016
-0.766552
4.13429
-0.756535
4.16663
-0.741573
4.19754
-0.724755
4.2262
-0.703823
4.25295
-0.681322
4.27754
-0.656164
4.30022
-0.629912
4.3212
-0.602776
4.34066
-0.575356
4.35891
-0.548434
4.37608
-0.521833
4.39282
-0.497097
4.40842
-0.47167
4.4253
-0.451658
4.43837
-0.421974
4.45206
-0.404289
4.46347
-0.3834
4.47441
-0.364147
4.48601
-0.350404
4.49612
-0.32883
4.50522
-0.314735
4.51408
-0.299989
4.52284
-0.286349
4.53045
-0.270414
4.53779
-0.257479
4.54457
-0.245509
4.55104
-0.234842
4.55704
-0.22272
4.5624
-0.211053
4.56752
-0.200515
4.57224
-0.190014
4.57696
-0.180703
4.58113
-0.171024
4.58522
-0.16244
4.58924
-0.154579
4.59298
-0.146844
4.5967
-0.139943
4.60022
-0.133182
4.60358
-0.126889
4.60686
-0.121108
4.60999
-0.115584
4.61311
-0.11065
4.61608
-0.105704
4.61908
-0.101412
4.6219
-0.096939
4.62475
-0.0930531
4.62742
-0.0890043
4.63004
-0.0853152
4.63265
-0.0819414
4.63522
-0.0786323
4.63777
-0.0755444
4.64029
-0.072567
4.64284
-0.0698519
4.64537
-0.0672273
4.64795
-0.064864
4.65053
-0.0625616
4.65318
-0.0605055
4.65582
-0.0584697
4.65853
-0.0566599
4.66123
-0.0548353
4.66399
-0.0532028
4.66673
-0.0515468
4.6695
-0.0500259
4.67228
-0.0485502
4.67509
-0.0471331
4.6779
-0.0457689
4.68073
-0.0444465
4.68359
-0.0431973
4.68646
-0.0419659
4.68937
-0.0408464
4.69232
-0.0396937
4.69532
-0.0387306
4.69838
-0.0376489
4.70149
-0.0368904
4.7047
-0.0358474
4.70797
-0.0353677
4.71138
-0.0343595
4.71487
-0.0341923
-0.0331174
5.00602
0.100408
4.93241
0.0463868
4.85514
-0.0260054
4.78336
-0.10427
4.71684
-0.183815
4.66497
-0.256507
4.61013
-0.333362
4.56623
-0.403701
4.53013
-0.468847
4.50193
-0.527833
4.47818
-0.581825
4.45876
-0.629761
4.44296
-0.670854
4.43043
-0.705129
4.42074
-0.732144
4.41379
-0.752746
4.40919
-0.766298
4.40713
-0.774984
4.40685
-0.777067
4.40881
-0.776411
4.41194
-0.76968
4.41691
-0.761514
4.4227
-0.747355
4.43026
-0.732323
4.4387
-0.712262
4.4488
-0.691417
4.45983
-0.667192
4.4721
-0.64218
4.48539
-0.616074
4.49928
-0.589245
4.51424
-0.563394
4.52916
-0.536755
4.54547
-0.513408
4.56053
-0.486721
4.57794
-0.469071
4.59106
-0.435099
4.60799
-0.421212
4.62109
-0.396499
4.63508
-0.378144
4.64781
-0.363127
4.66178
-0.342802
4.67357
-0.326523
4.68488
-0.311308
4.69508
-0.296542
4.70582
-0.281154
4.71577
-0.267433
4.72497
-0.25471
4.73227
-0.242143
4.73956
-0.230003
4.74584
-0.217335
4.75168
-0.206356
4.75621
-0.194548
4.76095
-0.185445
4.76409
-0.174158
4.76714
-0.165494
4.76997
-0.157407
4.77217
-0.149045
4.77461
-0.142383
4.77669
-0.135265
4.77865
-0.128849
4.78059
-0.123042
4.78247
-0.117461
4.78444
-0.112623
4.78631
-0.10758
4.78834
-0.103433
4.79023
-0.0988347
4.79236
-0.0951775
4.7943
-0.0909492
4.79638
-0.0873977
4.79862
-0.0841783
4.80089
-0.0809038
4.80324
-0.0778972
4.80562
-0.0749466
4.8081
-0.0723271
4.8106
-0.0697284
4.81321
-0.0674729
4.81584
-0.065191
4.81858
-0.0632488
4.82133
-0.0612195
4.8242
-0.0595258
4.82705
-0.0576926
4.83002
-0.0561685
4.83297
-0.0544972
4.836
-0.0530528
4.83905
-0.0516072
4.84217
-0.0502524
4.84533
-0.0489274
4.84856
-0.0476743
4.85184
-0.0464754
4.8552
-0.0453233
4.85861
-0.044264
4.86214
-0.0432165
4.86572
-0.042319
4.86944
-0.0413665
4.87322
-0.0406708
4.87719
-0.0398175
4.88119
-0.0393656
4.88548
-0.0386471
4.88974
-0.0384558
-0.0376977
5.00577
0.15438
4.95116
0.10099
4.89729
0.027865
4.8437
-0.0506804
4.78941
-0.129519
4.73727
-0.204367
4.68432
-0.280417
4.6344
-0.353777
4.58732
-0.421769
4.54356
-0.484078
4.50256
-0.540821
4.4648
-0.591998
4.43034
-0.636399
4.39958
-0.674367
4.37225
-0.704818
4.34874
-0.729236
4.32898
-0.746535
4.31332
-0.759327
4.30116
-0.764903
4.2925
-0.767757
4.28637
-0.763547
4.28328
-0.758422
4.28286
-0.746932
4.28532
-0.734789
4.29071
-0.717654
4.29872
-0.699427
4.30952
-0.677993
4.32234
-0.654992
4.33778
-0.631514
4.35444
-0.605908
4.37314
-0.582095
4.39267
-0.556289
4.41311
-0.533844
4.43465
-0.508262
4.45727
-0.491685
4.48006
-0.457897
4.50014
-0.441284
4.52188
-0.41824
4.54198
-0.398251
4.56194
-0.383087
4.58215
-0.36301
4.60214
-0.346509
4.62139
-0.330556
4.64008
-0.315231
4.65923
-0.300307
4.67757
-0.285769
4.69518
-0.272325
4.71206
-0.25902
4.72858
-0.246529
4.74482
-0.233572
4.76049
-0.222027
4.77566
-0.209715
4.79018
-0.199962
4.80403
-0.188014
4.81664
-0.178099
4.82863
-0.169399
4.8398
-0.160211
4.85049
-0.153072
4.86047
-0.145248
4.86978
-0.13816
4.87853
-0.131796
4.88652
-0.125448
4.89421
-0.120311
4.90101
-0.11438
4.90777
-0.110192
4.91352
-0.104589
4.91958
-0.101231
4.92443
-0.0958013
4.92909
-0.0920613
4.93362
-0.0887102
4.93791
-0.0851879
4.94204
-0.0820253
4.946
-0.0789106
4.94993
-0.0762539
4.95377
-0.073577
4.95767
-0.0713697
4.96154
-0.0690638
4.96551
-0.0672157
4.96947
-0.0651808
4.97355
-0.0636047
4.97762
-0.0617636
4.98183
-0.0603784
4.98598
-0.0586447
4.9903
-0.0573729
4.99467
-0.0559748
4.99916
-0.0547496
5.00372
-0.0534846
5.0084
-0.0523554
5.01314
-0.0512158
5.01802
-0.0501953
5.02294
-0.0491905
5.02802
-0.0482932
5.03313
-0.0474349
5.03844
-0.0466722
5.04376
-0.0459897
5.04932
-0.0453828
5.05487
-0.0449127
5.06072
-0.0444984
5.06659
-0.0443255
-0.0440366
5.5715
0.165826
-5.58295
5.55988
0.112609
5.54314
0.0446024
5.52487
-0.0324106
5.50438
-0.109025
5.48311
-0.183093
5.45887
-0.256183
5.43152
-0.326423
5.4017
-0.391949
5.37008
-0.452463
5.3368
-0.507538
5.30227
-0.557464
5.26671
-0.600839
5.23092
-0.638576
5.19536
-0.669261
5.16048
-0.694354
5.12678
-0.712836
5.09435
-0.726894
5.06305
-0.733612
5.03357
-0.738272
5.00515
-0.735125
4.97922
-0.732496
4.95522
-0.722926
4.93376
-0.713334
4.91375
-0.69764
4.89672
-0.682405
4.88113
-0.662402
4.86849
-0.642352
4.85744
-0.620463
4.84887
-0.597337
4.84208
-0.575302
4.83768
-0.551893
4.83288
-0.529039
4.8342
-0.509585
4.83042
-0.487901
4.83052
-0.458007
4.83105
-0.441812
4.83254
-0.41973
4.83543
-0.401141
4.8375
-0.38515
4.83924
-0.364752
4.84268
-0.349949
4.84575
-0.333627
4.84905
-0.318533
4.8526
-0.303853
4.85628
-0.289452
4.85991
-0.275955
4.86363
-0.262737
4.86726
-0.250165
4.87122
-0.23753
4.87486
-0.22567
4.87909
-0.213947
4.88227
-0.203133
4.8865
-0.19225
4.89047
-0.182067
4.89405
-0.172981
4.89782
-0.163984
4.90087
-0.156117
4.90391
-0.14829
4.90672
-0.140965
4.90924
-0.134323
4.91145
-0.127653
4.91325
-0.122115
4.91474
-0.115868
4.91577
-0.111219
4.91651
-0.105333
4.91679
-0.101513
4.91674
-0.0957454
4.91623
-0.0915598
4.91541
-0.0878829
4.91413
-0.0839076
4.91248
-0.0803777
4.91039
-0.0768193
4.90802
-0.0738829
4.90523
-0.070791
4.90223
-0.0683731
4.89883
-0.0656608
4.89529
-0.0636743
4.89133
-0.0612218
4.88733
-0.0596049
4.88287
-0.0573025
4.87855
-0.0560632
4.87364
-0.0537274
4.86885
-0.0525844
4.86373
-0.0508605
4.85859
-0.0496077
4.85326
-0.0481476
4.84793
-0.0470271
4.84249
-0.0457769
4.83713
-0.0448326
4.83172
-0.04378
4.82645
-0.0430257
4.82116
-0.0421512
4.81609
-0.0415973
4.811
-0.0408966
4.80619
-0.0405721
4.80132
-0.0400505
4.79675
-0.039926
4.79219
-0.0397625
-0.0401099
5.52691
0.177581
-5.53867
5.51498
0.124544
5.50105
0.0585355
5.48469
-0.0160557
5.46645
-0.0907856
5.44651
-0.163155
5.42406
-0.233726
5.39881
-0.301173
5.37141
-0.364548
5.34211
-0.42317
5.31132
-0.476744
5.27921
-0.525355
5.24623
-0.567857
5.21279
-0.605141
5.17916
-0.635627
5.14592
-0.661115
5.1133
-0.680213
5.08097
-0.694569
5.05118
-0.703816
5.02274
-0.709839
4.99741
-0.709796
4.97317
-0.70825
4.95111
-0.700868
4.93069
-0.692919
4.91222
-0.679165
4.89575
-0.665932
4.88125
-0.647904
4.86946
-0.630567
4.85909
-0.610094
4.85146
-0.589701
4.84526
-0.5691
4.84086
-0.547495
4.83737
-0.525553
4.83787
-0.51008
4.83265
-0.482681
4.835
-0.460359
4.83822
-0.445032
4.83832
-0.419831
4.84129
-0.40411
4.84296
-0.38682
4.8455
-0.367294
4.84895
-0.353393
4.85206
-0.336739
4.85543
-0.321901
4.85884
-0.30727
4.86251
-0.293122
4.86625
-0.279689
4.87008
-0.266568
4.87392
-0.254005
4.87799
-0.241599
4.88204
-0.229726
4.88624
-0.218148
4.89016
-0.207052
4.89444
-0.19653
4.89855
-0.186173
4.90246
-0.176894
4.90637
-0.167892
4.90999
-0.159739
4.91355
-0.151849
4.91701
-0.144427
4.92027
-0.13758
4.9235
-0.130882
4.92634
-0.124957
4.92932
-0.118846
4.93172
-0.113617
4.93444
-0.108059
4.93623
-0.103302
4.93868
-0.0981908
4.94073
-0.0936064
4.94248
-0.0896337
4.94405
-0.0854785
4.94552
-0.0818468
4.94683
-0.0781287
4.94804
-0.0751008
4.94909
-0.0718389
4.95003
-0.0693159
4.95078
-0.0664101
4.95141
-0.0643027
4.95183
-0.0616415
4.95212
-0.0598894
4.95214
-0.0573314
4.95204
-0.0559551
4.95183
-0.053516
4.95141
-0.052166
4.9507
-0.0501507
4.9498
-0.0487142
4.9486
-0.0469462
4.94724
-0.0456611
4.94555
-0.044094
4.94371
-0.0429905
4.94156
-0.0416288
4.93926
-0.0407251
4.93666
-0.0395557
4.93394
-0.0388783
4.93095
-0.0379063
4.92788
-0.0374966
4.92454
-0.0367065
4.92125
-0.0366424
4.91737
-0.0358821
-0.0364206
5.48555
0.187807
-5.49578
5.47403
0.13606
5.46098
0.0715839
5.44598
-0.00104915
5.42928
-0.074091
5.41098
-0.144854
5.39046
-0.213205
5.36756
-0.278269
5.3425
-0.339496
5.31572
-0.396386
5.28743
-0.448454
5.25795
-0.495876
5.22758
-0.537485
5.19673
-0.574293
5.16575
-0.604651
5.1353
-0.63066
5.10533
-0.650249
5.0765
-0.665733
5.04986
-0.677176
5.02425
-0.684234
5.00086
-0.6864
4.97893
-0.686324
4.95875
-0.680683
4.94043
-0.674607
4.92406
-0.662793
4.90975
-0.651623
4.89715
-0.635304
4.88681
-0.620223
4.87765
-0.600932
4.87096
-0.58301
4.86509
-0.563233
4.86079
-0.543195
4.8586
-0.523363
4.85534
-0.50682
4.85326
-0.4806
4.85576
-0.46286
4.86003
-0.449303
4.85912
-0.418916
4.86172
-0.406712
4.86198
-0.387083
4.86514
-0.370459
4.86789
-0.356137
4.87052
-0.339375
4.87377
-0.325146
4.87668
-0.310182
4.87996
-0.296401
4.8831
-0.282824
4.88646
-0.269927
4.88977
-0.257316
4.89331
-0.245142
4.89668
-0.233097
4.90018
-0.221651
4.90351
-0.210378
4.90687
-0.199891
4.91017
-0.189475
4.91338
-0.180101
4.9165
-0.171016
4.9195
-0.162734
4.92241
-0.154759
4.92526
-0.147284
4.92802
-0.140338
4.93072
-0.133576
4.93325
-0.127494
4.93574
-0.121338
4.93804
-0.115915
4.94033
-0.11035
4.94234
-0.105308
4.94451
-0.100364
4.94644
-0.0955396
4.9482
-0.0913954
4.94986
-0.0871332
4.95147
-0.0834545
4.95299
-0.0796475
4.95441
-0.0765297
4.95575
-0.0731709
4.95696
-0.0705251
4.95814
-0.0675894
4.9592
-0.0653719
4.96028
-0.062717
4.96118
-0.0607917
4.96224
-0.0583849
4.96298
-0.0567031
4.96396
-0.0544948
4.96471
-0.0529141
4.96554
-0.0509806
4.96629
-0.0494643
4.96706
-0.0477115
4.96778
-0.0463824
4.96851
-0.044824
4.9692
-0.043684
4.96988
-0.0423105
4.97052
-0.0413643
4.97115
-0.0401798
4.9717
-0.0394331
4.97222
-0.0384217
4.97262
-0.0378963
4.97298
-0.0370703
4.97322
-0.0368778
4.9735
-0.0361691
-0.0362972
5.44985
0.199377
-5.46142
5.44093
0.144977
5.42899
0.083526
5.41431
0.0136308
5.39822
-0.0579987
5.38081
-0.127446
5.36189
-0.194285
5.34084
-0.257223
5.31796
-0.316608
5.29313
-0.371561
5.26701
-0.422336
5.23956
-0.468425
5.2117
-0.509623
5.18332
-0.545913
5.15539
-0.576717
5.12783
-0.603107
5.10108
-0.623491
5.07629
-0.640951
5.0515
-0.652377
5.0286
-0.661334
5.00716
-0.664967
4.9872
-0.666362
4.96893
-0.662412
4.95213
-0.657808
4.9372
-0.647861
4.92383
-0.638254
4.91198
-0.623458
4.90195
-0.610191
4.89311
-0.592096
4.88618
-0.576076
4.88003
-0.557087
4.8756
-0.538762
4.87223
-0.519989
4.86829
-0.502882
4.86744
-0.479747
4.87024
-0.465661
4.86864
-0.447707
4.86776
-0.418031
4.87075
-0.409701
4.8717
-0.38804
4.87516
-0.373912
4.87551
-0.356492
4.8776
-0.341464
4.88006
-0.327606
4.88246
-0.312587
4.88557
-0.299507
4.88848
-0.285732
4.89154
-0.272983
4.89458
-0.260356
4.89768
-0.248247
4.90068
-0.236102
4.90372
-0.224689
4.90668
-0.21334
4.9096
-0.202808
4.91255
-0.192424
4.91541
-0.182963
4.91825
-0.17385
4.92098
-0.16547
4.92367
-0.157441
4.92629
-0.149912
4.92882
-0.14286
4.93136
-0.136123
4.93372
-0.129851
4.93616
-0.123774
4.93829
-0.118049
4.94049
-0.112545
4.94244
-0.107262
4.94441
-0.102337
4.94628
-0.0974103
4.94803
-0.0931438
4.94967
-0.0887761
4.95125
-0.0850266
4.95273
-0.0811312
4.95414
-0.0779434
4.95547
-0.0745012
4.95674
-0.0717903
4.95792
-0.0687732
4.95901
-0.0664587
4.96006
-0.0637698
4.96103
-0.0617595
4.962
-0.059353
4.96283
-0.057534
4.96372
-0.0553848
4.96448
-0.0536776
4.96526
-0.0517614
4.966
-0.0501982
4.96675
-0.0484658
4.96749
-0.0471227
4.96828
-0.0456109
4.96906
-0.0444677
4.96991
-0.0431598
4.97077
-0.0422169
4.97169
-0.0411064
4.97261
-0.0403491
4.97359
-0.0394073
4.97454
-0.038847
4.97559
-0.0381164
4.97652
-0.0378081
4.9777
-0.0373444
-0.037318
5.42231
0.21042
-5.43335
5.41016
0.157129
5.40042
0.0932627
5.38781
0.0262382
5.37292
-0.0431066
5.35666
-0.111185
5.33914
-0.176766
5.32009
-0.238172
5.29936
-0.295879
5.27691
-0.349111
5.25305