/*--------------------------------*- C++ -*----------------------------------*\
  =========                 |
  \\      /  F ield         | OpenFOAM: The Open Source CFD Toolbox
   \\    /   O peration     | Website:  https://openfoam.org
    \\  /    A nd           | Version:  8
     \\/     M anipulation  |
\*---------------------------------------------------------------------------*/
FoamFile
{
    version     2.0;
    format      ascii;
    class       volScalarField;
    location    "20.000098150058701";
    object      r_crit;
}
// * * * * * * * * * * * * * * * * * * * * * * * * * * * * * * * * * * * * * //

dimensions      [0 1 0 0 0 0 0];

internalField   nonuniform List<scalar> 
6800
(
1.09718e-09
1.09996e-09
1.09776e-09
1.08999e-09
1.075e-09
1.04395e-09
1.02223e-09
1.01376e-09
1.01059e-09
1.00998e-09
1.09996e-09
1.09921e-09
1.09135e-09
1.07092e-09
1.03437e-09
1.01607e-09
1.01077e-09
1.00911e-09
1.00909e-09
1.00936e-09
1.09463e-09
1.08982e-09
1.07247e-09
1.03361e-09
1.01534e-09
1.00985e-09
1.00826e-09
1.00845e-09
1.00958e-09
1.01249e-09
1.09562e-09
1.06559e-09
1.0453e-09
1.01726e-09
1.00828e-09
1.00638e-09
1.00745e-09
1.00834e-09
1.01118e-09
1.01327e-09
1.08464e-09
1.03798e-09
1.02455e-09
1.00854e-09
1.00598e-09
1.00591e-09
1.00739e-09
1.0099e-09
1.01268e-09
1.01423e-09
1.08995e-09
1.03056e-09
1.02051e-09
1.00666e-09
1.00581e-09
1.00576e-09
1.00893e-09
1.01111e-09
1.01341e-09
1.01328e-09
1.08299e-09
1.01313e-09
1.00704e-09
1.00214e-09
1.00433e-09
1.00555e-09
1.00965e-09
1.0111e-09
1.01205e-09
1.01035e-09
1.05002e-09
9.95985e-10
1.00173e-09
1.00028e-09
1.00508e-09
1.00565e-09
1.00842e-09
1.0106e-09
1.01059e-09
1.01042e-09
1.03273e-09
9.85184e-10
9.91434e-10
9.94031e-10
1.00376e-09
1.00319e-09
1.00669e-09
1.00893e-09
1.00921e-09
1.00946e-09
1.01446e-09
9.72043e-10
9.81266e-10
9.88767e-10
1.00058e-09
1.0047e-09
1.00616e-09
1.00946e-09
1.00963e-09
1.00941e-09
1.09728e-09
1.0978e-09
1.0983e-09
1.09839e-09
1.09832e-09
1.09818e-09
1.09798e-09
1.09775e-09
1.09752e-09
1.0973e-09
1.09725e-09
1.09782e-09
1.09828e-09
1.09839e-09
1.09833e-09
1.09819e-09
1.09799e-09
1.09775e-09
1.09749e-09
1.09722e-09
1.09718e-09
1.09785e-09
1.09826e-09
1.09836e-09
1.09831e-09
1.09819e-09
1.09798e-09
1.09771e-09
1.0974e-09
1.09703e-09
1.09705e-09
1.09784e-09
1.09822e-09
1.09833e-09
1.0983e-09
1.09817e-09
1.09798e-09
1.09774e-09
1.09741e-09
1.0969e-09
1.09697e-09
1.09783e-09
1.09818e-09
1.09829e-09
1.09825e-09
1.09812e-09
1.09792e-09
1.09772e-09
1.09745e-09
1.09693e-09
1.09701e-09
1.09786e-09
1.09818e-09
1.09824e-09
1.0981e-09
1.09784e-09
1.09746e-09
1.09717e-09
1.09709e-09
1.09654e-09
1.09715e-09
1.09791e-09
1.0982e-09
1.09805e-09
1.09772e-09
1.09713e-09
1.09619e-09
1.09507e-09
1.09411e-09
1.09019e-09
1.0971e-09
1.09803e-09
1.09817e-09
1.09786e-09
1.09721e-09
1.0959e-09
1.09345e-09
1.08898e-09
1.08399e-09
1.06906e-09
1.09737e-09
1.09827e-09
1.09835e-09
1.09772e-09
1.09604e-09
1.09191e-09
1.08426e-09
1.07155e-09
1.05848e-09
1.03102e-09
1.0966e-09
1.09868e-09
1.09916e-09
1.09654e-09
1.09094e-09
1.07924e-09
1.05897e-09
1.03361e-09
1.01994e-09
1.01264e-09
1.09706e-09
1.09673e-09
1.09646e-09
1.0963e-09
1.09619e-09
1.09615e-09
1.09616e-09
1.09622e-09
1.0963e-09
1.0964e-09
1.09651e-09
1.09661e-09
1.09668e-09
1.09674e-09
1.09674e-09
1.09671e-09
1.09663e-09
1.09649e-09
1.09629e-09
1.09603e-09
1.0957e-09
1.0953e-09
1.09484e-09
1.09435e-09
1.09379e-09
1.09319e-09
1.09256e-09
1.0919e-09
1.09121e-09
1.09051e-09
1.0898e-09
1.08909e-09
1.08837e-09
1.08763e-09
1.08693e-09
1.08622e-09
1.0855e-09
1.08478e-09
1.08406e-09
1.08334e-09
1.08262e-09
1.08191e-09
1.08119e-09
1.08048e-09
1.07977e-09
1.07907e-09
1.07837e-09
1.07769e-09
1.07703e-09
1.07638e-09
1.07576e-09
1.07515e-09
1.07457e-09
1.07401e-09
1.07348e-09
1.07296e-09
1.07247e-09
1.07199e-09
1.07153e-09
1.07109e-09
1.07067e-09
1.07026e-09
1.06987e-09
1.06949e-09
1.06912e-09
1.06876e-09
1.06841e-09
1.06807e-09
1.06774e-09
1.06742e-09
1.0671e-09
1.06679e-09
1.0665e-09
1.0662e-09
1.06592e-09
1.06564e-09
1.06536e-09
1.0651e-09
1.06483e-09
1.06457e-09
1.06431e-09
1.06406e-09
1.0638e-09
1.06356e-09
1.06331e-09
1.06307e-09
1.06283e-09
1.0626e-09
1.06237e-09
1.06215e-09
1.06193e-09
1.06173e-09
1.06152e-09
1.06134e-09
1.06114e-09
1.06099e-09
1.06079e-09
1.06066e-09
1.06049e-09
1.0603e-09
1.0969e-09
1.0965e-09
1.09619e-09
1.09598e-09
1.09586e-09
1.09581e-09
1.09582e-09
1.09589e-09
1.09601e-09
1.09614e-09
1.09629e-09
1.09643e-09
1.09656e-09
1.09666e-09
1.09673e-09
1.09675e-09
1.09672e-09
1.09663e-09
1.09649e-09
1.09627e-09
1.09599e-09
1.09564e-09
1.09522e-09
1.09476e-09
1.09425e-09
1.09368e-09
1.09308e-09
1.09244e-09
1.09178e-09
1.0911e-09
1.09041e-09
1.08971e-09
1.08901e-09
1.08828e-09
1.08758e-09
1.08686e-09
1.08614e-09
1.08542e-09
1.08469e-09
1.08396e-09
1.08323e-09
1.0825e-09
1.08177e-09
1.08105e-09
1.08032e-09
1.07961e-09
1.07891e-09
1.07822e-09
1.07755e-09
1.07691e-09
1.07628e-09
1.07567e-09
1.07509e-09
1.07452e-09
1.07398e-09
1.07346e-09
1.07296e-09
1.07248e-09
1.07202e-09
1.07158e-09
1.07115e-09
1.07073e-09
1.07033e-09
1.06994e-09
1.06956e-09
1.06919e-09
1.06884e-09
1.06849e-09
1.06815e-09
1.06782e-09
1.06749e-09
1.06718e-09
1.06687e-09
1.06657e-09
1.06628e-09
1.06599e-09
1.06571e-09
1.06543e-09
1.06516e-09
1.0649e-09
1.06463e-09
1.06437e-09
1.06411e-09
1.06386e-09
1.06361e-09
1.06336e-09
1.06312e-09
1.06288e-09
1.06265e-09
1.06243e-09
1.06221e-09
1.06201e-09
1.0618e-09
1.06162e-09
1.06142e-09
1.06126e-09
1.06106e-09
1.06093e-09
1.06076e-09
1.06056e-09
1.09664e-09
1.09611e-09
1.09571e-09
1.09544e-09
1.09527e-09
1.09521e-09
1.09524e-09
1.09536e-09
1.09553e-09
1.09572e-09
1.09594e-09
1.09616e-09
1.09636e-09
1.09655e-09
1.0967e-09
1.09682e-09
1.09689e-09
1.0969e-09
1.09684e-09
1.09671e-09
1.09651e-09
1.09624e-09
1.09588e-09
1.09547e-09
1.09502e-09
1.0945e-09
1.09394e-09
1.09335e-09
1.09273e-09
1.09209e-09
1.09143e-09
1.09075e-09
1.09007e-09
1.08935e-09
1.08865e-09
1.08794e-09
1.08721e-09
1.08647e-09
1.08572e-09
1.08497e-09
1.08422e-09
1.08347e-09
1.08272e-09
1.08198e-09
1.08125e-09
1.08052e-09
1.07981e-09
1.07911e-09
1.07844e-09
1.07779e-09
1.07716e-09
1.07655e-09
1.07596e-09
1.07539e-09
1.07485e-09
1.07432e-09
1.07382e-09
1.07333e-09
1.07286e-09
1.0724e-09
1.07196e-09
1.07153e-09
1.07112e-09
1.07072e-09
1.07032e-09
1.06994e-09
1.06957e-09
1.0692e-09
1.06885e-09
1.0685e-09
1.06817e-09
1.06784e-09
1.06752e-09
1.06721e-09
1.0669e-09
1.0666e-09
1.06631e-09
1.06602e-09
1.06574e-09
1.06546e-09
1.06519e-09
1.06492e-09
1.06465e-09
1.06439e-09
1.06413e-09
1.06388e-09
1.06363e-09
1.06339e-09
1.06316e-09
1.06293e-09
1.06271e-09
1.0625e-09
1.06229e-09
1.0621e-09
1.0619e-09
1.06174e-09
1.06154e-09
1.0614e-09
1.06123e-09
1.06102e-09
1.09641e-09
1.09562e-09
1.09509e-09
1.09474e-09
1.09451e-09
1.09443e-09
1.09449e-09
1.09464e-09
1.09485e-09
1.09512e-09
1.09543e-09
1.09575e-09
1.09607e-09
1.09636e-09
1.09663e-09
1.09686e-09
1.09703e-09
1.09713e-09
1.09716e-09
1.09711e-09
1.09698e-09
1.09676e-09
1.09646e-09
1.09607e-09
1.09567e-09
1.0952e-09
1.09468e-09
1.09413e-09
1.09355e-09
1.09294e-09
1.09231e-09
1.09166e-09
1.091e-09
1.0903e-09
1.08959e-09
1.08887e-09
1.08813e-09
1.08737e-09
1.08661e-09
1.08584e-09
1.08507e-09
1.0843e-09
1.08354e-09
1.08279e-09
1.08205e-09
1.08132e-09
1.08061e-09
1.07993e-09
1.07926e-09
1.07862e-09
1.078e-09
1.0774e-09
1.07683e-09
1.07627e-09
1.07572e-09
1.0752e-09
1.07469e-09
1.0742e-09
1.07373e-09
1.07326e-09
1.07282e-09
1.07238e-09
1.07195e-09
1.07154e-09
1.07113e-09
1.07073e-09
1.07035e-09
1.06997e-09
1.0696e-09
1.06925e-09
1.0689e-09
1.06856e-09
1.06823e-09
1.06791e-09
1.06759e-09
1.06728e-09
1.06698e-09
1.06668e-09
1.06639e-09
1.0661e-09
1.06581e-09
1.06553e-09
1.06526e-09
1.06499e-09
1.06473e-09
1.06447e-09
1.06422e-09
1.06397e-09
1.06374e-09
1.06351e-09
1.06329e-09
1.06308e-09
1.06287e-09
1.06268e-09
1.06248e-09
1.06231e-09
1.06212e-09
1.06196e-09
1.06181e-09
1.06157e-09
1.09613e-09
1.09492e-09
1.09421e-09
1.09378e-09
1.09349e-09
1.09341e-09
1.0935e-09
1.09371e-09
1.09399e-09
1.09433e-09
1.09471e-09
1.09511e-09
1.09551e-09
1.09589e-09
1.09624e-09
1.09655e-09
1.09679e-09
1.09695e-09
1.09703e-09
1.09701e-09
1.0969e-09
1.09669e-09
1.0964e-09
1.09601e-09
1.09561e-09
1.09515e-09
1.09464e-09
1.09411e-09
1.09355e-09
1.09298e-09
1.09237e-09
1.09175e-09
1.09109e-09
1.0904e-09
1.08967e-09
1.08895e-09
1.0882e-09
1.08743e-09
1.08664e-09
1.08587e-09
1.08509e-09
1.08432e-09
1.08357e-09
1.08284e-09
1.08211e-09
1.0814e-09
1.08072e-09
1.08006e-09
1.07943e-09
1.07882e-09
1.07824e-09
1.07767e-09
1.07712e-09
1.07658e-09
1.07606e-09
1.07556e-09
1.07507e-09
1.07459e-09
1.07412e-09
1.07367e-09
1.07323e-09
1.0728e-09
1.07237e-09
1.07196e-09
1.07155e-09
1.07116e-09
1.07077e-09
1.0704e-09
1.07003e-09
1.06967e-09
1.06933e-09
1.06899e-09
1.06866e-09
1.06833e-09
1.06802e-09
1.06771e-09
1.0674e-09
1.0671e-09
1.06681e-09
1.06652e-09
1.06623e-09
1.06595e-09
1.06568e-09
1.06541e-09
1.06515e-09
1.0649e-09
1.06465e-09
1.06441e-09
1.06418e-09
1.06395e-09
1.06374e-09
1.06353e-09
1.06333e-09
1.06314e-09
1.06295e-09
1.06278e-09
1.0626e-09
1.06243e-09
1.06229e-09
1.06203e-09
1.0949e-09
1.09338e-09
1.09248e-09
1.09203e-09
1.09177e-09
1.09173e-09
1.09189e-09
1.09219e-09
1.09256e-09
1.09294e-09
1.09332e-09
1.09371e-09
1.09411e-09
1.09448e-09
1.09483e-09
1.09512e-09
1.09533e-09
1.09545e-09
1.09546e-09
1.09536e-09
1.09516e-09
1.09485e-09
1.09446e-09
1.094e-09
1.0935e-09
1.09297e-09
1.09243e-09
1.09188e-09
1.09133e-09
1.09076e-09
1.09017e-09
1.08956e-09
1.08892e-09
1.08825e-09
1.08752e-09
1.08682e-09
1.08608e-09
1.08533e-09
1.08456e-09
1.08383e-09
1.0831e-09
1.08237e-09
1.08169e-09
1.08103e-09
1.08037e-09
1.07973e-09
1.07912e-09
1.07856e-09
1.07802e-09
1.0775e-09
1.07699e-09
1.0765e-09
1.07602e-09
1.07556e-09
1.0751e-09
1.07466e-09
1.07422e-09
1.0738e-09
1.07338e-09
1.07298e-09
1.07257e-09
1.07218e-09
1.07179e-09
1.07142e-09
1.07104e-09
1.07068e-09
1.07033e-09
1.06998e-09
1.06964e-09
1.06931e-09
1.06899e-09
1.06867e-09
1.06837e-09
1.06807e-09
1.06777e-09
1.06748e-09
1.0672e-09
1.06692e-09
1.06664e-09
1.06637e-09
1.0661e-09
1.06584e-09
1.06558e-09
1.06533e-09
1.06508e-09
1.06485e-09
1.06462e-09
1.0644e-09
1.06419e-09
1.06398e-09
1.06378e-09
1.0636e-09
1.06341e-09
1.06324e-09
1.06306e-09
1.0629e-09
1.06274e-09
1.06256e-09
1.06243e-09
1.06218e-09
1.08853e-09
1.08821e-09
1.08775e-09
1.08767e-09
1.08788e-09
1.08812e-09
1.0884e-09
1.08876e-09
1.08914e-09
1.08946e-09
1.08974e-09
1.08999e-09
1.09021e-09
1.09042e-09
1.0906e-09
1.09069e-09
1.09069e-09
1.09058e-09
1.09034e-09
1.08997e-09
1.0895e-09
1.08892e-09
1.08827e-09
1.08755e-09
1.08686e-09
1.08619e-09
1.08557e-09
1.08499e-09
1.08445e-09
1.08391e-09
1.08338e-09
1.08283e-09
1.08226e-09
1.08167e-09
1.08104e-09
1.08042e-09
1.07981e-09
1.07919e-09
1.07855e-09
1.07798e-09
1.07742e-09
1.07684e-09
1.07633e-09
1.07586e-09
1.07536e-09
1.07489e-09
1.07446e-09
1.07409e-09
1.07373e-09
1.07339e-09
1.07306e-09
1.07273e-09
1.0724e-09
1.07209e-09
1.07177e-09
1.07146e-09
1.07116e-09
1.07087e-09
1.07058e-09
1.07028e-09
1.06999e-09
1.0697e-09
1.06941e-09
1.06913e-09
1.06885e-09
1.06858e-09
1.0683e-09
1.06804e-09
1.06778e-09
1.06752e-09
1.06727e-09
1.06703e-09
1.06678e-09
1.06654e-09
1.06631e-09
1.06608e-09
1.06584e-09
1.06561e-09
1.06539e-09
1.06516e-09
1.06494e-09
1.06472e-09
1.06451e-09
1.06431e-09
1.06411e-09
1.06391e-09
1.06373e-09
1.06355e-09
1.06338e-09
1.06321e-09
1.06305e-09
1.0629e-09
1.06275e-09
1.06261e-09
1.06247e-09
1.06232e-09
1.0622e-09
1.06204e-09
1.06193e-09
1.0617e-09
1.07028e-09
1.0724e-09
1.07421e-09
1.07558e-09
1.07678e-09
1.07762e-09
1.07821e-09
1.07876e-09
1.07911e-09
1.07914e-09
1.0792e-09
1.07923e-09
1.0792e-09
1.0791e-09
1.07892e-09
1.07856e-09
1.07813e-09
1.07755e-09
1.07682e-09
1.07599e-09
1.07496e-09
1.0738e-09
1.07272e-09
1.07163e-09
1.07072e-09
1.06993e-09
1.06933e-09
1.06884e-09
1.06847e-09
1.06815e-09
1.06788e-09
1.0676e-09
1.06732e-09
1.06706e-09
1.06674e-09
1.06659e-09
1.06628e-09
1.06611e-09
1.06586e-09
1.0657e-09
1.06554e-09
1.06535e-09
1.06519e-09
1.06509e-09
1.06494e-09
1.06486e-09
1.06477e-09
1.06478e-09
1.06476e-09
1.06475e-09
1.06474e-09
1.06473e-09
1.06471e-09
1.06469e-09
1.06466e-09
1.06463e-09
1.0646e-09
1.06456e-09
1.06452e-09
1.06446e-09
1.0644e-09
1.06432e-09
1.06424e-09
1.06415e-09
1.06405e-09
1.06395e-09
1.06384e-09
1.06374e-09
1.06363e-09
1.06352e-09
1.06341e-09
1.06329e-09
1.06318e-09
1.06306e-09
1.06294e-09
1.06282e-09
1.0627e-09
1.06257e-09
1.06244e-09
1.06231e-09
1.06219e-09
1.06206e-09
1.06194e-09
1.06182e-09
1.0617e-09
1.06159e-09
1.06148e-09
1.06138e-09
1.06128e-09
1.06118e-09
1.06109e-09
1.06099e-09
1.06091e-09
1.06082e-09
1.06074e-09
1.06064e-09
1.06057e-09
1.06046e-09
1.06038e-09
1.06021e-09
1.03345e-09
1.03621e-09
1.0395e-09
1.04211e-09
1.04427e-09
1.04613e-09
1.04763e-09
1.0488e-09
1.04958e-09
1.05009e-09
1.0503e-09
1.05035e-09
1.05011e-09
1.04978e-09
1.04916e-09
1.04844e-09
1.04763e-09
1.04658e-09
1.0455e-09
1.04438e-09
1.04329e-09
1.04264e-09
1.04221e-09
1.04185e-09
1.04167e-09
1.04159e-09
1.04165e-09
1.04177e-09
1.04188e-09
1.04203e-09
1.04213e-09
1.04222e-09
1.04226e-09
1.04239e-09
1.04247e-09
1.04271e-09
1.04283e-09
1.04303e-09
1.04337e-09
1.04347e-09
1.04384e-09
1.04415e-09
1.04453e-09
1.04499e-09
1.04551e-09
1.04612e-09
1.04676e-09
1.04739e-09
1.04802e-09
1.04869e-09
1.04934e-09
1.05e-09
1.05062e-09
1.05123e-09
1.0518e-09
1.05233e-09
1.05283e-09
1.0533e-09
1.05373e-09
1.05412e-09
1.05446e-09
1.05476e-09
1.05502e-09
1.05526e-09
1.05546e-09
1.05565e-09
1.05583e-09
1.05599e-09
1.05614e-09
1.05628e-09
1.05641e-09
1.05652e-09
1.05663e-09
1.05673e-09
1.05682e-09
1.05689e-09
1.05696e-09
1.05701e-09
1.05706e-09
1.0571e-09
1.05714e-09
1.05716e-09
1.05719e-09
1.05721e-09
1.05723e-09
1.05725e-09
1.05727e-09
1.05727e-09
1.05729e-09
1.05729e-09
1.05731e-09
1.0573e-09
1.05731e-09
1.05733e-09
1.05731e-09
1.05732e-09
1.05734e-09
1.05733e-09
1.05732e-09
1.05725e-09
1.0133e-09
1.01464e-09
1.01623e-09
1.01761e-09
1.01885e-09
1.01999e-09
1.02108e-09
1.02199e-09
1.02287e-09
1.0236e-09
1.02433e-09
1.02495e-09
1.02563e-09
1.02625e-09
1.02682e-09
1.02736e-09
1.02778e-09
1.02822e-09
1.0286e-09
1.02908e-09
1.02948e-09
1.03001e-09
1.03049e-09
1.03101e-09
1.03154e-09
1.03198e-09
1.03243e-09
1.03279e-09
1.03301e-09
1.03323e-09
1.03325e-09
1.03328e-09
1.03334e-09
1.03331e-09
1.03329e-09
1.03325e-09
1.03315e-09
1.03313e-09
1.03309e-09
1.03307e-09
1.03308e-09
1.03306e-09
1.03304e-09
1.03304e-09
1.03311e-09
1.03323e-09
1.03341e-09
1.03361e-09
1.03383e-09
1.03406e-09
1.03429e-09
1.03455e-09
1.03484e-09
1.03516e-09
1.03555e-09
1.03595e-09
1.03642e-09
1.03692e-09
1.03745e-09
1.03799e-09
1.03856e-09
1.03917e-09
1.03978e-09
1.04043e-09
1.04107e-09
1.04174e-09
1.0424e-09
1.04303e-09
1.04367e-09
1.04428e-09
1.04486e-09
1.0454e-09
1.04593e-09
1.04641e-09
1.04687e-09
1.04728e-09
1.04768e-09
1.04803e-09
1.04837e-09
1.04867e-09
1.04896e-09
1.04921e-09
1.04946e-09
1.04969e-09
1.04992e-09
1.05013e-09
1.05034e-09
1.05053e-09
1.05073e-09
1.05092e-09
1.05111e-09
1.05128e-09
1.05145e-09
1.05161e-09
1.05177e-09
1.05191e-09
1.05206e-09
1.05218e-09
1.05228e-09
1.05242e-09
1.011e-09
1.01171e-09
1.0125e-09
1.01338e-09
1.01414e-09
1.01487e-09
1.01567e-09
1.01645e-09
1.01734e-09
1.01821e-09
1.01919e-09
1.02011e-09
1.0211e-09
1.02199e-09
1.02287e-09
1.02377e-09
1.02455e-09
1.02543e-09
1.02617e-09
1.02696e-09
1.02764e-09
1.0284e-09
1.02901e-09
1.02963e-09
1.03024e-09
1.03072e-09
1.03127e-09
1.03159e-09
1.03189e-09
1.0321e-09
1.03211e-09
1.03222e-09
1.03217e-09
1.03219e-09
1.03221e-09
1.03202e-09
1.03198e-09
1.032e-09
1.03177e-09
1.03179e-09
1.03169e-09
1.0316e-09
1.03149e-09
1.03135e-09
1.03123e-09
1.03114e-09
1.0311e-09
1.03084e-09
1.0308e-09
1.03096e-09
1.03099e-09
1.03091e-09
1.03082e-09
1.03069e-09
1.03057e-09
1.03047e-09
1.03038e-09
1.03031e-09
1.03024e-09
1.03022e-09
1.03023e-09
1.03027e-09
1.03035e-09
1.03045e-09
1.03062e-09
1.03081e-09
1.03105e-09
1.0313e-09
1.03161e-09
1.03193e-09
1.03228e-09
1.03265e-09
1.03306e-09
1.03347e-09
1.03393e-09
1.03437e-09
1.03486e-09
1.03533e-09
1.03584e-09
1.03633e-09
1.03686e-09
1.03737e-09
1.0379e-09
1.03842e-09
1.03894e-09
1.03945e-09
1.03996e-09
1.04047e-09
1.04095e-09
1.04143e-09
1.04189e-09
1.04234e-09
1.04275e-09
1.04317e-09
1.04353e-09
1.04393e-09
1.04423e-09
1.04461e-09
1.04481e-09
1.04527e-09
1.01332e-09
1.01366e-09
1.01433e-09
1.01497e-09
1.01546e-09
1.01598e-09
1.01657e-09
1.01722e-09
1.01797e-09
1.01876e-09
1.01962e-09
1.02043e-09
1.02131e-09
1.0221e-09
1.02304e-09
1.0239e-09
1.02475e-09
1.02564e-09
1.02636e-09
1.02713e-09
1.02778e-09
1.02849e-09
1.02903e-09
1.02962e-09
1.03014e-09
1.03056e-09
1.03107e-09
1.03125e-09
1.03161e-09
1.03164e-09
1.03174e-09
1.03177e-09
1.03168e-09
1.03173e-09
1.03176e-09
1.03157e-09
1.03155e-09
1.03154e-09
1.0314e-09
1.03134e-09
1.03118e-09
1.03109e-09
1.03105e-09
1.0309e-09
1.0306e-09
1.03072e-09
1.03052e-09
1.03067e-09
1.03068e-09
1.03058e-09
1.03047e-09
1.03033e-09
1.03021e-09
1.03007e-09
1.02995e-09
1.02982e-09
1.02971e-09
1.02958e-09
1.02947e-09
1.02934e-09
1.02927e-09
1.02916e-09
1.02912e-09
1.02904e-09
1.02902e-09
1.02898e-09
1.02897e-09
1.02895e-09
1.02895e-09
1.02895e-09
1.02896e-09
1.02897e-09
1.02898e-09
1.029e-09
1.02901e-09
1.02904e-09
1.02909e-09
1.02913e-09
1.02923e-09
1.02928e-09
1.0295e-09
1.02962e-09
1.02962e-09
1.02972e-09
1.02981e-09
1.03004e-09
1.0302e-09
1.03049e-09
1.03069e-09
1.03105e-09
1.03131e-09
1.03175e-09
1.03204e-09
1.03255e-09
1.03287e-09
1.03343e-09
1.03377e-09
1.03437e-09
1.03476e-09
1.03536e-09
1.0149e-09
1.01522e-09
1.01573e-09
1.0162e-09
1.01658e-09
1.01704e-09
1.01758e-09
1.0182e-09
1.01889e-09
1.01961e-09
1.02035e-09
1.02107e-09
1.02185e-09
1.02262e-09
1.02343e-09
1.02413e-09
1.02489e-09
1.0256e-09
1.02625e-09
1.0269e-09
1.02745e-09
1.02798e-09
1.02844e-09
1.02889e-09
1.02925e-09
1.02958e-09
1.02985e-09
1.03004e-09
1.0303e-09
1.03033e-09
1.03052e-09
1.03056e-09
1.03051e-09
1.03065e-09
1.0306e-09
1.03045e-09
1.03056e-09
1.0305e-09
1.03054e-09
1.03046e-09
1.03031e-09
1.03013e-09
1.03007e-09
1.03001e-09
1.02982e-09
1.02977e-09
1.02983e-09
1.0298e-09
1.02972e-09
1.02962e-09
1.02957e-09
1.0295e-09
1.02947e-09
1.02939e-09
1.02935e-09
1.02925e-09
1.02922e-09
1.02911e-09
1.02908e-09
1.02898e-09
1.02895e-09
1.02885e-09
1.02881e-09
1.0287e-09
1.02866e-09
1.02853e-09
1.02849e-09
1.02836e-09
1.02832e-09
1.02817e-09
1.02816e-09
1.028e-09
1.02802e-09
1.02805e-09
1.0283e-09
1.02827e-09
1.02841e-09
1.02847e-09
1.02844e-09
1.02839e-09
1.02834e-09
1.02829e-09
1.02824e-09
1.0282e-09
1.02816e-09
1.02813e-09
1.0281e-09
1.02807e-09
1.02806e-09
1.02802e-09
1.02802e-09
1.02801e-09
1.02804e-09
1.02806e-09
1.02808e-09
1.02819e-09
1.02824e-09
1.02825e-09
1.02834e-09
1.02847e-09
1.01534e-09
1.01551e-09
1.01624e-09
1.0167e-09
1.017e-09
1.01739e-09
1.01782e-09
1.01834e-09
1.0189e-09
1.01959e-09
1.0203e-09
1.02109e-09
1.02184e-09
1.02256e-09
1.02325e-09
1.0238e-09
1.02445e-09
1.02488e-09
1.02545e-09
1.02596e-09
1.02636e-09
1.02684e-09
1.0272e-09
1.02764e-09
1.028e-09
1.02837e-09
1.02869e-09
1.02902e-09
1.0293e-09
1.0295e-09
1.02979e-09
1.02986e-09
1.03e-09
1.03013e-09
1.03009e-09
1.03015e-09
1.03033e-09
1.03021e-09
1.03019e-09
1.03017e-09
1.03011e-09
1.03008e-09
1.03e-09
1.02993e-09
1.02986e-09
1.0298e-09
1.02978e-09
1.02972e-09
1.02966e-09
1.02962e-09
1.02954e-09
1.02952e-09
1.02942e-09
1.02936e-09
1.02929e-09
1.0292e-09
1.02915e-09
1.029e-09
1.02891e-09
1.02885e-09
1.02879e-09
1.02877e-09
1.02862e-09
1.02859e-09
1.02865e-09
1.02867e-09
1.02868e-09
1.02859e-09
1.02856e-09
1.02845e-09
1.02843e-09
1.02833e-09
1.02832e-09
1.02837e-09
1.02854e-09
1.0285e-09
1.02856e-09
1.02857e-09
1.02852e-09
1.02846e-09
1.02841e-09
1.02836e-09
1.02832e-09
1.02828e-09
1.02826e-09
1.02824e-09
1.02822e-09
1.0282e-09
1.02818e-09
1.02815e-09
1.02813e-09
1.02809e-09
1.02806e-09
1.028e-09
1.02796e-09
1.02789e-09
1.02784e-09
1.02777e-09
1.02771e-09
1.02766e-09
1.01511e-09
1.01523e-09
1.01616e-09
1.01689e-09
1.01725e-09
1.01754e-09
1.01782e-09
1.01818e-09
1.01861e-09
1.01923e-09
1.01992e-09
1.02075e-09
1.02149e-09
1.02225e-09
1.02289e-09
1.02349e-09
1.02402e-09
1.02452e-09
1.02499e-09
1.02544e-09
1.02585e-09
1.02628e-09
1.02669e-09
1.02712e-09
1.02755e-09
1.02798e-09
1.02836e-09
1.02878e-09
1.02907e-09
1.02938e-09
1.02965e-09
1.02978e-09
1.02997e-09
1.03008e-09
1.03008e-09
1.0302e-09
1.03031e-09
1.03023e-09
1.03019e-09
1.03014e-09
1.03021e-09
1.03019e-09
1.03011e-09
1.03005e-09
1.02997e-09
1.02991e-09
1.02987e-09
1.02985e-09
1.02979e-09
1.02977e-09
1.02969e-09
1.02964e-09
1.02948e-09
1.02942e-09
1.02926e-09
1.02924e-09
1.02919e-09
1.02929e-09
1.02918e-09
1.02926e-09
1.02929e-09
1.02923e-09
1.02921e-09
1.02912e-09
1.02908e-09
1.02896e-09
1.02892e-09
1.0288e-09
1.02878e-09
1.02865e-09
1.02866e-09
1.02866e-09
1.02884e-09
1.0288e-09
1.02891e-09
1.02893e-09
1.0289e-09
1.02883e-09
1.02877e-09
1.02869e-09
1.02863e-09
1.02857e-09
1.02853e-09
1.02848e-09
1.02845e-09
1.02841e-09
1.02838e-09
1.02834e-09
1.02831e-09
1.02826e-09
1.02823e-09
1.02818e-09
1.02814e-09
1.02808e-09
1.02805e-09
1.02798e-09
1.02794e-09
1.02787e-09
1.02784e-09
1.02775e-09
1.01535e-09
1.01563e-09
1.0158e-09
1.01663e-09
1.0172e-09
1.01758e-09
1.01791e-09
1.01833e-09
1.01876e-09
1.0193e-09
1.01986e-09
1.02055e-09
1.02122e-09
1.02197e-09
1.02263e-09
1.02328e-09
1.02381e-09
1.02435e-09
1.02478e-09
1.02521e-09
1.02563e-09
1.02608e-09
1.02654e-09
1.02698e-09
1.02748e-09
1.02795e-09
1.02839e-09
1.02883e-09
1.02914e-09
1.02949e-09
1.02975e-09
1.0299e-09
1.03008e-09
1.03019e-09
1.03024e-09
1.0303e-09
1.03042e-09
1.03037e-09
1.03038e-09
1.03033e-09
1.03039e-09
1.03033e-09
1.03033e-09
1.03026e-09
1.03017e-09
1.03012e-09
1.03002e-09
1.02998e-09
1.02991e-09
1.02993e-09
1.02991e-09
1.02988e-09
1.02983e-09
1.02981e-09
1.02979e-09
1.02972e-09
1.02968e-09
1.02964e-09
1.02954e-09
1.02939e-09
1.02923e-09
1.02927e-09
1.02914e-09
1.02922e-09
1.02923e-09
1.02922e-09
1.02918e-09
1.02916e-09
1.0291e-09
1.02909e-09
1.02898e-09
1.029e-09
1.029e-09
1.02915e-09
1.02911e-09
1.02919e-09
1.02921e-09
1.02918e-09
1.02913e-09
1.02907e-09
1.02901e-09
1.02896e-09
1.02889e-09
1.02884e-09
1.02878e-09
1.02872e-09
1.02866e-09
1.02859e-09
1.02853e-09
1.02846e-09
1.02841e-09
1.02835e-09
1.0283e-09
1.02824e-09
1.0282e-09
1.02815e-09
1.02812e-09
1.02808e-09
1.02805e-09
1.02803e-09
1.01652e-09
1.01622e-09
1.01632e-09
1.01688e-09
1.0175e-09
1.01816e-09
1.01864e-09
1.01913e-09
1.01953e-09
1.02001e-09
1.02046e-09
1.02105e-09
1.02164e-09
1.02234e-09
1.02298e-09
1.02365e-09
1.0242e-09
1.02475e-09
1.02518e-09
1.02562e-09
1.02605e-09
1.02653e-09
1.02702e-09
1.02755e-09
1.02804e-09
1.0285e-09
1.02894e-09
1.02934e-09
1.02966e-09
1.02995e-09
1.03017e-09
1.03026e-09
1.0304e-09
1.03047e-09
1.03051e-09
1.03059e-09
1.03073e-09
1.03063e-09
1.0306e-09
1.03058e-09
1.03053e-09
1.03052e-09
1.03059e-09
1.03059e-09
1.03055e-09
1.03042e-09
1.03032e-09
1.0302e-09
1.03018e-09
1.03023e-09
1.03027e-09
1.03023e-09
1.03017e-09
1.03011e-09
1.03006e-09
1.02999e-09
1.02996e-09
1.02986e-09
1.02976e-09
1.02966e-09
1.02961e-09
1.02951e-09
1.02936e-09
1.02943e-09
1.02933e-09
1.02942e-09
1.02945e-09
1.02945e-09
1.02942e-09
1.0294e-09
1.02931e-09
1.0293e-09
1.02928e-09
1.02935e-09
1.02929e-09
1.02935e-09
1.02938e-09
1.02939e-09
1.02939e-09
1.02938e-09
1.02935e-09
1.02933e-09
1.02927e-09
1.02922e-09
1.02915e-09
1.0291e-09
1.02902e-09
1.02895e-09
1.02889e-09
1.02883e-09
1.02878e-09
1.02873e-09
1.0287e-09
1.02865e-09
1.02863e-09
1.02858e-09
1.02856e-09
1.02852e-09
1.02851e-09
1.02844e-09
1.01775e-09
1.01792e-09
1.01773e-09
1.01795e-09
1.01857e-09
1.01924e-09
1.01975e-09
1.02024e-09
1.02062e-09
1.02102e-09
1.02136e-09
1.02184e-09
1.02237e-09
1.02304e-09
1.02369e-09
1.02434e-09
1.02487e-09
1.02538e-09
1.02579e-09
1.02623e-09
1.02665e-09
1.02705e-09
1.02746e-09
1.02786e-09
1.02829e-09
1.02864e-09
1.02912e-09
1.02944e-09
1.02982e-09
1.03007e-09
1.03027e-09
1.0304e-09
1.03051e-09
1.03058e-09
1.03066e-09
1.03079e-09
1.0308e-09
1.03075e-09
1.03071e-09
1.03079e-09
1.03079e-09
1.03074e-09
1.03079e-09
1.03075e-09
1.03082e-09
1.03084e-09
1.03079e-09
1.03077e-09
1.03076e-09
1.03074e-09
1.03066e-09
1.03052e-09
1.03037e-09
1.03021e-09
1.03006e-09
1.02998e-09
1.02987e-09
1.02982e-09
1.02975e-09
1.0297e-09
1.02964e-09
1.02962e-09
1.02954e-09
1.0295e-09
1.02937e-09
1.02947e-09
1.0294e-09
1.02946e-09
1.02946e-09
1.02945e-09
1.02936e-09
1.02935e-09
1.02939e-09
1.02929e-09
1.0293e-09
1.02931e-09
1.02944e-09
1.02942e-09
1.02948e-09
1.0295e-09
1.02953e-09
1.02946e-09
1.02953e-09
1.02951e-09
1.02955e-09
1.02956e-09
1.02953e-09
1.02947e-09
1.02942e-09
1.02936e-09
1.02933e-09
1.02928e-09
1.02925e-09
1.02921e-09
1.02919e-09
1.02915e-09
1.02913e-09
1.02909e-09
1.02906e-09
1.02905e-09
1.01895e-09
1.01902e-09
1.01925e-09
1.0192e-09
1.01945e-09
1.0199e-09
1.02066e-09
1.02147e-09
1.0218e-09
1.02204e-09
1.02235e-09
1.02278e-09
1.02321e-09
1.02375e-09
1.02417e-09
1.02468e-09
1.02509e-09
1.02552e-09
1.02594e-09
1.02637e-09
1.0268e-09
1.0272e-09
1.02758e-09
1.02797e-09
1.02838e-09
1.02883e-09
1.02928e-09
1.0297e-09
1.03008e-09
1.03037e-09
1.03057e-09
1.03069e-09
1.03078e-09
1.0308e-09
1.03083e-09
1.03086e-09
1.03082e-09
1.03095e-09
1.03098e-09
1.03114e-09
1.03122e-09
1.03125e-09
1.03129e-09
1.03125e-09
1.03142e-09
1.03149e-09
1.03151e-09
1.03155e-09
1.03156e-09
1.0316e-09
1.0315e-09
1.03132e-09
1.03108e-09
1.03083e-09
1.0306e-09
1.03039e-09
1.03024e-09
1.03011e-09
1.03002e-09
1.02991e-09
1.02982e-09
1.02975e-09
1.0297e-09
1.02967e-09
1.02963e-09
1.0296e-09
1.02958e-09
1.02953e-09
1.02948e-09
1.02943e-09
1.02935e-09
1.0292e-09
1.02912e-09
1.02908e-09
1.02905e-09
1.02904e-09
1.02895e-09
1.02894e-09
1.02893e-09
1.02894e-09
1.02886e-09
1.0289e-09
1.02892e-09
1.02925e-09
1.02928e-09
1.02932e-09
1.02937e-09
1.02954e-09
1.02956e-09
1.02966e-09
1.02967e-09
1.02964e-09
1.02959e-09
1.02952e-09
1.02948e-09
1.02946e-09
1.02946e-09
1.02943e-09
1.02943e-09
1.02937e-09
1.01973e-09
1.01989e-09
1.02053e-09
1.02066e-09
1.02058e-09
1.02091e-09
1.02141e-09
1.02181e-09
1.02221e-09
1.02259e-09
1.02299e-09
1.02349e-09
1.02389e-09
1.02444e-09
1.02482e-09
1.02534e-09
1.0257e-09
1.02609e-09
1.02651e-09
1.0269e-09
1.0274e-09
1.02773e-09
1.02811e-09
1.02853e-09
1.02906e-09
1.02952e-09
1.02995e-09
1.03037e-09
1.03066e-09
1.03093e-09
1.03106e-09
1.03115e-09
1.03121e-09
1.03121e-09
1.03128e-09
1.03131e-09
1.03138e-09
1.03145e-09
1.03169e-09
1.03176e-09
1.03176e-09
1.03182e-09
1.03188e-09
1.03213e-09
1.03227e-09
1.03231e-09
1.03231e-09
1.03237e-09
1.03242e-09
1.03247e-09
1.03253e-09
1.03248e-09
1.03232e-09
1.03207e-09
1.03178e-09
1.03147e-09
1.0311e-09
1.03078e-09
1.03045e-09
1.03017e-09
1.02995e-09
1.02977e-09
1.02963e-09
1.02955e-09
1.02949e-09
1.02944e-09
1.02941e-09
1.02938e-09
1.02933e-09
1.02929e-09
1.02919e-09
1.0291e-09
1.029e-09
1.02893e-09
1.02888e-09
1.02883e-09
1.02878e-09
1.02873e-09
1.02872e-09
1.02866e-09
1.02864e-09
1.02879e-09
1.02877e-09
1.02893e-09
1.02889e-09
1.02892e-09
1.02893e-09
1.02911e-09
1.02928e-09
1.02942e-09
1.02955e-09
1.02959e-09
1.02963e-09
1.02961e-09
1.02961e-09
1.02959e-09
1.02959e-09
1.02956e-09
1.02956e-09
1.02951e-09
1.02048e-09
1.0206e-09
1.02169e-09
1.02251e-09
1.02267e-09
1.02241e-09
1.02231e-09
1.02259e-09
1.02295e-09
1.02335e-09
1.02375e-09
1.02417e-09
1.02459e-09
1.02501e-09
1.02536e-09
1.02573e-09
1.026e-09
1.02639e-09
1.02683e-09
1.02734e-09
1.02782e-09
1.02828e-09
1.02865e-09
1.0291e-09
1.02947e-09
1.0298e-09
1.03014e-09
1.03049e-09
1.0307e-09
1.03092e-09
1.03105e-09
1.03124e-09
1.03137e-09
1.03157e-09
1.03172e-09
1.03176e-09
1.03181e-09
1.03188e-09
1.03206e-09
1.032e-09
1.03202e-09
1.03214e-09
1.03226e-09
1.03262e-09
1.03268e-09
1.03273e-09
1.03273e-09
1.03278e-09
1.0328e-09
1.03281e-09
1.03287e-09
1.03294e-09
1.03289e-09
1.03268e-09
1.03234e-09
1.03198e-09
1.03153e-09
1.03105e-09
1.03054e-09
1.03011e-09
1.02973e-09
1.02944e-09
1.02924e-09
1.02908e-09
1.029e-09
1.02896e-09
1.02892e-09
1.02883e-09
1.02887e-09
1.02887e-09
1.02885e-09
1.02879e-09
1.02875e-09
1.02867e-09
1.02862e-09
1.02857e-09
1.02857e-09
1.02848e-09
1.02847e-09
1.02847e-09
1.02849e-09
1.02849e-09
1.02847e-09
1.02849e-09
1.02853e-09
1.02867e-09
1.02865e-09
1.02875e-09
1.02893e-09
1.02917e-09
1.02932e-09
1.02949e-09
1.0296e-09
1.0297e-09
1.02972e-09
1.02973e-09
1.02973e-09
1.0297e-09
1.02969e-09
1.02966e-09
1.02142e-09
1.02154e-09
1.02231e-09
1.02272e-09
1.02314e-09
1.02384e-09
1.02394e-09
1.02362e-09
1.02374e-09
1.02406e-09
1.02444e-09
1.02477e-09
1.02514e-09
1.02543e-09
1.02572e-09
1.02599e-09
1.02622e-09
1.02661e-09
1.027e-09
1.02754e-09
1.02797e-09
1.02849e-09
1.02884e-09
1.0293e-09
1.02957e-09
1.02991e-09
1.03012e-09
1.0303e-09
1.03048e-09
1.03058e-09
1.03067e-09
1.03078e-09
1.03085e-09
1.0309e-09
1.03106e-09
1.03115e-09
1.03119e-09
1.03156e-09
1.03175e-09
1.03181e-09
1.03193e-09
1.03217e-09
1.03236e-09
1.03258e-09
1.03253e-09
1.03249e-09
1.03258e-09
1.03254e-09
1.03251e-09
1.03242e-09
1.03247e-09
1.03235e-09
1.03232e-09
1.03243e-09
1.0323e-09
1.03187e-09
1.03138e-09
1.03089e-09
1.03041e-09
1.03e-09
1.0296e-09
1.02929e-09
1.02908e-09
1.02895e-09
1.02881e-09
1.0287e-09
1.02864e-09
1.0286e-09
1.02859e-09
1.02858e-09
1.02865e-09
1.02861e-09
1.02866e-09
1.02866e-09
1.02862e-09
1.02858e-09
1.02852e-09
1.02849e-09
1.02844e-09
1.02842e-09
1.02842e-09
1.0284e-09
1.02839e-09
1.0284e-09
1.02835e-09
1.02839e-09
1.02849e-09
1.02868e-09
1.02885e-09
1.02907e-09
1.02929e-09
1.02929e-09
1.02934e-09
1.0294e-09
1.02957e-09
1.02976e-09
1.02977e-09
1.02988e-09
1.02985e-09
1.02985e-09
1.02225e-09
1.02237e-09
1.02283e-09
1.02338e-09
1.02382e-09
1.02404e-09
1.02455e-09
1.02452e-09
1.02441e-09
1.02462e-09
1.02502e-09
1.0254e-09
1.02575e-09
1.02611e-09
1.02638e-09
1.02659e-09
1.02668e-09
1.02692e-09
1.02716e-09
1.02762e-09
1.02804e-09
1.02851e-09
1.02894e-09
1.02938e-09
1.0297e-09
1.03006e-09
1.03028e-09
1.03051e-09
1.0307e-09
1.03079e-09
1.03091e-09
1.03094e-09
1.03101e-09
1.03101e-09
1.03107e-09
1.03106e-09
1.03119e-09
1.03127e-09
1.03136e-09
1.03141e-09
1.03137e-09
1.03138e-09
1.03141e-09
1.03154e-09
1.03143e-09
1.03145e-09
1.03157e-09
1.03146e-09
1.0315e-09
1.03139e-09
1.03117e-09
1.03108e-09
1.03098e-09
1.03106e-09
1.03119e-09
1.03115e-09
1.03107e-09
1.03075e-09
1.0304e-09
1.03009e-09
1.02976e-09
1.02953e-09
1.0293e-09
1.02913e-09