/*--------------------------------*- C++ -*----------------------------------*\
  =========                 |
  \\      /  F ield         | OpenFOAM: The Open Source CFD Toolbox
   \\    /   O peration     | Website:  https://openfoam.org
    \\  /    A nd           | Version:  8
     \\/     M anipulation  |
\*---------------------------------------------------------------------------*/
FoamFile
{
    version     2.0;
    format      ascii;
    class       volScalarField;
    location    "20.000098150058701";
    object      r_het;
}
// * * * * * * * * * * * * * * * * * * * * * * * * * * * * * * * * * * * * * //

dimensions      [0 1 0 0 0 0 0];

internalField   nonuniform List<scalar> 
6800
(
0.00325445
0.0032671
0.00326336
0.00323836
0.0031903
0.00319305
0.00321587
0.00328763
0.00349412
0.00378568
0.00325519
0.00327626
0.00325409
0.00318067
0.00317957
0.0032043
0.00330842
0.00359133
0.00418311
0.00456905
0.00325358
0.00328074
0.00321141
0.00315846
0.00317971
0.00330132
0.00371108
0.00430277
0.0047234
0.0049779
0.00326968
0.00328491
0.00315104
0.00315159
0.00325952
0.00370854
0.00433603
0.00473849
0.0050181
0.00518175
0.00356814
0.00327878
0.0031059
0.00316313
0.00356583
0.00426358
0.00469689
0.00497399
0.00520659
0.00530648
0.00357244
0.00307856
0.00308989
0.00332611
0.00409345
0.00457885
0.00491491
0.00521008
0.00535246
0.00537141
0.00356899
0.00301913
0.00311308
0.00370845
0.00435612
0.00479658
0.00517558
0.00535629
0.00540872
0.00540107
0.00357591
0.00293753
0.00324909
0.00398395
0.00471026
0.00504324
0.00529826
0.00543978
0.00546661
0.00546435
0.00358566
0.0028949
0.00343292
0.00424747
0.00486442
0.00513404
0.00543556
0.00553042
0.00552167
0.00551588
0.00359655
0.0028803
0.00362936
0.00445055
0.00509343
0.00534172
0.00553454
0.00560367
0.00560954
0.00561137
0.00324627
0.00324684
0.00324769
0.0032481
0.00324829
0.00324843
0.0032485
0.0032485
0.00324834
0.0032483
0.00324632
0.00324699
0.00324765
0.0032479
0.00324794
0.0032477
0.00324752
0.00324725
0.00324689
0.00324661
0.00324652
0.00324703
0.00324743
0.00324746
0.00324687
0.00324651
0.00324631
0.00324601
0.00324574
0.00324546
0.00324687
0.00324707
0.00324716
0.00324665
0.00324613
0.00324593
0.00324579
0.00324561
0.00324533
0.00324488
0.00324718
0.0032471
0.00324678
0.00324626
0.00324593
0.00324577
0.00324571
0.00324562
0.00324523
0.00324353
0.00324745
0.00324715
0.0032467
0.00324608
0.00324564
0.0032456
0.00324556
0.00324549
0.00324359
0.00323994
0.00324769
0.00324721
0.00324666
0.00324592
0.00324561
0.00324603
0.00324483
0.00324388
0.00323333
0.00323721
0.00324809
0.0032473
0.00324654
0.00324696
0.00324818
0.00324695
0.00324001
0.00322877
0.00322568
0.0032426
0.0032485
0.00324738
0.00324878
0.00325316
0.00324907
0.003237
0.00321358
0.00321595
0.00322359
0.00328356
0.00325029
0.00324802
0.00326057
0.00325503
0.00323246
0.00320178
0.0032046
0.00321982
0.00326671
0.00343802
0.00324818
0.00324795
0.0032474
0.00324698
0.00324629
0.00324572
0.0032449
0.00324424
0.00324335
0.00324266
0.00324171
0.00324105
0.00324004
0.00323942
0.00323846
0.00323785
0.00323723
0.00323643
0.00323585
0.00323518
0.00323478
0.0032343
0.00323397
0.00323371
0.00323343
0.00323332
0.00323311
0.00323302
0.00323306
0.00323304
0.00323307
0.00323318
0.00323334
0.00323341
0.00323371
0.00323378
0.00323391
0.00323398
0.00323408
0.00323379
0.00323403
0.00323387
0.00323384
0.00323395
0.00323406
0.0032342
0.00323449
0.00323457
0.00323453
0.00323461
0.00323489
0.00323529
0.00323576
0.00323627
0.00323678
0.0032373
0.00323777
0.00323823
0.00323861
0.00323898
0.00323926
0.00323952
0.00323971
0.00323985
0.00323998
0.00324004
0.00324011
0.00324015
0.00324018
0.00324019
0.0032402
0.00324021
0.00324022
0.00324023
0.00324022
0.00324021
0.00324018
0.00324013
0.00324004
0.00323998
0.00323989
0.00323982
0.00323973
0.00323965
0.00323951
0.00323941
0.0032392
0.00323907
0.00323879
0.00323862
0.00323828
0.00323807
0.00323765
0.00323741
0.00323691
0.00323664
0.00323607
0.00323581
0.00323515
0.00323496
0.00324615
0.00324597
0.00324527
0.00324494
0.00324422
0.00324383
0.00324304
0.00324262
0.00324183
0.00324138
0.00324062
0.00324022
0.00323964
0.00323913
0.0032386
0.003238
0.00323778
0.00323733
0.00323719
0.00323719
0.00323725
0.00323746
0.00323773
0.00323826
0.00323873
0.00323935
0.00323987
0.00324058
0.00324105
0.00324191
0.0032425
0.0032434
0.00324467
0.00324533
0.00324651
0.00324723
0.00324809
0.00324947
0.00324982
0.00324997
0.00324957
0.0032498
0.00325046
0.00325129
0.00325227
0.00325335
0.00325449
0.00325574
0.00325698
0.00325831
0.00325958
0.0032609
0.00326212
0.00326336
0.0032645
0.00326561
0.00326661
0.00326755
0.00326841
0.00326916
0.00326985
0.00327042
0.00327093
0.00327135
0.0032717
0.00327201
0.00327225
0.00327244
0.00327265
0.00327276
0.00327294
0.00327302
0.00327321
0.00327334
0.00327355
0.00327372
0.00327391
0.00327412
0.00327424
0.00327438
0.00327464
0.00327463
0.00327463
0.00327462
0.00327474
0.00327478
0.00327483
0.00327485
0.00327488
0.00327478
0.0032748
0.00327475
0.00327445
0.00327431
0.00327416
0.00327387
0.00327374
0.00327346
0.00327341
0.00327338
0.00324504
0.00324463
0.0032438
0.00324339
0.00324263
0.00324224
0.00324163
0.00324119
0.00324072
0.00324047
0.00324004
0.0032397
0.00323944
0.00323908
0.00323892
0.00323891
0.00323908
0.0032392
0.00323955
0.00324011
0.00324096
0.00324211
0.00324332
0.00324492
0.00324643
0.00324831
0.00325001
0.00325196
0.00325369
0.0032556
0.00325726
0.00325915
0.00326073
0.00326267
0.00326442
0.00326645
0.00326843
0.00327054
0.00327275
0.00327506
0.00327748
0.00327997
0.00328255
0.00328518
0.00328788
0.00329059
0.00329333
0.003296
0.0032987
0.00330127
0.00330387
0.00330634
0.0033088
0.00331118
0.00331348
0.00331576
0.00331789
0.00332002
0.00332196
0.0033239
0.0033256
0.00332731
0.00332873
0.00333018
0.0033313
0.0033325
0.00333334
0.00333431
0.00333495
0.00333574
0.00333623
0.00333692
0.00333734
0.00333798
0.00333838
0.003339
0.0033394
0.00334001
0.00334041
0.003341
0.00334138
0.00334193
0.00334229
0.0033428
0.00334311
0.00334354
0.0033438
0.00334416
0.00334436
0.00334466
0.00334481
0.00334506
0.00334518
0.00334537
0.00334546
0.00334562
0.00334571
0.00334583
0.00334599
0.00334624
0.00324428
0.00324332
0.00324244
0.00324184
0.00324147
0.00324098
0.00324076
0.00324051
0.00324023
0.00324019
0.00323997
0.00324006
0.00324028
0.00324052
0.00324104
0.00324142
0.00324224
0.00324294
0.00324434
0.00324591
0.0032481
0.00325052
0.0032535
0.00325676
0.00326039
0.00326431
0.0032683
0.00327255
0.00327666
0.00328107
0.00328515
0.00328968
0.00329376
0.00329849
0.00330268
0.00330775
0.00331223
0.00331772
0.00332256
0.00332844
0.00333356
0.00333963
0.00334485
0.00335088
0.00335602
0.00336187
0.00336677
0.0033723
0.00337688
0.00338205
0.00338634
0.0033912
0.00339526
0.00339989
0.00340382
0.00340826
0.00341209
0.00341634
0.00342004
0.00342403
0.00342754
0.00343118
0.0034344
0.0034376
0.00344044
0.00344316
0.00344558
0.00344782
0.00344986
0.00345164
0.00345342
0.0034548
0.00345641
0.00345751
0.00345893
0.00345991
0.00346117
0.00346191
0.00346306
0.00346396
0.00346489
0.00346595
0.00346727
0.00346833
0.00346915
0.00346995
0.00347062
0.0034712
0.00347261
0.00347387
0.00347472
0.00347581
0.00347639
0.00347622
0.00347752
0.00347775
0.00347813
0.00347809
0.00347813
0.00347814
0.00324339
0.00324292
0.00324232
0.0032417
0.00324144
0.00324087
0.00324088
0.00324096
0.00324135
0.00324181
0.00324245
0.00324289
0.00324386
0.0032445
0.00324576
0.00324675
0.00324872
0.00325064
0.00325367
0.00325713
0.00326144
0.00326656
0.0032724
0.00327907
0.00328633
0.00329409
0.00330232
0.00331056
0.00331923
0.00332767
0.00333643
0.00334509
0.003354
0.00336305
0.00337238
0.00338207
0.00339198
0.00340239
0.00341283
0.00342386
0.00343448
0.00344573
0.00345625
0.00346726
0.00347733
0.00348781
0.0034972
0.0035069
0.00351548
0.00352441
0.0035323
0.00354066
0.00354809
0.00355608
0.00356327
0.00357105
0.0035781
0.0035857
0.00359259
0.00359994
0.00360657
0.00361352
0.00361975
0.00362619
0.00363192
0.00363778
0.00364299
0.00364829
0.00365305
0.00365782
0.00366232
0.00366659
0.00367095
0.00367485
0.00367893
0.00368266
0.00368633
0.00368971
0.00369303
0.00369573
0.00369892
0.00370121
0.00370393
0.00370572
0.00370791
0.00370998
0.00371168
0.0037138
0.00371577
0.00371812
0.00371954
0.0037213
0.00372285
0.00372397
0.00372578
0.00372731
0.00372854
0.00373113
0.0037317
0.0037325
0.00323998
0.00324058
0.00324009
0.0032401
0.00324065
0.00324184
0.00324277
0.00324397
0.00324496
0.00324608
0.00324729
0.00324859
0.00325037
0.00325207
0.00325468
0.0032575
0.00326166
0.00326638
0.00327268
0.00327988
0.00328879
0.00329902
0.00331077
0.00332396
0.00333814
0.00335339
0.00336909
0.00338524
0.0034017
0.00341814
0.00343484
0.00345161
0.00346867
0.00348597
0.00350383
0.00352192
0.00354084
0.00355984
0.00357963
0.00359937
0.00361907
0.00363882
0.00365796
0.00367687
0.00369485
0.00371255
0.00372902
0.00374509
0.00375991
0.00377474
0.00378883
0.00380305
0.00381655
0.00383037
0.00384349
0.00385709
0.00386997
0.00388338
0.00389597
0.00390903
0.00392116
0.00393363
0.0039451
0.00395672
0.00396738
0.00397805
0.00398785
0.0039976
0.00400665
0.0040156
0.00402408
0.00403236
0.00404047
0.00404807
0.00405598
0.00406267
0.00407039
0.0040761
0.00408295
0.00408825
0.00409319
0.00409783
0.00410164
0.00410578
0.00410896
0.00411245
0.00411551
0.00411842
0.00412218
0.00412461
0.00412878
0.00413114
0.00413562
0.00413624
0.00414078
0.00414159
0.0041429
0.00413907
0.00414151
0.00414215
0.00323895
0.00324071
0.00324236
0.00324377
0.00324539
0.00324694
0.00324849
0.00325035
0.00325211
0.00325446
0.00325695
0.00326025
0.00326395
0.00326876
0.00327447
0.00328188
0.00329061
0.00330174
0.00331445
0.00333025
0.00334792
0.00336918
0.00339212
0.0034182
0.00344543
0.0034742
0.00350391
0.00353416
0.00356497
0.00359552
0.0036263
0.00365703
0.00368769
0.00371863
0.00374977
0.00378258
0.00381683
0.00385089
0.00388599
0.00391969
0.00395299
0.00398486
0.00401578
0.00404445
0.00407211
0.00409755
0.00412165
0.00414364
0.00416411
0.00418246
0.00419906
0.00421418
0.00422805
0.00424089
0.00425278
0.00426391
0.00427428
0.00428402
0.0042931
0.0043017
0.00430968
0.00431727
0.00432429
0.00433098
0.00433715
0.00434303
0.0043485
0.00435366
0.00435861
0.00436318
0.00436776
0.00437186
0.0043762
0.00437987
0.004384
0.00438734
0.00439108
0.00439406
0.00439731
0.00439988
0.0044025
0.00440469
0.00440661
0.00440834
0.00440979
0.00441097
0.00441224
0.004413
0.00441421
0.00441489
0.00441586
0.00441652
0.0044172
0.00441807
0.00441861
0.00441925
0.00441957
0.00442014
0.00442037
0.00442101
0.00324492
0.00324699
0.00324976
0.00325184
0.00325488
0.0032573
0.00326087
0.00326448
0.0032691
0.0032744
0.00328096
0.0032887
0.00329827
0.00330976
0.00332397
0.00334098
0.00336121
0.00338541
0.00341271
0.00344608
0.00348241
0.0035259
0.00357004
0.00362138
0.00366947
0.00372423
0.00378036
0.00383765
0.00389278
0.00394656
0.00399729
0.00404599
0.00409166
0.00413528
0.00417602
0.00421194
0.00424395
0.00427183
0.00429718
0.0043193
0.00433903
0.00435651
0.00437207
0.00438568
0.00439778
0.00440833
0.00441779
0.00442575
0.00443276
0.00443896
0.00444442
0.00444916
0.00445325
0.00445679
0.00445981
0.00446221
0.00446429
0.00446592
0.00446733
0.00446845
0.00446941
0.00447029
0.00447097
0.00447177
0.00447228
0.00447307
0.00447353
0.00447425
0.00447476
0.00447542
0.00447594
0.00447662
0.00447713
0.00447767
0.0044785
0.00447866
0.004479
0.00447888
0.00447882
0.00447877
0.00447868
0.00447859
0.00447866
0.00447825
0.00447814
0.00447828
0.0044781
0.00447802
0.00447794
0.00447777
0.00447771
0.00447745
0.00447743
0.00447733
0.00447731
0.00447704
0.00447713
0.00447659
0.00447648
0.00447629
0.00328155
0.00328116
0.00328294
0.00328628
0.00329061
0.00329533
0.00330219
0.00331035
0.00332118
0.00333417
0.00335064
0.00337063
0.00339507
0.00342419
0.00345858
0.00349799
0.00354353
0.0035939
0.00365579
0.00372556
0.00380316
0.00388221
0.00396575
0.00404296
0.00412213
0.00418872
0.00424333
0.00428875
0.00432564
0.00435675
0.00438182
0.00440343
0.00442097
0.00443618
0.00444903
0.00446036
0.00447009
0.00447868
0.00448612
0.00449253
0.00449803
0.00450271
0.00450681
0.00451008
0.00451289
0.0045149
0.0045166
0.00451745
0.00451782
0.00451846
0.00451831
0.00451767
0.00451639
0.00451477
0.00451297
0.00451102
0.00450905
0.00450697
0.00450498
0.00450289
0.00450099
0.00449915
0.0044975
0.00449601
0.00449462
0.00449344
0.00449224
0.00449129
0.00449023
0.00448946
0.00448852
0.00448786
0.00448702
0.00448644
0.00448566
0.0044851
0.00448434
0.00448373
0.00448298
0.00448229
0.00448154
0.00448081
0.00448008
0.00447937
0.00447868
0.00447803
0.00447737
0.00447677
0.00447614
0.00447556
0.00447496
0.0044743
0.00447377
0.00447304
0.0044725
0.00447172
0.00447121
0.00447045
0.00446995
0.00446896
0.00343082
0.00342198
0.0034135
0.0034123
0.00341656
0.00342616
0.00344498
0.00346966
0.00350335
0.00354263
0.00359193
0.00364663
0.00371035
0.00377868
0.00385271
0.00393099
0.00401059
0.0040935
0.00416564
0.0042298
0.00428444
0.00433292
0.00437343
0.00440895
0.00443822
0.00446325
0.00448385
0.00450079
0.00451439
0.00452542
0.00453381
0.00454065
0.00454566
0.00454988
0.00455287
0.0045553
0.00455633
0.00455762
0.00455768
0.00455705
0.00455646
0.00455556
0.00455441
0.00455265
0.00455075
0.00454837
0.00454557
0.0045425
0.0045388
0.00453492
0.00453031
0.00452572
0.00452058
0.00451561
0.00451035
0.00450562
0.00450062
0.00449621
0.0044917
0.00448772
0.00448382
0.00448016
0.00447668
0.00447343
0.00447025
0.00446747
0.00446453
0.00446213
0.00445938
0.00445717
0.00445456
0.00445243
0.00444989
0.00444779
0.00444529
0.00444317
0.0044407
0.00443855
0.00443617
0.00443402
0.00443192
0.00442995
0.00442819
0.00442652
0.00442506
0.00442374
0.00442251
0.00442137
0.00442018
0.00441911
0.00441789
0.00441688
0.00441566
0.00441452
0.00441361
0.00441231
0.0044116
0.00441041
0.00440956
0.00440792
0.00423891
0.0041931
0.0041617
0.00414805
0.00413916
0.00414179
0.0041493
0.00416387
0.00418463
0.00420898
0.00423751
0.00426729
0.004299
0.00433008
0.00436147
0.00439158
0.00442037
0.00444785
0.00447299
0.00449657
0.00451738
0.0045364
0.00455247
0.00456663
0.00457832
0.0045881
0.00459577
0.0046014
0.00460582
0.00460836
0.00461011
0.0046104
0.00461069
0.00461026
0.00460957
0.00460795
0.00460686
0.00460488
0.00460347
0.00460121
0.00459962
0.00459656
0.00459426
0.00458962
0.00458668
0.00458102
0.00457719
0.00457092
0.00456586
0.0045593
0.00455291
0.00454598
0.00453856
0.00453154
0.00452366
0.00451682
0.00450896
0.00450227
0.00449481
0.00448822
0.00448149
0.00447515
0.00446911
0.00446305
0.00445754
0.00445184
0.00444675
0.00444127
0.00443663
0.00443124
0.00442705
0.00442179
0.00441791
0.00441297
0.00440923
0.00440469
0.00440104
0.00439686
0.00439332
0.0043894
0.0043859
0.00438211
0.00437872
0.00437506
0.00437186
0.00436837
0.00436532
0.00436232
0.00435961
0.00435721
0.0043549
0.00435298
0.00435116
0.00434934
0.00434805
0.00434627
0.00434522
0.00434361
0.00434298
0.00433932
0.00468159
0.00464691
0.00461295
0.00459196
0.00457244
0.00456292
0.00455433
0.00455437
0.00455645
0.00456094
0.00456832
0.0045764
0.00458608
0.0045957
0.00460655
0.00461647
0.00462635
0.00463501
0.00464257
0.00464884
0.00465386
0.00465756
0.00466026
0.00466186
0.00466297
0.00466303
0.00466273
0.00466172
0.00466073
0.00465858
0.00465709
0.00465448
0.0046528
0.00465021
0.00464868
0.00464577
0.00464386
0.00464044
0.00463804
0.0046335
0.00463029
0.00462468
0.00462053
0.0046144
0.00460914
0.00460278
0.00459697
0.00459015
0.00458378
0.0045764
0.00456967
0.00456189
0.00455525
0.00454734
0.00454086
0.00453327
0.00452675
0.00451974
0.00451326
0.00450669
0.00450066
0.0044943
0.00448865
0.00448271
0.00447681
0.00447154
0.00446521
0.00446008
0.00445398
0.00444823
0.00444278
0.0044362
0.0044311
0.0044241
0.00441873
0.00441162
0.00440566
0.00439869
0.00439199
0.00438528
0.00437813
0.00437167
0.00436407
0.00435776
0.00435026
0.00434395
0.0043368
0.00433081
0.00432438
0.00431865
0.00431338
0.00430794
0.00430385
0.00429872
0.00429553
0.00429097
0.00428837
0.00428416
0.00428247
0.00427699
0.00495742
0.00492026
0.00488733
0.00485962
0.00483589
0.00481542
0.00479836
0.00478411
0.0047726
0.00476311
0.00475554
0.00474958
0.00474515
0.00474172
0.00473931
0.00473653
0.00473441
0.00473143
0.00472839
0.00472492
0.00472088
0.00471669
0.00471242
0.00470775
0.00470348
0.00469867
0.00469474
0.00469008
0.0046868
0.00468242
0.00467979
0.004676
0.00467365
0.00467035
0.00466804
0.00466445
0.0046622
0.00465751
0.00465465
0.00464884
0.004645
0.00463818
0.00463401
0.00462658
0.00462223
0.00461452
0.00461038
0.00460261
0.00459856
0.00459101
0.00458726
0.00457994
0.00457629
0.004569
0.00456536
0.00455808
0.00455444
0.00454714
0.00454347
0.00453613
0.00453244
0.00452505
0.00452134
0.0045139
0.00451016
0.00450271
0.00449895
0.00449144
0.00448762
0.00448006
0.00447616
0.0044684
0.00446445
0.00445641
0.00445236
0.00444412
0.00443992
0.00443165
0.0044274
0.00441918
0.00441497
0.00440688
0.0044027
0.00439471
0.00439045
0.00438246
0.0043781
0.00436998
0.00436549
0.00435727
0.00435266
0.00434436
0.00433977
0.00433145
0.00432697
0.00431861
0.00431429
0.00430579
0.00430211
0.00429102
0.00509111
0.00505381
0.00502025
0.00499
0.00496215
0.00493692
0.00491386
0.00489374
0.00487607
0.00486149
0.00484855
0.00483777
0.00482733
0.00481776
0.0048084
0.00479892
0.00479028
0.00478103
0.00477229
0.00476405
0.00475493
0.00474788
0.00473944
0.00473365
0.00472676
0.00472229
0.00471707
0.00471401
0.00471008
0.00470798
0.0047051
0.00470336
0.00470071
0.00469907
0.004696
0.00469405
0.00469076
0.00468761
0.00468411
0.00468005
0.00467605
0.00467179
0.00466756
0.00466333
0.00465932
0.00465534
0.00465162
0.00464788
0.00464438
0.0046407
0.0046374
0.00463347
0.00463023
0.00462577
0.00462254
0.00461762
0.00461407
0.0046088
0.0046047
0.00459924
0.00459454
0.00458861
0.0045831
0.00457667
0.00457038
0.00456365
0.00455649
0.00454954
0.00454169
0.00453462
0.00452639
0.00451915
0.00451111
0.00450331
0.00449612
0.00448799
0.00448116
0.00447343
0.00446681
0.00445957
0.00445349
0.00444644
0.00444094
0.00443402
0.00442852
0.00442142
0.00441619
0.00440773
0.00440307
0.00439382
0.00438845
0.00437964
0.00437339
0.00436482
0.00435825
0.00434901
0.0043437
0.00433303
0.00432814
0.00431579
0.00516821
0.00512891
0.00509477
0.00506344
0.00503327
0.00500452
0.00497737
0.00495306
0.00493201
0.00491516
0.00490098
0.00488929
0.00487764
0.00486656
0.00485467
0.00484296
0.00483132
0.00481974
0.00480933
0.00479902
0.00479043
0.00478259
0.0047763
0.00477115
0.00476729
0.00476414
0.00476196
0.00475985
0.00475819
0.00475614
0.00475447
0.00475154
0.00474952
0.00474605
0.0047432
0.00473972
0.00473692
0.00473314
0.00473088
0.00472703
0.00472518
0.00472177
0.00471991
0.00471652
0.00471463
0.00471111
0.00470918
0.00470546
0.00470332
0.00469924
0.00469666
0.00469207
0.00468922
0.00468404
0.00468114
0.00467567
0.00467256
0.00466705
0.00466348
0.00465771
0.00465354
0.00464719
0.00464231
0.00463545
0.00462991
0.00462277
0.00461681
0.00460933
0.00460344
0.00459522
0.00458966
0.00458069
0.0045751
0.00456583
0.0045596
0.00455054
0.00454358
0.00453489
0.0045276
0.00451936
0.00451201
0.00450422
0.00449676
0.00448956
0.00448138
0.0044751
0.00446628
0.00446006
0.00445217
0.0044445
0.00443771
0.00442933
0.00442315
0.00441416
0.00440843
0.00439829
0.0043932
0.00438318
0.00437804
0.00436636
0.00523879
0.00519588
0.00515827
0.00512624
0.00509501
0.00506631
0.00503899
0.00501525
0.00499326
0.00497471
0.0049583
0.00494464
0.00493185
0.00492059
0.00490853
0.00489752
0.00488539
0.00487474
0.00486399
0.00485518
0.00484719
0.00484135
0.00483649
0.00483326
0.00483052
0.0048285
0.0048262
0.00482413
0.004821
0.0048182
0.00481426
0.00481046
0.00480632
0.00480254
0.00479836
0.00479568
0.00479244
0.00479013
0.00478812
0.00478557
0.00478405
0.00478121
0.00477935
0.00477577
0.00477333
0.00476889
0.00476623
0.00476098
0.00475795
0.0047523
0.0047487
0.00474278
0.00473816
0.00473181
0.00472655
0.00471994
0.00471479
0.00470852
0.00470359
0.0046972
0.00469217
0.00468573
0.00468011
0.00467334
0.00466675
0.00465978
0.00465251
0.00464528
0.0046381
0.00463029
0.0046239
0.00461538
0.00460984
0.00460112
0.00459574
0.00458736
0.0045818
0.00457373
0.00456824
0.00456006
0.00455498
0.00454643
0.00454138
0.00453295
0.00452719
0.00451935
0.00451274
0.00450488
0.00449805
0.00448954
0.00448308
0.00447373
0.00446751
0.00445758
0.00445214
0.00444157
0.00443622
0.00442601
0.00442096
0.00440972
0.00530959
0.00526632
0.00522716
0.00519446
0.00516473
0.00513824
0.0051124
0.00508891
0.0050666
0.0050464
0.00502846
0.00501249
0.00499867
0.00498581
0.00497352
0.00496186
0.00495018
0.00493982
0.00493038
0.00492271
0.00491704
0.00491263
0.00490964
0.0049068
0.0049043
0.00490104
0.00489782
0.0048936
0.00488948
0.00488462
0.00488029
0.00487531
0.00487174
0.00486754
0.00486485
0.00486197
0.00486021
0.00485742
0.00485576
0.00485225
0.00485004
0.00484537
0.00484254
0.00483646
0.00483298
0.00482598
0.0048222
0.00481522
0.00481168
0.00480485
0.00480136
0.0047943
0.00479063
0.00478325
0.00477932
0.00477133
0.00476694
0.00475784
0.00475269
0.00474298
0.00473764
0.00472796
0.00472259
0.0047133
0.00470822
0.00469918
0.00469429
0.00468558
0.00468077
0.00467233
0.0046677
0.00465946
0.00465511
0.00464694
0.00464278
0.00463457
0.00463045
0.0046222
0.00461798
0.00460959
0.00460512
0.00459655
0.00459191
0.00458309
0.00457838
0.00456932
0.00456456
0.00455531
0.00455056
0.00454119
0.00453647
0.00452703
0.00452229
0.00451285
0.0045081
0.00449865
0.00449389
0.0044843
0.00448018
0.00446731
0.00537074
0.00533004
0.00529431
0.0052603
0.00523387
0.00520746
0.00518315
0.00515951
0.00513651
0.00511475
0.005095
0.00507812
0.00506449
0.00505183
0.0050412
0.00502941
0.00501929
0.00500849
0.00500009
0.00499192
0.00498597
0.00497935
0.00497409
0.00496755
0.00496221
0.00495539
0.00495034
0.00494359
0.00493881
0.00493249
0.00492809
0.00492254
0.00491926
0.00491465
0.00491217
0.00490815
0.00490582
0.00490129
0.00489873
0.0048935
0.00489049
0.00488409
0.00488051
0.00487303
0.00486895
0.00486116
0.00485699
0.00484929
0.00484531
0.00483748
0.00483337
0.00482523
0.00482089
0.00481267
0.00480824
0.00480017
0.00479578
0.00478781
0.00478361
0.00477577
0.00477175
0.00476402
0.00475997
0.00475217
0.00474798
0.00473999
0.00473565
0.00472716
0.00472262
0.00471381
0.00470896
0.00469991
0.00469505
0.00468571
0.00468069
0.00467121
0.00466609
0.00465642
0.00465124
0.0046414
0.00463632
0.00462638
0.00462141
0.00461151
0.00460656
0.00459667
0.00459169
0.00458183
0.00457686
0.00456712
0.0045622
0.00455261
0.00454775
0.00453833
0.00453354
0.00452425
0.00451957
0.00451027
0.00450627
0.00449381
0.00541563
0.0053795
0.0053466
0.00531281
0.00528604
0.00525904
0.00523757
0.00521482
0.00519374
0.00517142
0.0051526
0.00513412
0.00511849
0.005103
0.00508977
0.00507616
0.00506518
0.00505347
0.00504505
0.0050355
0.00502902
0.00502072
0.00501525
0.00500823
0.00500376
0.00499765
0.00499353
0.00498696
0.00498216
0.00497451
0.00496883
0.00496075
0.00495513
0.00494742
0.00494269
0.00493631
0.00493227
0.004927
0.00492385
0.00491855
0.00491542
0.00490965
0.00490642
0.00490039
0.00489734
0.00489151
0.00488831
0.00488257
0.0048791
0.00487286
0.00486865
0.00486146
0.00485633
0.00484831
0.00484267
0.00483436
0.00482877
0.00482066
0.00481536
0.00480756
0.00480281
0.00479551
0.00479127
0.00478423
0.00478014
0.00477288
0.00476885
0.00476084
0.00475651
0.00474778
0.00474291
0.00473335
0.00472808
0.00471826
0.00471277
0.00470285
0.00469728
0.00468743
0.00468193
0.00467204
0.00466666
0.00465705
0.00465188
0.00464282
0.00463799
0.00462891
0.00462413
0.00461519
0.00461056
0.00460173
0.00459721
0.00458848
0.00458405
0.00457549
0.00457116
0.00456278
0.00455851
0.00455003
0.00454643
0.00453417
0.00544691
0.00541338
0.00538479
0.00535421
0.00532889
0.00530337
0.00528263
0.00525951
0.00523978
0.00521878
0.00520093
0.00518297
0.00516699
0.00515199
0.00513791
0.00512471
0.00511279
0.00510131
0.0050928
0.00508383
0.00507755
0.00506947
0.00506356
0.00505591
0.00504986
0.00504157
0.00503455
0.00502561
0.00501768
0.00500862
0.00500073
0.00499266
0.00498591
0.00497921
0.00497475
0.00497008
0.00496712
0.00496408
0.00496265
0.00495976
0.00495809
0.00495469
0.00495259
0.00494838
0.00494567
0.0049397
0.00493534
0.00492817
0.00492246
0.00491433
0.0049075
0.00489828
0.00489019
0.0048799
0.004871
0.00486027
0.00485141
0.00484118
0.00483342
0.00482401
0.00481767
0.00480898
0.00480379
0.00479581
0.00479145
0.00478386
0.00478002
0.00477254
0.00476863
0.00476086
0.00475676
0.00474847
0.00474405
0.00473538
0.0047308
0.00472177
0.00471704
0.00470764
0.00470278
0.00469333
0.00468827
0.0046792
0.00467436
0.00466534
0.0046604
0.00465134
0.00464649
0.00463763
0.00463315
0.00462451
0.00462016
0.00461161
0.00460726
0.00459884
0.00459452
0.00458627
0.00458197
0.00457368
0.00457017
0.00455736
0.00547239
0.00544145
0.00541642
0.00538964
0.00536498
0.0053391
0.00531733
0.00529515
0.00527635
0.00525601
0.00523957
0.00522121
0.00520682
0.00519063
0.00517773
0.00516379
0.00515323
0.00514291
0.00513616
0.00512806
0.00512174
0.00511313
0.00510593
0.00509741
0.00508961
0.00508039
0.00507219
0.005063
0.00505477
0.00504591
0.00503859
0.00503084
0.00502487
0.00501822
0.00501292
0.00500659
0.00500185
0.00499687
0.00499377
0.00498942
0.00498697
0.00498354
0.00498127
0.00497754
0.00497519
0.0049697
0.00496633
0.00495929
0.00495423
0.00494541
0.00493857
0.00492824
0.00491933
0.0049072
0.00489641
0.00488302
0.00487155
0.00485795
0.00484714
0.00483446
0.00482545
0.0048143
0.00480738
0.00479785
0.00479269
0.00478447
0.00478027
0.00477265
0.00476882
0.00476133
0.00475738
0.00474959
0.00474544
0.00473723
0.00473288
0.00472421
0.00471966
0.00471059
0.00470584
0.00469653
0.00469165
0.00468216
0.00467711
0.00466804
0.00466346
0.00465472
0.00465025
0.00464148
0.0046372
0.00462888
0.00462475
0.00461649
0.00461233
0.00460398
0.00459971
0.00459123
0.00458679
0.00457843
0.00457302
0.00456325
0.00549472
0.00546435
0.00544101
0.00541357
0.00539137
0.00536611
0.00534495
0.00532117
0.00530296
0.00528297
0.00526734
0.00524857
0.00523489
0.0052179
0.00520631
0.00519211
0.00518239
0.00517124
0.00516302
0.00515277
0.00514468
0.00513496
0.00512721
0.00511794
0.00511037
0.00510149
0.00509414
0.00508519
0.00507838
0.00506949
0.00506251
0.00505348
0.0050459
0.00503654
0.00502935
0.00502055
0.00501415
0.00500718
0.00500228
0.00499626
0.00499278
0.00498849
0.00498604
0.00498176
0.00497912
0.00497344
0.00497018
0.00496296
0.00495869
0.0049496
0.0049436
0.00493284
0.0049249
0.00491247
0.0049024
0.00488819
0.00487691
0.00486238
0.0048513
0.00483761
0.00482789
0.00481578
0.00480824
0.00479794
0.00479212
0.00478302
0.00477845
0.00477019
0.00476605
0.00475809
0.00475405
0.00474589
0.00474167
0.00473309
0.00472865
0.00471965
0.004715
0.00470584
0.00470098
0.00469169
0.00468689
0.00467774
0.00467282
0.00466406
0.00465953
0.00465113
0.00464696
0.00463899
0.00463499
0.00462714
0.00462316
0.00461506
0.0046109
0.00460251
0.0045983
0.00458987
0.00458547
0.00457667
0.0045729
0.00456006
0.00550969
0.00547796
0.00545909
0.00543126
0.00541351
0.00538632
0.00536881
0.00534305
0.00532769
0.00530679
0.00529346
0.005275
0.00526242
0.00524567
0.00523394
0.00521835
0.00520729
0.00519384
0.00518511
0.00517451
0.00516803
0.00515874
0.00515334
0.00514491
0.0051395
0.0051309
0.00512414
0.00511391
0.00510546
0.00509325
0.00508372
0.00507073
0.00506081
0.00504824
0.0050391
0.00502797
0.00502053
0.00501147
0.00500525
0.00499739
0.00499323
0.00498742
0.00498438
0.0049785
0.00497516
0.00496836
0.00496442
0.00495665
0.00495201
0.00494258
0.00493719
0.00492588
0.0049197
0.00490731
0.00489998
0.00488656
0.00487788
0.00486335
0.00485386
0.00483953
0.00483053
0.00481739
0.00480964
0.00479784
0.00479126
0.00478069
0.00477513
0.00476544
0.00476051
0.00475124
0.00474654
0.00473737
0.00473275
0.00472353
0.00471886
0.00470955
0.00470475
0.00469515
0.00469013
0.00468061
0.00467555
0.00466605
0.00466102
0.00465162
0.00464663
0.0046378
0.00463326
0.00462482
0.00462058
0.00461223
0.004608
0.00459983
0.00459581
0.00458759
0.00458333
0.00457491
0.00457052
0.00456135
0.0045575
0.00454389
0.00551883
0.00549014
0.00546979
0.00544672
0.00542955
0.00540428
0.00538728
0.00536326
0.00534769
0.00532551
0.00531144
0.0052929
0.00528114
0.0052654
0.00525449
0.00523903
0.00522798
0.00521298
0.00520282
0.00518924
0.0051813
0.00517015
0.00516473
0.00515531
0.00515049
0.00514078
0.00513446
0.00512315
0.00511474
0.00510151
0.00509173
0.00507754
0.00506773
0.00505391
0.00504501
0.00503247
0.00502485
0.00501367
0.00500705
0.00499701
0.00499174
0.0049827
0.00497805
0.00496921
0.0049645
0.00495541
0.00495068
0.00494112
0.00493615
0.00492579
0.00492036
0.00490919
0.00490357
0.00489215
0.00488628
0.00487457
0.0048684
0.00485559
0.00484842
0.00483464
0.00482635
0.00481207
0.00480339
0.00478942
0.0047812
0.00476815
0.00476084
0.00474911
0.00474319
0.00473263
0.00472737
0.00471717
0.00471207
0.00470181
0.00469668
0.00468626
0.00468097
0.00467055
0.00466516
0.00465489
0.00464963
0.00463943
0.00463424
0.00462406
0.00461894
0.00460892
0.00460389
0.00459407
0.00458909
0.00457942
0.00457455
0.00456493
0.00456012
0.00455048
0.00454562
0.00453594
0.00453097
0.0045211
0.00451695
0.00450189
0.00552966
0.00550303
0.00548427
0.00546064
0.0054438
0.00542061
0.00540581
0.00538359
0.00536915
0.00534709
0.00533229
0.00531165
0.00529948
0.0052831
0.00527364
0.00525783
0.00524736
0.00523085
0.00522017
0.00520408
0.00519503
0.00518129
0.00517446
0.00516271
0.00515684
0.00514537
0.00513912
0.00512645
0.00511858
0.00510495
0.00509599
0.00508227
0.00507327
0.00505954
0.00505096
0.00503778
0.00502946
0.00501659
0.00500823
0.00499607
0.00498915
0.00497801
0.0049723
0.00496186
0.00495668
0.00494676
0.00494157
0.00493128
0.00492583
0.00491479
0.00490886
0.00489726
0.00489094
0.00487851
0.00487198
0.00485919
0.00485244
0.00483927
0.00483225
0.00481856
0.00481051
0.00479616
0.00478735
0.00477298
0.00476438
0.00475062
0.00474299
0.00473028
0.0047239
0.00471228
0.00470657
0.00469554
0.00469003
0.00467919
0.00467378
0.00466286
0.00465738
0.00464645
0.00464097
0.00463012
0.00462469
0.004614
0.00460866
0.00459803
0.00459268
0.00458188
0.00457645
0.00456564
0.00456023