/*--------------------------------*- C++ -*----------------------------------*\
  =========                 |
  \\      /  F ield         | OpenFOAM: The Open Source CFD Toolbox
   \\    /   O peration     | Website:  https://openfoam.org
    \\  /    A nd           | Version:  8
     \\/     M anipulation  |
\*---------------------------------------------------------------------------*/
FoamFile
{
    version     2.0;
    format      ascii;
    class       volScalarField;
    location    "20.000098150058701";
    object      rho;
}
// * * * * * * * * * * * * * * * * * * * * * * * * * * * * * * * * * * * * * //

dimensions      [1 -3 0 0 0 0 0];

internalField   nonuniform List<scalar> 
6800
(
0.576226
0.577619
0.578359
0.578975
0.579971
0.58256
0.584173
0.584963
0.585459
0.585804
0.574771
0.576552
0.578689
0.58015
0.582645
0.584197
0.584982
0.585458
0.585785
0.585947
0.575552
0.575497
0.578786
0.582566
0.583873
0.584671
0.585149
0.585457
0.585698
0.585819
0.577046
0.57794
0.579355
0.583441
0.58427
0.584712
0.585083
0.585444
0.585685
0.585969
0.57974
0.584616
0.581796
0.584171
0.584492
0.584784
0.585042
0.585366
0.585559
0.585814
0.579439
0.586106
0.58162
0.583831
0.584094
0.584428
0.584602
0.585003
0.585323
0.585949
0.575002
0.585127
0.581429
0.583291
0.583408
0.583966
0.584188
0.584867
0.585397
0.586184
0.570968
0.582996
0.579951
0.582074
0.582253
0.583274
0.583814
0.584625
0.5852
0.585966
0.565136
0.579714
0.578552
0.580905
0.581342
0.582721
0.583587
0.584602
0.585171
0.585977
0.561219
0.576714
0.576235
0.579847
0.580656
0.582313
0.583473
0.584479
0.585099
0.585962
0.57948
0.579135
0.578811
0.5787
0.578657
0.578647
0.578662
0.578697
0.578754
0.57883
0.579395
0.579052
0.578767
0.578656
0.578615
0.578603
0.578612
0.578645
0.578703
0.578784
0.579207
0.578897
0.578672
0.578579
0.578539
0.57852
0.578524
0.578554
0.578616
0.578725
0.578959
0.578729
0.578564
0.578494
0.578456
0.578434
0.578431
0.578448
0.578523
0.578696
0.578709
0.578575
0.578473
0.578428
0.578395
0.57837
0.578355
0.578364
0.578467
0.578777
0.578485
0.57845
0.578402
0.578399
0.5784
0.578392
0.578385
0.578363
0.578436
0.578995
0.57827
0.578356
0.578375
0.578457
0.578504
0.578519
0.578535
0.578594
0.578651
0.579679
0.578044
0.578253
0.578415
0.578568
0.578662
0.578719
0.578819
0.579234
0.579453
0.581087
0.577774
0.578157
0.578445
0.578649
0.578827
0.579101
0.579579
0.580369
0.581439
0.583795
0.57723
0.578018
0.578324
0.5787
0.579166
0.579884
0.58144
0.583599
0.584496
0.585162
0.578945
0.57917
0.579454
0.579788
0.580165
0.580586
0.581046
0.581535
0.582048
0.582582
0.583126
0.583678
0.584225
0.584765
0.5853
0.585813
0.586301
0.586766
0.587201
0.587609
0.587988
0.588336
0.588652
0.588936
0.589189
0.589412
0.589607
0.589774
0.589916
0.590034
0.590131
0.59021
0.590272
0.590322
0.590357
0.590383
0.590401
0.590413
0.590418
0.590419
0.590416
0.590411
0.590403
0.590393
0.590382
0.590371
0.590359
0.590346
0.590333
0.590319
0.590305
0.590291
0.590276
0.590262
0.590247
0.590233
0.590218
0.590204
0.59019
0.590177
0.590164
0.590151
0.590139
0.590128
0.590118
0.590108
0.590099
0.590091
0.590083
0.590076
0.59007
0.590065
0.59006
0.590055
0.590051
0.590048
0.590045
0.590042
0.59004
0.590039
0.590038
0.590037
0.590037
0.590037
0.590038
0.590038
0.590039
0.59004
0.590041
0.590042
0.590043
0.590044
0.590045
0.590045
0.590045
0.590044
0.590043
0.590042
0.590038
0.590047
0.578887
0.579136
0.579422
0.579756
0.580137
0.58056
0.581021
0.581508
0.582019
0.582551
0.583096
0.583652
0.584203
0.584738
0.585264
0.585776
0.586267
0.586731
0.587167
0.587574
0.587952
0.588298
0.588614
0.588896
0.589148
0.589371
0.589564
0.58973
0.589871
0.589989
0.590086
0.590164
0.590226
0.590276
0.590311
0.590337
0.590356
0.590368
0.590374
0.590376
0.590374
0.590369
0.590362
0.590354
0.590344
0.590333
0.590322
0.59031
0.590297
0.590284
0.59027
0.590256
0.590242
0.590227
0.590213
0.590199
0.590184
0.590171
0.590157
0.590144
0.590132
0.59012
0.590108
0.590098
0.590088
0.590079
0.59007
0.590063
0.590056
0.590049
0.590044
0.590039
0.590034
0.59003
0.590027
0.590024
0.590021
0.590019
0.590018
0.590017
0.590016
0.590016
0.590016
0.590017
0.590018
0.590019
0.59002
0.590021
0.590023
0.590024
0.590025
0.590026
0.590026
0.590026
0.590027
0.590026
0.590025
0.590024
0.59002
0.590028
0.578811
0.579087
0.579373
0.57971
0.580095
0.580521
0.580986
0.581472
0.581974
0.582503
0.58304
0.583581
0.584131
0.584676
0.585204
0.585712
0.586199
0.586661
0.587095
0.587501
0.587877
0.588222
0.588536
0.588818
0.589069
0.589291
0.589483
0.589649
0.58979
0.589907
0.590003
0.590081
0.590143
0.590193
0.590229
0.590256
0.590276
0.590289
0.590298
0.590302
0.590302
0.590299
0.590294
0.590286
0.590278
0.590268
0.590258
0.590247
0.590235
0.590223
0.590209
0.590196
0.590182
0.590167
0.590153
0.59014
0.590126
0.590113
0.5901
0.590088
0.590076
0.590065
0.590054
0.590045
0.590036
0.590028
0.59002
0.590014
0.590008
0.590002
0.589997
0.589993
0.58999
0.589987
0.589984
0.589982
0.58998
0.589979
0.589978
0.589978
0.589978
0.589979
0.58998
0.589981
0.589982
0.589984
0.589985
0.589987
0.589989
0.58999
0.589992
0.589993
0.589994
0.589994
0.589994
0.589994
0.589993
0.589993
0.589988
0.589997
0.578751
0.579046
0.579342
0.57968
0.580062
0.58048
0.580925
0.581404
0.581916
0.582442
0.582977
0.583514
0.584054
0.584591
0.585114
0.585619
0.586103
0.586563
0.586996
0.587401
0.587777
0.588123
0.588438
0.588723
0.588975
0.589197
0.589392
0.589558
0.5897
0.589817
0.589914
0.589993
0.590055
0.590105
0.590143
0.590172
0.590194
0.59021
0.590222
0.590228
0.590231
0.59023
0.590227
0.590221
0.590214
0.590205
0.590196
0.590186
0.590174
0.590161
0.590147
0.590133
0.590119
0.590105
0.590091
0.590077
0.590064
0.590051
0.590038
0.590027
0.590015
0.590005
0.589996
0.589987
0.589979
0.589972
0.589965
0.58996
0.589955
0.58995
0.589946
0.589943
0.58994
0.589938
0.589936
0.589935
0.589934
0.589934
0.589934
0.589934
0.589935
0.589936
0.589938
0.58994
0.589941
0.589943
0.589946
0.589948
0.58995
0.589951
0.589953
0.589954
0.589955
0.589955
0.589956
0.589956
0.589955
0.589955
0.58995
0.58996
0.578788
0.57906
0.579362
0.579693
0.580067
0.580474
0.580911
0.581376
0.581874
0.582391
0.582918
0.583449
0.583982
0.584512
0.585031
0.585533
0.586014
0.586472
0.586904
0.58731
0.587687
0.588036
0.588355
0.588645
0.588902
0.589129
0.589327
0.589497
0.589641
0.589761
0.58986
0.58994
0.590005
0.590057
0.590098
0.590129
0.590154
0.590174
0.59019
0.5902
0.590204
0.590205
0.590203
0.590198
0.590191
0.590183
0.590174
0.590163
0.59015
0.590136
0.590121
0.590106
0.59009
0.590075
0.59006
0.590045
0.590032
0.590018
0.590005
0.589993
0.589982
0.589971
0.589962
0.589953
0.589945
0.589938
0.589932
0.589927
0.589922
0.589918
0.589914
0.589911
0.589908
0.589906
0.589905
0.589904
0.589903
0.589903
0.589903
0.589904
0.589905
0.589906
0.589908
0.58991
0.589912
0.589914
0.589916
0.589918
0.589919
0.589921
0.589922
0.589923
0.589924
0.589924
0.589924
0.589924
0.589923
0.589923
0.589917
0.589927
0.579031
0.579234
0.579515
0.579826
0.580176
0.580559
0.580981
0.581424
0.581898
0.582397
0.582913
0.583439
0.583968
0.584494
0.58501
0.58551
0.585992
0.586453
0.586889
0.5873
0.587685
0.588042
0.588371
0.58867
0.588938
0.589175
0.589381
0.589557
0.589706
0.58983
0.589932
0.590016
0.590083
0.590137
0.590182
0.590214
0.59024
0.590263
0.590283
0.590294
0.590299
0.590299
0.590296
0.590288
0.590278
0.590266
0.590256
0.590242
0.590225
0.590206
0.590187
0.590167
0.590148
0.590129
0.59011
0.590093
0.590076
0.590059
0.590043
0.590029
0.590015
0.590002
0.589991
0.589981
0.589971
0.589962
0.589955
0.589947
0.589941
0.589935
0.58993
0.589926
0.589922
0.589919
0.589916
0.589914
0.589912
0.589911
0.58991
0.58991
0.58991
0.589911
0.589911
0.589912
0.589913
0.589915
0.589916
0.589916
0.589917
0.589918
0.589918
0.589918
0.589918
0.589917
0.589916
0.589916
0.589913
0.589913
0.589907
0.589917
0.579751
0.579785
0.57997
0.580213
0.5805
0.580832
0.581232
0.581643
0.58209
0.582569
0.583073
0.583594
0.584122
0.584649
0.585167
0.585673
0.586162
0.586633
0.587083
0.58751
0.58791
0.588288
0.588636
0.588955
0.58924
0.589492
0.589709
0.589894
0.590048
0.590176
0.590281
0.590365
0.590434
0.590486
0.590529
0.590561
0.590579
0.5906
0.590617
0.590622
0.590619
0.590613
0.590603
0.590587
0.590568
0.590547
0.590532
0.590508
0.590481
0.590453
0.590424
0.590394
0.590366
0.590338
0.590311
0.590286
0.590262
0.590238
0.590214
0.590193
0.590173
0.590154
0.590136
0.59012
0.590105
0.590091
0.590079
0.590067
0.590056
0.590046
0.590036
0.590028
0.59002
0.590013
0.590006
0.590001
0.589996
0.589992
0.589988
0.589985
0.589982
0.58998
0.589978
0.589976
0.589975
0.589973
0.589972
0.58997
0.589969
0.589967
0.589965
0.589963
0.58996
0.589958
0.589955
0.589952
0.589948
0.589947
0.58994
0.589947
0.581145
0.581097
0.581108
0.581206
0.581374
0.581633
0.581951
0.582321
0.582762
0.58323
0.58372
0.584229
0.584751
0.585276
0.5858
0.58632
0.586826
0.587316
0.58779
0.588242
0.588675
0.589091
0.589469
0.589817
0.590123
0.590391
0.590617
0.590805
0.590957
0.59108
0.591176
0.591249
0.591307
0.591342
0.591376
0.591379
0.591397
0.591401
0.591388
0.591376
0.591346
0.591318
0.591287
0.591252
0.591212
0.591175
0.591136
0.591091
0.591042
0.590994
0.590945
0.590896
0.590848
0.5908
0.590756
0.590715
0.590675
0.590635
0.590597
0.59056
0.590526
0.590494
0.590464
0.590436
0.59041
0.590385
0.590362
0.59034
0.59032
0.590301
0.590283
0.590266
0.59025
0.590236
0.590222
0.590209
0.590198
0.590187
0.590177
0.590168
0.590159
0.590152
0.590144
0.590137
0.59013
0.590124
0.590117
0.590111
0.590105
0.590099
0.590093
0.590087
0.590081
0.590075
0.590068
0.590063
0.590056
0.590051
0.590042
0.590044
0.583585
0.583654
0.583666
0.583682
0.583753
0.583906
0.584109
0.584431
0.584809
0.585213
0.585658
0.586134
0.58664
0.587153
0.58768
0.588203
0.588715
0.589219
0.589707
0.590172
0.590608
0.590998
0.591329
0.591627
0.59189
0.592115
0.592301
0.592454
0.59258
0.592679
0.592759
0.592816
0.592861
0.592879
0.592897
0.592872
0.592879
0.592875
0.592817
0.592787
0.592732
0.592673
0.592611
0.59254
0.592469
0.592392
0.5923
0.59221
0.592122
0.592031
0.591943
0.591851
0.591764
0.591675
0.591588
0.591512
0.591439
0.591367
0.591297
0.591232
0.591171
0.591114
0.591063
0.591013
0.590968
0.590924
0.590883
0.590843
0.590806
0.590771
0.590737
0.590705
0.590675
0.590646
0.590619
0.590594
0.59057
0.590548
0.590527
0.590507
0.590488
0.590471
0.590454
0.590438
0.590423
0.590408
0.590394
0.59038
0.590367
0.590354
0.590342
0.590329
0.590318
0.590306
0.590292
0.590283
0.590271
0.590258
0.590246
0.590237
0.585202
0.585335
0.585509
0.585642
0.585764
0.585937
0.58615
0.586418
0.586729
0.587077
0.587447
0.58784
0.588245
0.588655
0.589071
0.589478
0.589882
0.590268
0.590643
0.590991
0.591322
0.591621
0.591891
0.592135
0.592348
0.592539
0.592704
0.592845
0.592975
0.593077
0.593174
0.593252
0.59331
0.593356
0.593382
0.593405
0.593421
0.593416
0.59343
0.593422
0.593387
0.593358
0.593325
0.59329
0.593255
0.593211
0.593158
0.593105
0.593049
0.592989
0.592927
0.592865
0.5928
0.592735
0.592667
0.592599
0.592524
0.592452
0.592377
0.592303
0.592229
0.592152
0.592078
0.592
0.591927
0.591851
0.591779
0.591704
0.591637
0.591571
0.591506
0.591445
0.591387
0.591333
0.591281
0.591232
0.591186
0.591144
0.591103
0.591066
0.59103
0.590997
0.590965
0.590936
0.590907
0.590879
0.590852
0.590826
0.590801
0.590777
0.590752
0.590729
0.590706
0.590685
0.590663
0.590642
0.590621
0.590601
0.590582
0.590562
0.585756
0.585817
0.586101
0.586286
0.586434
0.58662
0.586831
0.587083
0.587366
0.587678
0.588
0.588342
0.588692
0.589054
0.589419
0.589775
0.590132
0.590468
0.590793
0.591099
0.591387
0.591654
0.591902
0.592131
0.592328
0.592519
0.592673
0.592818
0.592941
0.593046
0.593146
0.593223
0.593281
0.593347
0.593341
0.593401
0.593424
0.593412
0.593451
0.593422
0.593405
0.593384
0.593361
0.59334
0.593319
0.593291
0.593259
0.593227
0.593207
0.593172
0.593125
0.593079
0.593036
0.593006
0.592976
0.592939
0.592901
0.592868
0.592837
0.592805
0.592771
0.592735
0.592699
0.592662
0.592621
0.59258
0.592535
0.592492
0.592445
0.592398
0.592349
0.592301
0.59225
0.592201
0.59215
0.5921
0.592048
0.591998
0.591946
0.591896
0.591843
0.591793
0.591741
0.591694
0.591645
0.591597
0.59155
0.591503
0.591459
0.591415
0.591373
0.591331
0.591292
0.591252
0.591217
0.591179
0.591148
0.591111
0.591084
0.591046
0.586117
0.586221
0.586505
0.586682
0.586834
0.58702
0.587236
0.58748
0.587745
0.588029
0.588323
0.588635
0.588952
0.589282
0.589607
0.589931
0.590253
0.59056
0.590867
0.591144
0.591416
0.591657
0.59189
0.592099
0.592288
0.592466
0.592609
0.592754
0.592864
0.592974
0.593069
0.593133
0.5932
0.593263
0.593277
0.593321
0.593353
0.593337
0.593363
0.593324
0.593335
0.593317
0.593301
0.593279
0.593272
0.593247
0.593222
0.593193
0.593151
0.593111
0.593077
0.593048
0.593017
0.592991
0.592962
0.592932
0.592901
0.592875
0.592849
0.592826
0.592799
0.592777
0.592749
0.592728
0.592701
0.592679
0.592653
0.592633
0.592605
0.592581
0.592558
0.592537
0.592515
0.592495
0.592476
0.592455
0.592433
0.592413
0.592391
0.592369
0.592347
0.592314
0.592291
0.592276
0.592257
0.592232
0.59221
0.592178
0.592153
0.592117
0.592089
0.592049
0.592018
0.591974
0.591941
0.591893
0.591859
0.591807
0.591779
0.591699
0.586498
0.586602
0.58684
0.587004
0.587152
0.587331
0.587536
0.58776
0.588001
0.588261
0.588534
0.588822
0.589117
0.58942
0.589721
0.590028
0.590325
0.590619
0.590906
0.591172
0.591427
0.591661
0.591884
0.592088
0.592277
0.592448
0.592598
0.592741
0.592853
0.592967
0.59305
0.593125
0.593195
0.593242
0.593287
0.593327
0.59332
0.593324
0.593317
0.593306
0.593313
0.593298
0.593284
0.593272
0.593253
0.593239
0.593212
0.593178
0.593145
0.593118
0.593087
0.593057
0.593024
0.592995
0.592962
0.592934
0.592901
0.592874
0.592845
0.59282
0.592792
0.592769
0.592743
0.592723
0.592699
0.592682
0.59266
0.592645
0.592623
0.592609
0.592591
0.592578
0.592567
0.592552
0.592533
0.592514
0.592481
0.592467
0.592442
0.592423
0.592411
0.592399
0.592389
0.592379
0.592369
0.59236
0.59235
0.592341
0.592331
0.592322
0.592313
0.592301
0.592291
0.592279
0.592267
0.592253
0.592234
0.592219
0.59221
0.592182
0.586919
0.58704
0.587251
0.587394
0.587538
0.587711
0.587913
0.588127
0.58836
0.588602
0.588857
0.589115
0.589382
0.589656
0.589931
0.590215
0.590488
0.590766
0.591026
0.591279
0.591524
0.591747
0.591961
0.592152
0.592328
0.592484
0.592623
0.592746
0.592849
0.592946
0.593017
0.593087
0.593144
0.593185
0.593234
0.593266
0.593223
0.593258
0.593255
0.593252
0.593235
0.593212
0.593201
0.593193
0.593176
0.593158
0.593134
0.593108
0.593082
0.593053
0.593026
0.592995
0.592967
0.592939
0.592911
0.592885
0.592856
0.592832
0.59281
0.592786
0.592763
0.592738
0.592716
0.592702
0.59268
0.592654
0.592628
0.592606
0.592584
0.592568
0.592551
0.592536
0.592526
0.592508
0.592492
0.592475
0.592458
0.592436
0.592417
0.592403
0.592392
0.592382
0.592372
0.592363
0.592353
0.592344
0.592334
0.592325
0.592316
0.592308
0.592299
0.592292
0.592284
0.592278
0.592272
0.592266
0.59226
0.592255
0.592249
0.592246
0.587344
0.587502
0.587698
0.587813
0.587929
0.588084
0.588272
0.588476
0.588695
0.588918
0.58915
0.58938
0.589619
0.58986
0.59011
0.59036
0.590614
0.590862
0.591107
0.591346
0.591574
0.591782
0.591976
0.59215
0.59231
0.592448
0.592576
0.592682
0.592779
0.592864
0.59293
0.592996
0.593048
0.593089
0.593129
0.593155
0.593133
0.593166
0.593162
0.593168
0.593136
0.593122
0.593121
0.593103
0.593092
0.593078
0.593059
0.593036
0.593012
0.592985
0.59296
0.592931
0.592909
0.592883
0.592864
0.592837
0.592819
0.59279
0.592765
0.59274
0.592713
0.592681
0.592654
0.592634
0.592613
0.592597
0.592578
0.592564
0.592546
0.592533
0.592515
0.592506
0.592489
0.592471
0.592443
0.59243
0.592409
0.592394
0.592382
0.592373
0.592365
0.592356
0.592348
0.59234
0.592331
0.592323
0.592315
0.592308
0.5923
0.592294
0.592287
0.592281
0.592274
0.59227
0.592263
0.592259
0.592252
0.592248
0.592241
0.592235
0.587733
0.587868
0.588089
0.588225
0.588328
0.588463
0.588631
0.588812
0.589008
0.589211
0.589426
0.589641
0.589865
0.590085
0.590312
0.590534
0.590763
0.590984
0.591206
0.591415
0.591616
0.591806
0.591981
0.592141
0.592284
0.592411
0.592525
0.592622
0.592711
0.592787
0.59285
0.59291
0.59296
0.592997
0.593035
0.593055
0.593058
0.593073
0.593058
0.593056
0.59304
0.593039
0.593031
0.593007
0.593006
0.592994
0.59298
0.592961
0.592941
0.592919
0.59289
0.592863
0.592836
0.592809
0.592782
0.592758
0.592734
0.592709
0.592687
0.592669
0.592655
0.592635
0.592618
0.5926
0.592576
0.592555
0.592536
0.592516
0.5925
0.592483
0.592469
0.592453
0.592444
0.592428
0.592413
0.592397
0.59238
0.59236
0.592345
0.592334
0.592326
0.592317
0.59231
0.592303
0.592296
0.59229
0.592284
0.59228
0.592275
0.592271
0.592267
0.592263
0.592258
0.592253
0.592248
0.592243
0.592238
0.592232
0.592225
0.592222
0.588045
0.588153
0.588418
0.588571
0.588683
0.588798
0.588939
0.589091
0.589265
0.589446
0.589643
0.58984
0.590045
0.590243
0.590447
0.590645
0.590847
0.591043
0.591241
0.591431
0.591617
0.591787
0.591947
0.592085
0.592215
0.59233
0.592435
0.592524
0.592607
0.592678
0.592739
0.592798
0.592848
0.592886
0.592926
0.592945
0.592957
0.592974
0.592959
0.59295
0.592956
0.592943
0.592934
0.592925
0.592912
0.592896
0.592887
0.592876
0.592862
0.592833
0.592812
0.592782
0.592756
0.592733
0.592711
0.592692
0.592669
0.59265
0.592632
0.592616
0.592599
0.59258
0.59257
0.592553
0.592537
0.592514
0.592502
0.592479
0.592459
0.59244
0.592427
0.592412
0.592403
0.592389
0.592376
0.592358
0.592349
0.592333
0.592318
0.592305
0.592294
0.592284
0.592276
0.592268
0.592262
0.592256
0.592251
0.592247
0.592244
0.592241
0.592236
0.592233
0.592227
0.592223
0.592217
0.592212
0.592206
0.5922
0.592194
0.592188
0.588387
0.588494
0.588684
0.588852
0.588969
0.589078
0.589202
0.589337
0.58949
0.589654
0.589835
0.590018
0.590206
0.590386
0.590568
0.590745
0.590927
0.591105
0.591285
0.591458
0.591622
0.591779
0.591923
0.592062
0.592179
0.592292
0.592384
0.592471
0.592543
0.592608
0.592667
0.59272
0.592767
0.592803
0.592842
0.592853
0.592879
0.592889
0.592864
0.592852
0.592852
0.592839
0.592837
0.592852
0.592821
0.592801
0.592795
0.592781
0.59276
0.592738
0.592716
0.592699
0.592683
0.59267
0.592659
0.592643
0.592629
0.592612
0.592596
0.592578
0.592562
0.592543
0.592528
0.592511
0.592501
0.592486
0.592471
0.592455
0.592435
0.592416
0.592402
0.592393
0.592379
0.592366
0.592352
0.592346
0.592333
0.592321
0.592302
0.592289
0.592278
0.592269
0.592259
0.592249
0.592238
0.592226
0.592213
0.592206
0.592201
0.592198
0.592193
0.59219
0.592185
0.59218
0.592175
0.59217
0.592164
0.592159
0.592153
0.59215
0.588745
0.588827
0.588994
0.589119
0.589245
0.589367
0.589482
0.589581
0.589707
0.589857
0.590022
0.590185
0.590356
0.590518
0.59069
0.590856
0.591025
0.59119
0.591351
0.591506
0.591652
0.591791
0.591923
0.592044
0.592155
0.592248
0.592332
0.592403
0.592467
0.592523
0.592576
0.592624
0.592667
0.592705
0.592742
0.592758
0.592796
0.592783
0.592782
0.592764
0.592749
0.592744
0.592734
0.592746
0.592712
0.592692
0.59268
0.592661
0.592642
0.592618
0.592598
0.592583
0.592571
0.592566
0.592563
0.592559
0.592551
0.592543
0.592531
0.59252
0.592508
0.592497
0.592484
0.59247
0.592456
0.592442
0.592427
0.592414
0.592401
0.59239
0.592378
0.592373
0.592368
0.59236
0.592352
0.592342
0.592334
0.592327
0.592318
0.59231
0.592303
0.592291
0.59229
0.592266
0.592246
0.59223
0.592224
0.592204
0.592198
0.592188
0.592178
0.592167
0.592156
0.592152
0.592149
0.592146
0.592139
0.592134
0.592129
0.592123
0.589133
0.589195
0.589305
0.589405
0.589488
0.589618
0.589728
0.589842
0.589963
0.590093
0.590232
0.590369
0.590518
0.590658
0.59081
0.590955
0.591105
0.591253
0.591396
0.591536
0.591662
0.591785
0.591904
0.59201
0.592103
0.592185
0.592261
0.592323
0.592385
0.592436
0.592486
0.592532
0.592571
0.592611
0.592636
0.592661
0.592673
0.59268
0.59266
0.592652
0.592645
0.592648
0.592639
0.592626
0.592601
0.592588
0.592569
0.592545
0.592524
0.592499
0.592485
0.59246
0.592438
0.592431
0.592432
0.592432
0.592438
0.592442
0.592449
0.592454
0.592456
0.592455
0.592451
0.592445
0.592435
0.592425
0.592413
0.5924
0.592388
0.592377
0.592368
0.592361
0.592355
0.59235
0.592344
0.592338
0.592331
0.592326
0.592319
0.592311
0.592309
0.592301
0.592292
0.592282
0.592271
0.592254
0.592251
0.592234
0.592213
0.592196
0.592181
0.592163
0.59216
0.592149
0.59214
0.592135
0.592129
0.592124
0.592119
0.592114
0.589485
0.589556
0.589633
0.589676
0.589714
0.589802
0.58992
0.590062
0.590186
0.590304
0.590424
0.590547
0.590673
0.590801
0.590934
0.591066
0.591205
0.591337
0.591464
0.591578
0.591689
0.591787
0.591889
0.591978
0.592064
0.592142
0.592214
0.592275
0.592332
0.592381
0.59243
0.592469
0.592503
0.592529
0.592544
0.59256
0.59257
0.592577
0.592558
0.592567
0.592566
0.592562
0.592562
0.592535
0.592506
0.592502
0.592488
0.592458
0.59244
0.592421
0.592404
0.592375
0.592345
0.592334
0.592342
0.592345
0.592357
0.59237
0.59239
0.592408
0.592423
0.592434
0.592439
0.592439
0.592435
0.592428
0.592416
0.59241
0.5924
0.592386
0.592372
0.592363
0.592354
0.592348
0.592342
0.592337
0.592331
0.592326
0.592319
0.592317
0.592309
0.592299
0.592293
0.592283
0.592277
0.59227
0.592263
0.592248
0.592233
0.592211
0.592193
0.592175
0.59216
0.59214
0.592137
0.592126
0.592117
0.592113
0.592107
0.592105
0.58981
0.589883
0.589947
0.589998
0.590051
0.590101
0.590144
0.590241
0.59038
0.5905
0.590608
0.59072
0.59083
0.590946
0.591066
0.591184
0.59131
0.591425
0.591538
0.591634
0.591731
0.591815
0.591902
0.591976
0.592052
0.592119
0.592184
0.592247
0.592301
0.592352
0.592398
0.592439
0.592469
0.592502
0.592519
0.592531
0.592546
0.592532
0.592532
0.592513
0.592514
0.592506
0.592503
0.592477
0.592456
0.592461
0.592447
0.592415
0.5924
0.592396
0.592381
0.592356
0.592352
0.592336
0.592322
0.592302
0.592319
0.592337
0.592359
0.592377
0.592394
0.592408
0.592417
0.592417
0.592416
0.592414
0.592408
0.592402
0.59239
0.592384
0.592372
0.592362
0.592352
0.592339
0.592329
0.59232
0.592316
0.592311
0.592308
0.592303
0.592298
0.59229
0.592287
0.592281
0.592276
0.592269
0.592262
0.592246
0.592233
0.592209
0.592205
0.592196
0.592177
0.592164
0.592152
0.592128
0.592121
0.592113
0.592099
0.592098
0.590143
0.590199
0.59028
0.590316
0.590332
0.590389
0.590431
0.590522
0.590597
0.590714
0.590808
0.590899
0.590991
0.591084
0.591183
0.591283
0.591396
0.591501
0.591607
0.591696
0.591778
0.591853
0.591923
0.591985
0.592048
0.592102
0.592156
0.592207
0.592249
0.592296
0.592331
0.592371
0.592397
0.59243
0.592444
0.592469
0.592467
0.592477
0.592469
0.592472
0.592481
0.592484
0.592492
0.592465
0.592477
0.592458
0.592442
0.592444
0.592428
0.592406
0.592404
0.592393
0.592395
0.592375
0.592365
0.592342
0.592324
0.592309
0.592323
0.592334
0.592349
0.592358
0.592366
0.592368
0.592373
0.592371
0.592372
0.592364
0.592359
0.592348
0.592335
0.592327
0.592317
0.592314
0.592303
0.5923
0.59229
0.592283
0.592279
0.592275
0.592271
0.592269
0.592265
0.592263
0.592262
0.592258
0.592257
0.592254
0.59225
0.592247
0.59224
0.592233
0.592211
0.5922
0.59219
0.592171
0.592158
0.592144
0.59214
0.592136
0.590455
0.590495
0.590634
0.590629
0.590607
0.59064
0.590691
0.590747
0.590796
0.590878
0.590979
0.591078
0.591163
0.591235
0.591312
0.591392
0.591484
0.591575
0.591666
0.591752
0.591826
0.591896
0.591955
0.592015
0.592064
0.592108
0.592148
0.592184
0.592219
0.592256
0.592287
0.592323
0.592345
0.592378
0.592393
0.592418
0.592419
0.592434
0.592435
0.592462
0.592478
0.592477
0.592478
0.592467
0.592476
0.592457
0.592451
0.592463
0.592442
0.592434
0.592431
0.59243
0.592424
0.592422
0.592399
0.592401
0.592371
0.592359
0.592349
0.592318
0.592311
0.592316
0.592321
0.59233
0.592341
0.592348
0.592357
0.592364
0.592368
0.592357
0.592344
0.592337
0.592323
0.592316
0.592296
0.592293
0.592285
0.592282
0.592286
0.592284
0.592282
0.592279
0.592276
0.592274
0.592272
0.592272
0.592272
0.592269
0.592269
0.592267
0.592263
0.592262
0.592256
0.592249
0.592246
0.592242
0.592237
0.592232
0.592228
0.592224
0.590662
0.590759
0.590927
0.59092
0.590908
0.590869
0.590931
0.590976
0.591036
0.591084
0.591146
0.591185
0.59126
0.591357
0.591428
0.591493
0.591564
0.591638
0.591716
0.591794
0.591865
0.591934
0.591991
0.592045
0.592084
0.592127
0.592162
0.592195
0.592223
0.592252
0.592279
0.592306
0.592325
0.592354
0.592377
0.592396
0.592411
0.592412
0.59243
0.592457
0.592457
0.592486
0.592473
0.592466
0.592469
0.592464
0.592463
0.592451
0.592438
0.592435
0.592435
0.59243
0.592431
0.592433
0.592428
0.592406
0.592382
0.592379
0.592363
0.592351
0.592341
0.592324
0.592323
0.592327
0.592337
0.592348
0.592354
0.592367
0.592368
0.592371
0.59237
0.592362
0.592356
0.592341
0.592322
0.592315
0.592304
0.592296
0.592293
0.592282
0.592281
0.592278
0.592276
0.592274
0.592273
0.592274
0.592276
0.592276
0.592278
0.592277
0.592277
0.592275
0.592273
0.592271
0.592268
0.592263
0.592259
0.592256
0.592253
0.592253
0.590884
0.591054
0.591117
0.591181
0.591217
0.591179
0.59125
0.591243
0.591271
0.591309
0.591332
0.59136
0.591406
0.591453
0.591526
0.591593
0.591656
0.591708
0.591769
0.591824
0.591879
0.591924
0.591972
0.592013
0.592042
0.592102
0.592137
0.592188
0.592227
0.592259
0.592281
0.592305
0.59232
0.592337
0.592351
0.592364
0.592376
0.592374
0.592401
0.59242
0.592428
0.592446
0.592428
0.592426
0.592424
0.592429
0.592441
0.592435
0.592429
0.592435
0.592438
0.592434
0.592442
0.592442
0.592432
0.592424
0.592421
0.592407
0.592388
0.592388
0.592368
0.592366
0.592341
0.592339
0.59233
0.592332
0.592337
0.592348
0.592348
0.592353
0.592354
0.592347
0.592355
0.592341
0.592333
0.592315
0.592308
0.592302
0.592296
0.592287
0.592277
0.592277
0.592275
0.592274
0.592274
0.592278
0.59228
0.592282
0.592282
0.592282
0.592281
0.59228
0.592277
0.592275
0.592273
0.59227
0.592267
0.592265
0.592263
0.592261
0.591216
0.591314
0.591312
0.59143
0.591456
0.59146
0.591476
0.591477
0.591535
0.591559
0.591569
0.591582
0.591618
0.591649
0.591679
0.591725
0.591778
0.591818
0.591861
0.591906
0.591948
0.591994
0.592025
0.592062
0.592095
0.592128
0.592161
0.592189
0.592222
0.592246
0.592266
0.592283
0.59229
0.592307
0.59232
0.592333
0.592341
0.592353
0.592375
0.59237
0.592386
0.592396
0.592386
0.592386
0.592386
0.592385
0.59238
0.592392
0.592384
0.592388
0.592394
0.592392
0.592397
0.592399
0.592394
0.59238
0.592378
0.592368
0.592353
0.592357
0.592349
0.592345
0.592337
0.592336
0.592333
0.592328
0.59232
0.592324
0.592323
0.592321
0.592321
0.592316
0.592322
0.592311
0.592308
0.592292
0.592289
0.592285
0.592276
0.59227
0.592264
0.592257
0.592249
0.592244
0.592244
0.592245
0.592248
0.592252
0.592255
0.592256
0.592256
0.592255
0.592253
0.592252
0.59225
0.592248
0.592246
0.592244
0.592244
0.592243
0.591527
0.591538
0.591569
0.591624
0.591644
0.591679
0.591676
0.591729
0.591718
0.59175
0.591816
0.591812
0.591827
0.591843
0.591865
0.591892
0.591909
0.591939
0.591966
0.592002
0.592037
0.592067
0.592103
0.592132
0.592157
0.592182
0.592205
0.592228
0.59225
0.592267
0.592286
0.592291
0.59231
0.592313
0.592334
0.592339
0.592355
0.592368
0.592371
0.592362
0.592359
0.592361
0.592347
0.592357
0.592351
0.592344
0.59234
0.592344
0.592342
0.592344
0.592338
0.592343
0.592332
0.592346
0.592329
0.592328
0.59232
0.592311
0.592314
0.592305
0.592303
0.5923
0.592305
0.592306
0.592298
0.592294
0.592291
0.592291
0.592284
0.592281
0.592281
0.592275
0.592273
0.592276
0.592273
0.592267
0.592263
0.592266
0.592257
0.59225
0.592245
0.592237
0.592232
0.592228
0.592228
0.592222
0.592221
0.592221
0.592222
0.592223
0.592224
0.592223
0.592222
0.592221
0.59222
0.592218
0.592217
0.592216
0.592216
0.592215
0.591821
0.591811
0.591833
0.591845
0.591889
0.591928
0.591971
0.591979
0.591899
0.591963
0.591966
0.592006
0.592008
0.591997
0.592025
0.592031
0.592028
0.592063
0.592075
0.592095
0.592123
0.592138
0.592163
0.592179
0.592193
0.592209
0.592223
0.592236
0.592249
0.592261
0.592272
0.592275
0.592288
0.592286
0.592295
0.592301
0.592313
0.592314
0.592308
0.592305
0.592304
0.592297
0.592295
0.592298
0.592293
0.592291
0.592292
0.592277
0.59229
0.59229
0.592287
0.592302
0.592282
0.592293
0.592278
0.592284
0.592271
0.592273
0.592277
0.592261
0.592261
0.592257
0.592261
0.592259
0.59225
0.592247
0.592244
0.592243
0.592237
0.592235
0.592234
0.59223
0.592227
0.592228
0.592219
0.592224
0.592219
0.592221
0.592216
0.592217
0.592214
0.592214
0.592211
0.592209
0.592208
0.592206
0.592204
0.592204
0.592201
0.592201
0.592202
0.592202
0.592201
0.5922
0.592199
0.592199
0.592198
0.592197
0.592196
0.592196
0.592054
0.592054
0.592054
0.592049
0.592079
0.592093
0.592126
0.592114
0.59207
0.592127
0.592103
0.59214
0.592145
0.592145
0.59216
0.592162
0.592156
0.592176
0.592179
0.592188
0.592198
0.592203
0.592211
0.592215
0.592219
0.592222
0.592227
0.592228
0.592232
0.592235
0.592237
0.59224
0.592242
0.592244
0.59224
0.592245
0.592237
0.592242
0.592237
0.592239
0.592242
0.592231
0.592238
0.592229
0.592234
0.592233
0.59223
0.592224
0.592228
0.592229
0.592231
0.592242
0.592231
0.592232
0.592229
0.592227
0.592223
0.592227
0.592222
0.592221
0.592218
0.592217
0.592214
0.592212
0.592207
0.592207
0.592204
0.592202
0.5922
0.5922
0.592196
0.592195
0.592195
0.592195
0.592191
0.592194
0.592192
0.592194
0.592193
0.592196
0.592193
0.592195
0.592192
0.592192
0.59219
0.592189
0.592187
0.592188
0.592185
0.592186
0.592187
0.592187
0.592187
0.592188
0.592188
0.592188
0.592188
0.592188
0.592188
0.592188
0.586465
0.586517
0.586543
0.586689
0.586638
0.586273
0.586278
0.586165
0.586065
0.586082
0.586949
0.586999
0.586921
0.586901
0.586961
0.586834
0.586644
0.58649
0.586372
0.586445
0.587554
0.587489
0.587432
0.587255
0.587229
0.587201
0.58713
0.586951
0.586715
0.586747
0.587949
0.587859
0.587801
0.587628
0.58761
0.587546
0.587464
0.587385
0.587097
0.587057
0.588348
0.588243
0.588183
0.588043
0.58797
0.587933
0.587782
0.58779
0.58755
0.587418
0.588716
0.588593
0.588511
0.588416
0.588293
0.588275
0.588113
0.588086
0.58795
0.587814
0.58906
0.588944
0.588833
0.58876
0.588623
0.588601
0.588459
0.588404
0.588297
0.58819
0.589383
0.589269
0.589146
0.589082
0.588942
0.588913
0.58879
0.58872
0.588642
0.588567
0.589687
0.589589
0.589459
0.589404
0.589273
0.589217
0.589127
0.589041
0.588975
0.588925
0.58997
0.589878
0.589764