/*--------------------------------*- C++ -*----------------------------------*\
  =========                 |
  \\      /  F ield         | OpenFOAM: The Open Source CFD Toolbox
   \\    /   O peration     | Website:  https://openfoam.org
    \\  /    A nd           | Version:  8
     \\/     M anipulation  |
\*---------------------------------------------------------------------------*/
FoamFile
{
    version     2.0;
    format      ascii;
    class       volScalarField;
    location    "20.000098150058701";
    object      supersat;
}
// * * * * * * * * * * * * * * * * * * * * * * * * * * * * * * * * * * * * * //

dimensions      [0 0 0 0 0 0 0];

internalField   nonuniform List<scalar> 
6800
(
1.90757
1.90378
1.90641
1.91619
1.9357
1.97862
2.01096
2.02409
2.02904
2.02994
1.90435
1.90493
1.91451
1.94115
1.99277
2.02057
2.02884
2.03142
2.03138
2.03089
1.91094
1.91711
1.93937
1.99392
2.02182
2.03041
2.03287
2.03248
2.0306
2.02591
1.90937
1.94891
1.97732
2.01889
2.03302
2.03598
2.03418
2.03266
2.02803
2.02463
1.92299
1.98696
2.00788
2.03261
2.03669
2.03675
2.03429
2.03016
2.02567
2.02314
1.91616
1.99776
2.0142
2.03574
2.03705
2.03707
2.0319
2.02829
2.02456
2.02463
1.92612
2.02507
2.0357
2.04327
2.03962
2.03752
2.03084
2.02835
2.02672
2.02925
1.97231
2.05358
2.04475
2.04665
2.03868
2.03752
2.03291
2.02923
2.0291
2.02918
1.99907
2.07277
2.06236
2.0574
2.04109
2.04164
2.03576
2.03191
2.03131
2.03074
2.02848
2.0967
2.08041
2.0666
2.0465
2.03931
2.03665
2.03109
2.03064
2.03082
1.90678
1.9062
1.90563
1.90554
1.90563
1.90581
1.90607
1.90634
1.90662
1.90688
1.90684
1.90619
1.90567
1.90555
1.90564
1.90581
1.90606
1.90636
1.90668
1.907
1.90697
1.90618
1.90571
1.9056
1.90567
1.90583
1.9061
1.90642
1.90681
1.90725
1.90719
1.90623
1.90578
1.90566
1.90571
1.90587
1.90611
1.90641
1.90681
1.90742
1.90733
1.90627
1.90584
1.90572
1.90577
1.90595
1.9062
1.90645
1.90677
1.90737
1.90732
1.90626
1.90586
1.90579
1.90596
1.9063
1.90677
1.90715
1.90723
1.90782
1.90719
1.90622
1.90584
1.90602
1.90643
1.90716
1.90836
1.90976
1.91098
1.9158
1.9073
1.90608
1.90587
1.90623
1.90704
1.90868
1.91178
1.91745
1.9239
1.9435
1.90702
1.90579
1.90564
1.9064
1.90848
1.9137
1.92352
1.94027
1.95806
1.99756
1.90809
1.90531
1.90464
1.90788
1.91493
1.93006
1.95736
1.9937
2.01445
2.02582
1.90718
1.90755
1.90783
1.90797
1.90803
1.908
1.9079
1.90773
1.90752
1.90728
1.90704
1.90681
1.90661
1.90643
1.90632
1.90626
1.90627
1.90636
1.90652
1.90677
1.90712
1.90755
1.90807
1.90864
1.9093
1.91002
1.91079
1.91161
1.91246
1.91333
1.91422
1.91513
1.91604
1.91698
1.91788
1.91881
1.91974
1.92067
1.92161
1.92255
1.92349
1.92443
1.92537
1.92631
1.92725
1.92818
1.9291
1.93001
1.93089
1.93175
1.93259
1.9334
1.93418
1.93493
1.93566
1.93636
1.93703
1.93767
1.93829
1.93888
1.93946
1.94001
1.94055
1.94107
1.94157
1.94207
1.94254
1.94301
1.94346
1.9439
1.94434
1.94476
1.94517
1.94557
1.94596
1.94634
1.94672
1.94709
1.94745
1.94781
1.94817
1.94852
1.94887
1.94921
1.94955
1.94988
1.95021
1.95053
1.95085
1.95116
1.95146
1.95174
1.95202
1.95228
1.95255
1.95277
1.95304
1.95322
1.95346
1.95373
1.90738
1.90785
1.90818
1.90837
1.90846
1.90844
1.90833
1.90815
1.9079
1.90762
1.90733
1.90704
1.90677
1.90653
1.90634
1.90622
1.90616
1.90618
1.90628
1.90647
1.90675
1.90713
1.9076
1.90812
1.90873
1.90941
1.91014
1.91092
1.91174
1.91258
1.91345
1.91433
1.91523
1.91616
1.91706
1.91798
1.91891
1.91985
1.9208
1.92175
1.9227
1.92366
1.92462
1.92557
1.92652
1.92747
1.9284
1.92931
1.9302
1.93107
1.93191
1.93272
1.9335
1.93426
1.93499
1.93569
1.93636
1.93701
1.93764
1.93824
1.93882
1.93938
1.93993
1.94046
1.94098
1.94148
1.94197
1.94244
1.94291
1.94336
1.9438
1.94424
1.94466
1.94507
1.94547
1.94586
1.94625
1.94663
1.947
1.94737
1.94773
1.94809
1.94845
1.9488
1.94914
1.94948
1.94982
1.95014
1.95046
1.95077
1.95107
1.95136
1.95164
1.9519
1.95218
1.9524
1.95267
1.95286
1.95309
1.95337
1.90773
1.90835
1.9088
1.90908
1.90922
1.90921
1.90907
1.90883
1.90851
1.90816
1.90778
1.90739
1.90703
1.90669
1.90639
1.90614
1.90596
1.90586
1.90584
1.90592
1.90611
1.90639
1.90678
1.90724
1.90777
1.90838
1.90905
1.90978
1.91054
1.91134
1.91216
1.91301
1.91388
1.91479
1.91569
1.9166
1.91754
1.9185
1.91947
1.92044
1.92142
1.9224
1.92338
1.92436
1.92532
1.92628
1.92722
1.92814
1.92904
1.92991
1.93075
1.93156
1.93235
1.93311
1.93384
1.93454
1.93523
1.93588
1.93652
1.93714
1.93773
1.93831
1.93888
1.93942
1.93996
1.94048
1.94099
1.94148
1.94196
1.94243
1.94289
1.94334
1.94378
1.94421
1.94462
1.94503
1.94543
1.94583
1.94622
1.9466
1.94698
1.94735
1.94771
1.94807
1.94843
1.94878
1.94912
1.94945
1.94977
1.95009
1.95039
1.95068
1.95097
1.95123
1.95151
1.95173
1.952
1.95221
1.95244
1.95273
1.90803
1.90898
1.90959
1.90997
1.91019
1.9102
1.91004
1.90976
1.90938
1.90893
1.90844
1.90793
1.90742
1.90694
1.9065
1.90611
1.9058
1.90558
1.90546
1.90545
1.90554
1.90575
1.90606
1.9065
1.90696
1.90751
1.90813
1.9088
1.90952
1.91027
1.91105
1.91186
1.9127
1.91359
1.91449
1.91541
1.91637
1.91734
1.91833
1.91933
1.92033
1.92133
1.92232
1.9233
1.92428
1.92524
1.92617
1.92708
1.92796
1.92881
1.92964
1.93043
1.93121
1.93195
1.93268
1.93338
1.93406
1.93472
1.93537
1.93599
1.9366
1.93719
1.93776
1.93833
1.93888
1.93941
1.93994
1.94045
1.94095
1.94143
1.94191
1.94237
1.94282
1.94326
1.9437
1.94412
1.94453
1.94494
1.94534
1.94574
1.94613
1.94651
1.94689
1.94725
1.94762
1.94797
1.94832
1.94865
1.94898
1.94929
1.9496
1.94989
1.95018
1.95044
1.95072
1.95095
1.95121
1.95144
1.95165
1.95198
1.90839
1.90987
1.91071
1.91119
1.91149
1.91151
1.91131
1.91095
1.91049
1.90995
1.90936
1.90875
1.90814
1.90755
1.907
1.90652
1.90612
1.90583
1.90565
1.90559
1.90566
1.90585
1.90615
1.90659
1.90705
1.90759
1.90819
1.90884
1.90952
1.91023
1.91098
1.91177
1.9126
1.91347
1.9144
1.91532
1.91629
1.91728
1.91829
1.9193
1.9203
1.92131
1.92228
1.92325
1.9242
1.92514
1.92604
1.92691
1.92774
1.92855
1.92933
1.93009
1.93082
1.93154
1.93224
1.93291
1.93357
1.93421
1.93484
1.93545
1.93605
1.93663
1.9372
1.93776
1.93831
1.93885
1.93937
1.93988
1.94038
1.94086
1.94134
1.9418
1.94225
1.94269
1.94312
1.94354
1.94396
1.94437
1.94477
1.94517
1.94556
1.94594
1.94631
1.94668
1.94704
1.94739
1.94773
1.94806
1.94838
1.94868
1.94898
1.94927
1.94955
1.9498
1.95007
1.95031
1.95055
1.9508
1.95098
1.95134
1.90989
1.91179
1.91289
1.9134
1.91366
1.91364
1.91335
1.91288
1.91231
1.91172
1.91114
1.91054
1.90993
1.90934
1.9088
1.90834
1.90798
1.90773
1.90763
1.90768
1.90786
1.90817
1.90861
1.90914
1.90972
1.91035
1.91101
1.91167
1.91235
1.91305
1.91379
1.91456
1.91537
1.91622
1.91716
1.91806
1.91901
1.91999
1.92098
1.92194
1.92289
1.92384
1.92474
1.92561
1.92648
1.92733
1.92813
1.92888
1.9296
1.9303
1.93097
1.93163
1.93227
1.9329
1.93351
1.93411
1.93469
1.93527
1.93583
1.93638
1.93692
1.93745
1.93798
1.93849
1.93899
1.93949
1.93997
1.94044
1.9409
1.94135
1.94179
1.94222
1.94264
1.94305
1.94345
1.94385
1.94424
1.94462
1.945
1.94537
1.94574
1.9461
1.94645
1.9468
1.94713
1.94746
1.94777
1.94807
1.94837
1.94865
1.94892
1.94918
1.94944
1.94968
1.94992
1.95015
1.95037
1.95061
1.95079
1.95114
1.91793
1.91834
1.91889
1.91894
1.91861
1.91824
1.9178
1.91725
1.91666
1.91616
1.9157
1.91527
1.91488
1.91451
1.91418
1.91396
1.91386
1.91391
1.91414
1.91452
1.91504
1.91572
1.9165
1.91736
1.9182
1.91902
1.91978
1.9205
1.92118
1.92185
1.92253
1.92323
1.92397
1.92472
1.92554
1.92636
1.92716
1.92797
1.92882
1.92957
1.93032
1.93109
1.93177
1.9324
1.93307
1.9337
1.93428
1.93479
1.93527
1.93573
1.93619
1.93664
1.93708
1.93751
1.93794
1.93836
1.93877
1.93918
1.93958
1.93998
1.94038
1.94077
1.94117
1.94156
1.94194
1.94232
1.94269
1.94306
1.94341
1.94376
1.94411
1.94445
1.94478
1.94511
1.94543
1.94575
1.94607
1.94639
1.9467
1.94701
1.94731
1.94761
1.9479
1.94819
1.94846
1.94873
1.94899
1.94923
1.94947
1.9497
1.94992
1.95013
1.95034
1.95054
1.95073
1.95093
1.95111
1.95133
1.95149
1.9518
1.94184
1.93898
1.93654
1.93468
1.93304
1.93187
1.93101
1.9302
1.92965
1.92952
1.92934
1.9292
1.92913
1.92916
1.9293
1.92966
1.93013
1.93081
1.93168
1.9327
1.93399
1.93546
1.93684
1.93823
1.9394
1.94041
1.94119
1.94181
1.94229
1.9427
1.94305
1.94342
1.94378
1.94413
1.94457
1.94476
1.94519
1.94542
1.94576
1.94599
1.94621
1.94648
1.9467
1.94686
1.94707
1.94718
1.94732
1.94731
1.94735
1.94737
1.9474
1.94742
1.94746
1.94749
1.94754
1.94759
1.94764
1.9477
1.94777
1.94785
1.94795
1.94806
1.94818
1.94831
1.94845
1.9486
1.94875
1.9489
1.94905
1.94921
1.94937
1.94953
1.94969
1.94985
1.95002
1.95019
1.95036
1.95054
1.95072
1.9509
1.95108
1.95125
1.95143
1.9516
1.95176
1.95192
1.95207
1.95221
1.95235
1.95249
1.95262
1.95275
1.95287
1.95299
1.95311
1.95325
1.95335
1.9535
1.95361
1.95386
1.99394
1.9898
1.98492
1.98106
1.97789
1.97515
1.97294
1.97118
1.96998
1.96916
1.96876
1.9686
1.96884
1.9692
1.96998
1.97089
1.97196
1.97336
1.97483
1.97636
1.97785
1.97872
1.97928
1.97975
1.97996
1.98002
1.97989
1.97969
1.9795
1.97927
1.97909
1.97895
1.97888
1.97869
1.97857
1.97822
1.97804
1.97776
1.97727
1.97713
1.97661
1.97616
1.97562
1.97497
1.97423
1.97337
1.97247
1.97156
1.97068
1.96974
1.96882
1.9679
1.96702
1.96618
1.96537
1.96464
1.96394
1.96329
1.9627
1.96216
1.96169
1.96128
1.96092
1.9606
1.96032
1.96005
1.95982
1.9596
1.95939
1.9592
1.95903
1.95887
1.95872
1.9586
1.95848
1.95838
1.95829
1.95822
1.95815
1.9581
1.95806
1.95802
1.95799
1.95796
1.95794
1.95792
1.95789
1.95789
1.95787
1.95786
1.95784
1.95786
1.95784
1.95782
1.95785
1.95785
1.95782
1.95784
1.95784
1.95794
2.02476
2.0226
2.02004
2.01785
2.01588
2.01404
2.01231
2.01083
2.00939
2.00818
2.00699
2.00593
2.00481
2.00376
2.00281
2.00189
2.00116
2.0004
1.99974
1.99894
1.99826
1.99739
1.9966
1.99577
1.99493
1.99421
1.99351
1.99294
1.99257
1.99222
1.99217
1.99211
1.99201
1.99203
1.99207
1.99211
1.99227
1.99229
1.99236
1.99238
1.99238
1.99242
1.99246
1.99246
1.99236
1.99219
1.99194
1.99165
1.99134
1.991
1.99066
1.99029
1.98987
1.9894
1.98884
1.98825
1.98757
1.98685
1.98607
1.98529
1.98446
1.98358
1.9827
1.98175
1.98082
1.97987
1.97892
1.978
1.97708
1.97621
1.97538
1.9746
1.97386
1.97317
1.97252
1.97193
1.97137
1.97086
1.97039
1.96997
1.96956
1.9692
1.96885
1.96853
1.96821
1.96792
1.96762
1.96734
1.96707
1.96681
1.96654
1.9663
1.96605
1.96583
1.96561
1.96541
1.96521
1.96504
1.9649
1.96471
2.02831
2.02717
2.02585
2.0244
2.02315
2.02195
2.02064
2.01935
2.01788
2.01646
2.01485
2.01332
2.01171
2.01025
2.0088
2.00734
2.00605
2.00463
2.00342
2.00215
2.00104
1.99983
1.99884
1.99785
1.99688
1.99612
1.99526
1.99475
1.99427
1.99392
1.99389
1.9937
1.99377
1.99373
1.99369
1.99397
1.99403
1.994
1.99434
1.99431
1.99446
1.99461
1.99478
1.995
1.99518
1.99531
1.99539
1.99578
1.99585
1.99563
1.99559
1.99571
1.99587
1.99606
1.99624
1.99641
1.99655
1.99666
1.99677
1.99681
1.99681
1.99675
1.99664
1.99649
1.99625
1.99597
1.99562
1.99524
1.9948
1.99433
1.9938
1.99326
1.99265
1.99204
1.99137
1.99071
1.99
1.9893
1.98857
1.98783
1.98706
1.98631
1.98555
1.98479
1.98403
1.98328
1.98253
1.9818
1.9811
1.9804
1.97975
1.9791
1.9785
1.9779
1.97738
1.97681
1.97638
1.97583
1.97555
1.97489
2.02452
2.02396
2.02283
2.02178
2.02097
2.0201
2.01913
2.01805
2.01681
2.01551
2.0141
2.01276
2.01132
2.01003
2.0085
2.0071
2.00572
2.00428
2.00311
2.00188
2.00082
1.99969
1.99882
1.99788
1.99705
1.99637
1.99557
1.99528
1.99471
1.99463
1.99447
1.9944
1.99453
1.99443
1.99439
1.99467
1.99469
1.99471
1.99492
1.995
1.99525
1.99539
1.99546
1.99568
1.99615
1.99597
1.99627
1.99606
1.99605
1.99621
1.99638
1.9966
1.99679
1.99701
1.99719
1.9974
1.99757
1.99777
1.99794
1.99814
1.99825
1.99843
1.99849
1.99862
1.99866
1.99873
1.99875
1.99878
1.99878
1.99879
1.99878
1.99877
1.99876
1.99873
1.99872
1.99868
1.99861
1.99856
1.99841
1.99833
1.998
1.99783
1.99783
1.99769
1.99755
1.99721
1.99697
1.99654
1.99625
1.9957
1.99533
1.99467
1.99424
1.99348
1.99301
1.99217
1.99168
1.99079
1.99022
1.98933
2.02192
2.0214
2.02054
2.01975
2.01913
2.01836
2.01746
2.01645
2.01531
2.01413
2.01291
2.01173
2.01044
2.00918
2.00788
2.00672
2.00548
2.00433
2.00327
2.00223
2.00132
2.00047
1.99972
1.99898
1.9984
1.99786
1.99742
1.99711
1.99668
1.99661
1.9963
1.99624
1.99629
1.99607
1.99613
1.99635
1.9962
1.99628
1.99623
1.99635
1.99657
1.99684
1.99694
1.99703
1.99732
1.9974
1.99732
1.99737
1.99749
1.99766
1.99774
1.99784
1.9979
1.99804
1.99811
1.99826
1.99831
1.99848
1.99853
1.99869
1.99874
1.9989
1.99896
1.99914
1.99921
1.99941
1.99948
1.99967
1.99974
1.99996
1.99999
2.00023
2.00021
2.00017
1.9998
1.99984
1.99963
1.99955
1.9996
1.99967
1.99976
1.99984
1.99991
1.99998
2.00003
2.00009
2.00013
2.00018
2.0002
2.00025
2.00027
2.00028
2.00024
2.00021
2.00018
2.00001
1.99994
1.99994
1.99979
1.9996
2.02114
2.02084
2.01965
2.01889
2.01838
2.01772
2.01701
2.01614
2.01522
2.01408
2.01292
2.01163
2.0104
2.00924
2.0081
2.00718
2.00612
2.00541
2.00448
2.00364
2.00297
2.00219
2.00159
2.00088
2.0003
1.9997
1.99917
1.99865
1.9982
1.99787
1.99743
1.99729
1.99707
1.99687
1.99692
1.99682
1.99655
1.99673
1.99676
1.99679
1.99689
1.99694
1.99706
1.99718
1.99728
1.99738
1.99742
1.99751
1.9976
1.99768
1.9978
1.99784
1.998
1.99809
1.99821
1.99834
1.99842
1.99866
1.99879
1.9989
1.99899
1.99904
1.99926
1.9993
1.99923
1.9992
1.99919
1.99933
1.99938
1.99955
1.99959
1.99974
1.99976
1.99969
1.99944
1.99951
1.99941
1.9994
1.99948
1.99957
1.99966
1.99973
1.99979
1.99985
1.99989
1.99992
1.99995
1.99999
2.00002
2.00006
2.0001
2.00016
2.00021
2.0003
2.00036
2.00047
2.00055
2.00066
2.00075
2.00082
2.0214
2.02118
2.01968
2.01849
2.01789
2.01741
2.01692
2.01632
2.01559
2.01457
2.01345
2.01211
2.01089
2.00967
2.00862
2.00763
2.00676
2.00593
2.00516
2.00442
2.00374
2.00304
2.00237
2.00167
2.00098
2.00029
1.99969
1.99903
1.99857
1.99808
1.99765
1.99744
1.99715
1.99696
1.99695
1.99677
1.9966
1.99672
1.99678
1.99685
1.99676
1.99679
1.99691
1.99701
1.99713
1.99722
1.99729
1.99732
1.99742
1.99746
1.99759
1.99766
1.99792
1.99801
1.99826
1.9983
1.99837
1.99823
1.99841
1.99829
1.99825
1.99834
1.99838
1.99853
1.99859
1.99877
1.99883
1.99901
1.99905
1.99926
1.99925
1.99924
1.99898
1.99904
1.99889
1.99886
1.99891
1.99901
1.99911
1.99922
1.99932
1.99941
1.99948
1.99955
1.9996
1.99967
1.99971
1.99978
1.99983
1.9999
1.99995
2.00003
2.00008
2.00018
2.00023
2.00034
2.00039
2.0005
2.00055
2.00069
2.02093
2.02046
2.02015
2.01882
2.0179
2.01727
2.0167
2.016
2.01528
2.01439
2.01347
2.01235
2.01127
2.01005
2.00898
2.00792
2.00705
2.00617
2.00547
2.00476
2.00407
2.00334
2.00259
2.00188
2.00109
2.00035
1.99966
1.99897
1.99848
1.99793
1.99752
1.99728
1.997
1.99682
1.99674
1.99664
1.99645
1.99652
1.99651
1.9966
1.99651
1.9966
1.9966
1.99671
1.99685
1.99693
1.99708
1.99715
1.99726
1.99723
1.99727
1.99732
1.99739
1.99743
1.99747
1.99758
1.99765
1.99771
1.99787
1.9981
1.99834
1.9983
1.9985
1.99838
1.99837
1.99838
1.99845
1.99848
1.99858
1.99859
1.99876
1.99875
1.99874
1.99853
1.99858
1.99846
1.99844
1.99849
1.99857
1.99866
1.99876
1.99884
1.99893
1.99902
1.99911
1.9992
1.9993
1.9994
1.9995
1.9996
1.99968
1.99977
1.99985
1.99993
2
2.00008
2.00013
2.00019
2.00024
2.00027
2.01902
2.01946
2.01925
2.01833
2.01734
2.01628
2.0155
2.0147
2.01403
2.01325
2.01249
2.01154
2.01058
2.00943
2.00841
2.00732
2.00643
2.00554
2.00485
2.00412
2.00342
2.00265
2.00186
2.00102
2.00025
1.99953
1.99884
1.99821
1.99771
1.99726
1.9969
1.99675
1.99653
1.99642
1.99635
1.99623
1.996
1.99616
1.99621
1.99624
1.99631
1.99632
1.99623
1.99622
1.9963
1.99649
1.99664
1.99684
1.99686
1.99679
1.99674
1.9968
1.9969
1.99699
1.99708
1.99719
1.99724
1.9974
1.99754
1.9977
1.99778
1.99793
1.99817
1.99806
1.99823
1.99809
1.99805
1.99805
1.9981
1.99813
1.99828
1.99829
1.99832
1.99823
1.99831
1.99823
1.99819
1.99818
1.99818
1.99819
1.99824
1.99828
1.99837
1.99844
1.99855
1.99863
1.99875
1.99886
1.99896
1.99905
1.99912
1.9992
1.99924
1.99932
1.99936
1.99943
1.99946
1.99952
1.99954
1.99965
2.01701
2.01673
2.01696
2.01659
2.01561
2.01453
2.0137
2.0129
2.01227
2.01161
2.01104
2.01027
2.0094
2.00832
2.00729
2.00624
2.00539
2.00457
2.00389
2.00319
2.00251
2.00186
2.0012
2.00056
1.99988
1.99932
1.99858
1.99807
1.99748
1.99708
1.99676
1.99656
1.99638
1.99626
1.99614
1.99594
1.99592
1.996
1.99606
1.99594
1.99595
1.99601
1.99594
1.99601
1.99591
1.99588
1.99595
1.99599
1.996
1.99605
1.99616
1.99639
1.99662
1.99686
1.99709
1.99721
1.99738
1.99746
1.99758
1.99765
1.99774
1.99778
1.99791
1.99797
1.99817
1.99803
1.99813
1.99805
1.99804
1.99807
1.99821
1.99822
1.99817
1.99832
1.99831
1.9983
1.99811
1.99813
1.99804
1.99802
1.99798
1.99809
1.99798
1.99802
1.99795
1.99794
1.99798
1.99808
1.99815
1.99824
1.9983
1.99837
1.99841
1.99848
1.99852
1.99858
1.99861
1.99867
1.99871
1.99874
2.01506
2.01492
2.01452
2.01458
2.01416
2.01342
2.01223
2.01094
2.0104
2.00999
2.00948
2.00877
2.00807
2.0072
2.00651
2.00569
2.00503
2.00432
2.00365
2.00296
2.00226
2.00162
2.00102
2.00039
1.99975
1.99904
1.99834
1.99769
1.9971
1.99664
1.99633
1.99614
1.996
1.99595
1.9959
1.99585
1.9959
1.99571
1.99567
1.99543
1.99531
1.99528
1.99522
1.99527
1.99502
1.99491
1.99489
1.99484
1.99482
1.99477
1.99492
1.9952
1.99557
1.99594
1.99629
1.99661
1.99683
1.99703
1.99718
1.99735
1.99748
1.9976
1.99768
1.99772
1.99779
1.99783
1.99787
1.99795
1.99802
1.9981
1.99823
1.99845
1.99858
1.99864
1.99869
1.9987
1.99884
1.99885
1.99888
1.99886
1.99898
1.99893
1.99889
1.99841
1.99837
1.9983
1.99823
1.99797
1.99795
1.9978
1.99779
1.99783
1.99791
1.99802
1.99807
1.9981
1.99812
1.99816
1.99815
1.99825
2.01376
2.01349
2.01246
2.01223
2.01233
2.01179
2.011
2.01035
2.0097
2.00908
2.00843
2.00764
2.00699
2.0061
2.00549
2.00466
2.00407
2.00345
2.00277
2.00214
2.00136
2.00082
2.00021
1.99955
1.99873
1.99801
1.99734
1.99669
1.99624
1.99583
1.99561
1.99547
1.99537
1.99536
1.99525
1.9952
1.9951
1.99498
1.99462
1.99452
1.99452
1.99443
1.99434
1.99397
1.99377
1.99371
1.99371
1.99362
1.99355
1.99348
1.99339
1.99348
1.99372
1.9941
1.99453
1.99501
1.99555
1.99604
1.99655
1.99696
1.9973
1.99758
1.99778
1.99791
1.998
1.99809
1.99812
1.99817
1.99825
1.99832
1.99847
1.99861
1.99876
1.99887
1.99895
1.99903
1.9991
1.99917
1.9992
1.99928
1.99932
1.9991
1.99913
1.99889
1.99895
1.99891
1.9989
1.99863
1.99838
1.99816
1.99796
1.9979
1.99785
1.99788
1.99789
1.99791
1.99792
1.99796
1.99796
1.99805
2.0125
2.0123
2.0106
2.00932
2.00905
2.00941
2.00955
2.00909
2.00851
2.00786
2.00722
2.00654
2.00587
2.0052
2.00463
2.00404
2.00359
2.00297
2.00227
2.00146
2.00071
1.99998
1.99939
1.9987
1.99812
1.99759
1.99707
1.99652
1.99619
1.99584
1.99564
1.99535
1.99514
1.99483
1.99461
1.99454
1.99447
1.99436
1.99409
1.99417
1.99415
1.99397
1.99379
1.99325
1.99316
1.9931
1.9931
1.99303
1.99301
1.99299
1.9929
1.99281
1.99289
1.99321
1.99371
1.99426
1.99493
1.99564
1.99641
1.99707
1.99763
1.99808
1.99838
1.99862
1.99875
1.99881
1.99887
1.99901
1.99895
1.99895
1.99898
1.99908
1.99915
1.99926
1.99934
1.99942
1.99942
1.99955
1.99957
1.99957
1.99955
1.99955
1.99959
1.99955
1.9995
1.99929
1.99931
1.99917
1.9989
1.99853
1.99832
1.99806
1.99789
1.99775
1.99772
1.99771
1.99771
1.99775
1.99777
1.99782
2.01096
2.01076
2.00955
2.00891
2.00825
2.00716
2.00698
2.00744
2.00725
2.00672
2.00612
2.00558
2.00499
2.00453
2.00404
2.0036
2.00323
2.00261
2.00199
2.00115
2.00047
1.99966
1.99911
1.99839
1.99796
1.99743
1.9971
1.99681
1.99653
1.99637
1.99623
1.99605
1.99593
1.99585
1.99561
1.99547
1.99541
1.99485
1.99456
1.99447
1.99429
1.99394
1.99365
1.99333
1.9934
1.99346
1.99333
1.99341
1.99345
1.99358
1.99352
1.9937
1.99375
1.99359
1.99377
1.99443
1.99516
1.9959
1.99662
1.99724
1.99785
1.99831
1.99862
1.99882
1.99904
1.9992
1.9993
1.99937
1.99938
1.99939
1.99929
1.99936
1.99928
1.99928
1.99935
1.99941
1.9995
1.99954
1.99962
1.99966
1.99966
1.99969
1.99971
1.99969
1.99977
1.99971
1.99957
1.99927
1.99902
1.99868
1.99836
1.99837
1.99829
1.9982
1.99794
1.99766
1.99764
1.99748
1.99753
1.99753
2.00961
2.0094
2.00867
2.00783
2.00713
2.00678
2.00599
2.00601
2.00616
2.00582
2.00518
2.00458
2.00401
2.00345
2.00301
2.00267
2.0025
2.00211
2.00172
2.00101
2.00035
1.99961
1.99894
1.99827
1.99777
1.99721
1.99686
1.9965
1.99622
1.99607
1.99587
1.99583
1.99571
1.9957
1.99561
1.99561
1.99542
1.9953
1.99516
1.99509
1.99514
1.99513
1.99508
1.9949
1.99505
1.99504
1.99486
1.99502
1.99496
1.99514
1.99547
1.9956
1.99576
1.99564
1.99544
1.99551
1.99563
1.99612
1.99664
1.99711
1.99761
1.99795
1.9983
1.99855
1.99885
1.999
1.99919
1.99919
1.99919
1.99916
1.99925
1.99925
1.99927
1.99929
1.99921
1.99917
1.99917
1.99925
1.99931
1.99938
1.99945
1.99953
1.99959
1.99971
1.99976
1.99981
1.9999
1.99989
1.99981
1.99989
1.99977
1.99955
1.99916
1.9991
1.99892
1.99863
1.99852
1.99838
1.9983
1.99832
2.00828
2.00831
2.00805
2.00647
2.00586
2.00568
2.00532
2.00451
2.00435
2.00458
2.00458
2.00408
2.00351
2.00276
2.00224
2.00186
2.00171
2.00146
2.00122
2.00083
2.00029
1.99977
1.99917
1.99864
1.99804
1.99747
1.99699
1.99656
1.99628
1.99607
1.99594
1.99591
1.99584
1.99588
1.9959
1.99596
1.99592
1.99608
1.99604
1.99607
1.99624
1.99619
1.99618
1.99621
1.9965
1.99656
1.99671
1.99685
1.99694
1.99707
1.99725
1.99754
1.99748
1.99761
1.99753
1.99749
1.99712
1.99719
1.99701
1.99712
1.99736
1.99771
1.99809
1.99851
1.9989
1.99924
1.99962
1.9999
1.99998
1.99986
1.9998
1.99978
1.99972
1.99965
1.99952
1.9995
1.9996
1.99969
1.99982
1.99988
1.99996
2.00001
2.00007
2.00014
2.00022
2.0003
2.00037
2.0004
2.00048
2.00049
2.0005
2.0005
2.00044
2.00041
2.00037
2.00038
2.00032
2.00034
2.00028
2.00035
2.00635
2.00681
2.0064
2.00549
2.00512
2.00511
2.00429
2.00368
2.00315
2.00252
2.0023
2.00221
2.00249
2.00202
2.00139
2.00094
2.0007
2.00052
2.00043
2.00031
2.0001
1.99986
1.99948
1.99908
1.99856
1.99819
1.99771
1.99737
1.99702
1.99686
1.99674
1.99665
1.99668
1.99683
1.99694
1.99702
1.99717
1.99708
1.99729
1.99742
1.99752
1.99772
1.99765
1.99786
1.99789
1.99787
1.99806
1.99806
1.99817
1.99832
1.99857
1.99868
1.99883
1.99892
1.99895
1.99879
1.99869
1.99867
1.99832
1.99836
1.99826
1.99846
1.99879
1.99908
1.99951
1.99987
2.00019
2.0005
2.00065
2.00087
2.00081
2.00085
2.00075
2.00055
2.00035
2.00033
2.00019
2.00013
2.0001
2.00016
2.00023
2.00033
2.00036
2.0004
2.00047
2.00059
2.00069
2.00076
2.00085
2.00089
2.00096
2.00095
2.001
2.00097
2.00097
2.00097
2.00098
2.00101
2.00103
2.00106
2.0049
2.00554
2.00523
2.00548
2.00508
2.0049
2.00442
2.00304
2.00224
2.00188
2.0013
2.00052
2.00032
2.00041
2.00038
2.00024
1.99994
1.99957
1.99947
1.99908
1.99884
1.99842
1.99824
1.99782
1.99778
1.99806
1.99821
1.99811
1.99801
1.99791
1.99778
1.99773
1.99762
1.99764
1.99767
1.99765
1.99766
1.99768
1.99797
1.9982
1.99828
1.99839
1.99844
1.99866
1.99875
1.99892
1.99921
1.99926
1.99939
1.99967
1.99992
1.99995
2.00026
2.00022
2.00027
2.00026
2.00019
2.0003
2.0002
2.00013
1.99988
1.99984
1.99969
1.99961
1.99979
2.00009
2.00042
2.00066
2.00084
2.00103
2.00108
2.00111
2.00116
2.00103
2.00081
2.00065
2.00061
2.00054
2.00043
2.00045
2.00047
2.00055
2.0006
2.0007
2.00078
2.00088
2.00097
2.00104
2.00109
2.00113
2.00116
2.00117
2.00118
2.00119
2.00119
2.0012
2.00121
2.00122
2.00123
2.00125
2.00376
2.00378
2.00403
2.00426
2.00398
2.00405
2.00323
2.00311
2.00292
2.00208
2.00138
2.00094
2.00067
2.0002
2.00011
2.00025
1.99998
1.99961
1.99948
1.99928
1.99914
1.99901
1.99866
1.99856
1.99836
1.99847
1.99841
1.99851
1.9985
1.99849
1.99838
1.99827
1.99814
1.99816
1.99825
1.99827
1.99821
1.99836
1.99848
1.99849
1.99868
1.99903
1.99911
1.9992
1.99934
1.9995
1.99953
1.99972
1.99979
2
2.00018
2.00024
2.00036
2.00042
2.00044
2.00038
2.0004
2.00037
2.00038
2.00046
2.00047
2.00054
2.00049
2.00047
2.0004
2.00042
2.00047
2.00067
2.00076
2.00084
2.00093
2.0009
2.00089
2.00076
2.00066
2.00051
2.00033
2.0004
2.00035
2.00024
2.00025
2.0002
2.00011
2.00016
2.00028
2.00038
2.00052
2.00062
2.00068
2.00071
2.00075
2.00076
2.00077
2.00078
2.00077
2.00077
2.0008
2.00081
2.00086
2.00087
2.00275
2.00274
2.00299
2.00307
2.00321
2.00277
2.00246
2.00272
2.00259
2.00233
2.00198
2.0014
2.00112
2.00078
2.0005
2.00039
2.00009
1.99989
1.99983
1.9998
1.99974
1.99979
1.99974
1.99969
1.99962
1.9996
1.9996
1.99964
1.99962
1.9996
1.99964
1.9996
1.99968
1.99967
1.99973
1.99973
1.99979
1.99984
1.99976
1.99975
1.99978
1.99985
1.99985
2.00008
2.00004
2
1.99997
2.00002
2
2.00008
2.00018
2.00022
2.00024
2.00033
2.00031
2.00031
2.00027
2.00024
2.00029
2.00032
2.00039
2.00045
2.00048
2.00047
2.00039
2.00031
2.00031
2.00039
2.00044
2.00044
2.00042
2.00037
2.00044
2.00044
2.00042
2.00035
2.00034
2.00036
2.0003
2.00022
2.0001
2.00006
2.00005
2
1.99996
1.99997
2
2.00004
2.0001
2.00015
2.00017
2.00017
2.00019
2.00019
2.0002
2.0002
2.00022
2.00022
2.00027
2.00028
2.00223
2.00224
2.00215
2.00253
2.00259
2.00245
2.00215
2.00204
2.00147
2.00161
2.00132
2.0012
2.00088
2.00052
2.00012
2.00018
2.00007
2.00021
2.00026
2.00036
2.00022
2.0003
2.00033
2.00023
2.00016
2.00019
2.00016
2.0002
2.00021
2.00022
2.00021
2.00016
2.0002
2.00011
2.0001
2.00013
2.00015
2.00009
1.99996
2
2.00002
1.99995
1.99994
2.00001
2.00007
2.00007
2.00015
2.0001
2.00015
2.00015
2.0002
2.00023
2.00021
2.00033
2.00026
2.00025
2.00024
2.00024
2.0002
2.00018
2.00018
2.00017
2.00011
2.00009
2.00005
1.99994
1.99995
1.99995
1.99992
1.99992
1.99986
1.99982
1.99982
1.99983
1.9998
1.99982
1.99981
1.99984
1.99988
1.99988
1.99984
1.99987
1.99984
1.99982
1.99979
1.99979
1.99976
1.99975
1.99977
1.9998
1.99981
1.99982
1.99983
1.99983
1.99983
1.99984
1.99984
1.99984
1.99984
1.99984
2.00051
2.00051
2.00044
2.00046
2.00019
2.00045
2.00031
2.00019
1.99992
2.00029
2.00019
2.00026
2.00028
2.00034
2.0003
2.00034
2.00037
2.00043
2.00048
2.0005
2.00051
2.00054
2.00054
2.0005
2.00044
2.00042
2.0004
2.00037
2.00038
2.00036
2.00033
2.00033
2.00028
2.00026
2.00016
2.00013
2.00006
2.00006
2.00008
2
2.00005
1.99999
1.99999
1.99995
1.99999
1.99999
2.00003
2.00001
2.00007
2.00007
2.00011
2.00023
2.00016
2.00014
2.00008
2.00007
2.00009
2.00006
2.00003
2
1.99994
1.99985
1.99981
1.99977
1.99977
1.99973
1.99975
1.9997
1.99968
1.99962
1.99955
1.99957
1.99959
1.99962
1.99961
1.99962
1.99964
1.99967
1.99969
1.99969
1.99965
1.99968
1.99964
1.99962
1.99961
1.9996
1.99959
1.99958
1.99957
1.99958
1.99959
1.99962
1.99963
1.99965
1.99965
1.99966
1.99967
1.99967
1.99968
1.99968
2.02614
2.02696
2.02832
2.02903
2.02664
2.02375
2.02357
2.0234
2.02464
2.02915
2.02344
2.02514
2.02508
2.02593
2.0258
2.02409
2.02302
2.0224
2.02213
2.0254
2.0228
2.02338
2.02326
2.02301
2.02382
2.02361
2.02312
2.02262
2.02166
2.02294
2.02096
2.02056
2.02089
2.02114
2.02235
2.02246
2.02262
2.02246
2.02169
2.02207
2.01815
2.01805
2.01898
2.01917
2.01971
2.02069
2.02071
2.02202
2.02165
2.02176
2.01607
2.01629
2.01707
2.01765
2.01769
2.01871
2.01871
2.01943
2.02038
2.02135
2.01419
2.0146
2.01514
2.01588
2.01589
2.01677
2.01686
2.01768
2.0181
2.01974
2.01276
2.01313
2.01356
2.01428
2.01427
2.01502
2.01517
2.01603
2.01634
2.01779
2.01162
2.01208
2.0123
2.01308
2.01306
2.01359
2.01377
2.01461
2.01484
2.01598
2.01032
2.01092
2.01109
2.01172
2.01176
2.01231
2.01247
2.01331
2.01356
2.01473
2.00925
2.00977
2.01002
2.01055
2.01058
2.01099
2.0111
2.01164
2.01185
2.01316
2.00796
2.00836
2.00852
2.00919
2.00927
2.00966
2.00982
2.01025
2.01031
2.01134
2.00698
2.00745
2.00748
2.00794
2.00808
2.00817
2.00832
2.00896
2.00893
2.00995
2.00569
2.00626
2.00649
2.00652
2.00701
2.00715
2.00722
2.00766
2.00762
2.00838
2.00479
2.00495
2.00528
2.00518
2.00549
2.00577
2.00575
2.00598
2.00591
2.00636
2.00401
2.00394
2.00408
2.00421
2.00426
2.00468
2.00467
2.00528
2.005
2.00501
2.00305
2.00288
2.00307
2.00295
2.00301
2.0041
2.00413
2.00422
2.00404
2.00401
2.00258
2.00217
2.00161
2.00216
2.00207
2.00284
2.00276
2.00278
2.00271
2.00304
2.00157
2.00164
2.00121
2.00165
2.00173
2.00175
2.00194
2.00208
2.00247
2.00239
2.0001
2.00036
2.00037
2.00018
2.00037
2.00018
2.00034
2.00035
2.00062
2.00052
1.99235
1.9902
1.99115
1.99441
1.99864
2.00242
2.0102
2.01813
2.03445
2.0439
1.99907
1.99802
1.99923
2.00237
2.00817
2.01248
2.02012
2.0341
2.05614
2.06203
2.00677
2.00564
2.00666
2.01013
2.01749
2.02512
2.03642
2.04699
2.07148
2.07977
2.01267
2.01243
2.01517
2.01954
2.0249
2.03167
2.04507
2.06177
2.09099
2.08194
2.01854
2.01737
2.01871
2.0246
2.03596
2.04232
2.05594
2.07465
2.10468
2.10893
2.02471
2.02626
2.02699
2.02988
2.03923
2.04786
2.05974
2.07268
2.10628
2.11443
2.02508
2.02845
2.03226
2.03567
2.04449
2.05779
2.07462
2.08379
2.11401
2.10177
2.02775
2.02956
2.03451
2.03906
2.04565
2.05677
2.07575
2.09415
2.11113
2.09507
2.03208
2.03201
2.03295
2.03789
2.04518
2.05437
2.07157
2.08985
2.11019
2.0843
2.03071
2.0315
2.03394
2.03879
2.0466
2.05424
2.07355
2.08263
2.10139
2.04828
1.94815
1.94376
1.94106
1.93586
1.93264
1.92658
1.92316
1.91634
1.91296
1.913
1.94887
1.94497
1.94234
1.93794
1.93484
1.92986
1.92648
1.92121
1.91713
1.91866
1.95004
1.94613
1.94303
1.93895
1.93561
1.93106
1.92773
1.92324
1.92008
1.92222
1.95317
1.9498
1.94645
1.94255
1.93931
1.93527
1.93241
1.92816
1.92725
1.93025
1.95703
1.9534
1.95148
1.94706
1.9445
1.94028
1.93906
1.93736
1.93781
1.94016
1.96084
1.96006
1.9571
1.95534
1.95275
1.94944
1.9467
1.94624
1.94857
1.95387
1.96374
1.96385
1.96292
1.96018
1.96014
1.95822
1.95852
1.95995
1.96238
1.969
1.97034
1.97111
1.97056
1.96918
1.96951
1.96917
1.9687
1.97156
1.97816
1.98661
1.97558
1.97402
1.97729
1.97685
1.97792
1.98004
1.98326
1.98691
1.99636
2.00513
1.98471
1.98183
1.98398
1.98704
1.98736
1.98993
1.99433
2.00196
2.01534
2.02461
2.00005
2.00004
2.00005
2.00004
2.00004
2.00004
2.00004
2.00003
2.00003
2.00002
2.00003
2.00002
2.00002
2.00001
2.00001
2
2
1.99998
1.99999
1.99997
1.99997
1.99995
1.99995
1.99993
1.99993
1.9999
1.9999
1.99987
1.99986
1.99983
1.99982
1.99979
1.99978
1.99974
1.99973
1.99968
1.99967
1.99962
1.9996
1.99954
1.99952
1.99946
1.99943
1.99936
1.99933
1.99924
1.99921
1.99911
1.99907
1.99896
1.99892
1.99879
1.99874
1.99859
1.99853
1.99836
1.99829
1.99809
1.99802
1.99779
1.99771
1.99744
1.99734
1.99703
1.99693
1.99657
1.99645
1.99603
1.9959
1.99541
1.99526
1.9947
1.99452
1.99388
1.99367
1.99293
1.99269
1.99183
1.99155
1.99055
1.99022
1.98909
1.98865
1.98737
1.98685
1.98535
1.98472
1.98295
1.9822
1.98007
1.97921
1.97658
1.97555
1.97231
1.97099
1.96694
1.9652
1.96012
1.95755
1.95123
2.00005
2.00004
2.00005
2.00004
2.00004
2.00003
2.00003
2.00002
2.00002
2.00002
2.00003
2.00002
2.00002
2.00001
2.00001
2
2
1.99998
1.99999
1.99997
1.99997