/*--------------------------------*- C++ -*----------------------------------*\
  =========                 |
  \\      /  F ield         | OpenFOAM: The Open Source CFD Toolbox
   \\    /   O peration     | Website:  https://openfoam.org
    \\  /    A nd           | Version:  8
     \\/     M anipulation  |
\*---------------------------------------------------------------------------*/
FoamFile
{
    version     2.0;
    format      ascii;
    class       volScalarField;
    location    "20.000098150058701";
    object      T;
}
// * * * * * * * * * * * * * * * * * * * * * * * * * * * * * * * * * * * * * //

dimensions      [0 0 0 1 0 0 0];

internalField   nonuniform List<scalar> 
6800
(
375.137
375.367
375.306
375.027
374.427
373.126
372.226
371.889
371.773
371.763
375.2
375.292
375.039
374.297
372.718
372.02
371.771
371.707
371.713
371.761
375.004
374.827
374.204
372.681
371.899
371.657
371.639
371.675
371.734
371.884
375.156
373.877
373.047
371.986
371.625
371.597
371.612
371.683
371.819
371.936
374.775
372.99
372.241
371.644
371.541
371.527
371.607
371.752
371.897
371.974
375.013
372.733
372.026
371.525
371.512
371.526
371.658
371.792
371.924
371.907
374.449
371.842
371.304
371.214
371.425
371.475
371.657
371.771
371.817
371.834
372.767
370.871
370.922
370.988
371.347
371.411
371.538
371.695
371.761
371.815
371.787
370.175
370.279
370.526
371.129
371.33
371.492
371.631
371.732
371.774
370.407
369.483
369.863
370.249
370.862
371.227
371.419
371.612
371.742
371.766
375.367
375.369
375.371
375.368
375.362
375.356
375.348
375.34
375.334
375.329
375.36
375.365
375.367
375.365
375.36
375.353
375.345
375.337
375.329
375.322
375.346
375.357
375.361
375.359
375.355
375.348
375.339
375.33
375.32
375.31
375.325
375.346
375.352
375.353
375.349
375.342
375.334
375.324
375.314
375.302
375.307
375.336
375.345
375.347
375.343
375.336
375.326
375.318
375.312
375.308
375.295
375.33
375.341
375.343
375.337
375.325
375.308
375.293
375.294
375.302
375.288
375.326
375.34
375.338
375.327
375.302
375.262
375.215
375.175
375.063
375.282
375.325
375.341
375.337
375.314
375.263
375.16
374.985
374.776
374.209
375.243
375.328
375.35
375.337
375.272
375.115
374.802
374.277
373.752
372.626
375.208
375.34
375.376
375.292
375.074
374.607
373.798
372.748
372.157
371.869
375.325
375.324
375.33
375.343
375.361
375.385
375.413
375.445
375.48
375.516
375.553
375.591
375.627
375.662
375.694
375.723
375.749
375.771
375.788
375.801
375.809
375.813
375.812
375.807
375.797
375.784
375.767
375.748
375.726
375.702
375.676
375.648
375.62
375.59
375.561
375.531
375.5
375.47
375.438
375.407
375.376
375.344
375.312
375.281
375.249
375.217
375.186
375.155
375.125
375.095
375.067
375.039
375.011
374.985
374.96
374.936
374.913
374.89
374.869
374.848
374.828
374.809
374.791
374.773
374.756
374.739
374.722
374.707
374.691
374.676
374.662
374.648
374.634
374.621
374.608
374.595
374.582
374.57
374.558
374.546
374.535
374.523
374.512
374.501
374.49
374.479
374.469
374.458
374.448
374.438
374.428
374.419
374.409
374.401
374.391
374.384
374.375
374.369
374.361
374.352
375.315
375.312
375.316
375.327
375.345
375.368
375.397
375.429
375.465
375.503
375.542
375.582
375.62
375.657
375.691
375.723
375.751
375.775
375.795
375.81
375.82
375.826
375.826
375.823
375.815
375.803
375.787
375.769
375.748
375.725
375.7
375.673
375.645
375.616
375.587
375.557
375.526
375.495
375.464
375.432
375.4
375.368
375.336
375.304
375.272
375.24
375.208
375.177
375.146
375.116
375.087
375.059
375.032
375.006
374.981
374.956
374.933
374.91
374.889
374.868
374.848
374.828
374.809
374.791
374.774
374.757
374.74
374.724
374.708
374.693
374.678
374.664
374.65
374.636
374.622
374.609
374.597
374.584
374.572
374.56
374.548
374.536
374.525
374.513
374.502
374.491
374.48
374.47
374.459
374.449
374.439
374.43
374.42
374.412
374.403
374.395
374.386
374.38
374.372
374.363
375.298
375.292
375.292
375.301
375.317
375.34
375.37
375.404
375.442
375.482
375.524
375.566
375.608
375.649
375.687
375.723
375.755
375.783
375.807
375.825
375.839
375.848
375.851
375.849
375.844
375.834
375.821
375.804
375.785
375.763
375.739
375.714
375.687
375.658
375.63
375.6
375.569
375.538
375.506
375.473
375.44
375.408
375.375
375.342
375.309
375.276
375.244
375.213
375.182
375.152
375.123
375.094
375.067
375.041
375.016
374.991
374.967
374.945
374.923
374.901
374.881
374.861
374.842
374.823
374.805
374.787
374.77
374.753
374.737
374.721
374.706
374.691
374.676
374.662
374.648
374.635
374.621
374.608
374.596
374.583
374.571
374.559
374.547
374.535
374.524
374.513
374.501
374.491
374.48
374.47
374.46
374.45
374.441
374.432
374.423
374.415
374.406
374.399
374.391
374.382
375.284
375.268
375.263
375.268
375.282
375.304
375.334
375.369
375.41
375.453
375.499
375.545
375.591
375.636
375.679
375.719
375.756
375.788
375.815
375.837
375.854
375.865
375.871
375.871
375.867
375.86
375.848
375.833
375.815
375.795
375.773
375.748
375.723
375.695
375.666
375.637
375.606
375.574
375.541
375.508
375.475
375.441
375.408
375.374
375.341
375.309
375.276
375.245
375.214
375.185
375.156
375.128
375.102
375.076
375.05
375.026
375.003
374.98
374.958
374.936
374.915
374.895
374.876
374.856
374.838
374.82
374.802
374.785
374.768
374.752
374.736
374.72
374.705
374.691
374.676
374.662
374.649
374.635
374.622
374.609
374.597
374.584
374.572
374.56
374.548
374.537
374.525
374.515
374.504
374.493
374.483
374.474
374.464
374.455
374.446
374.438
374.429
374.422
374.415
374.404
375.273
375.237
375.225
375.226
375.237
375.259
375.29
375.328
375.371
375.417
375.465
375.514
375.563
375.611
375.657
375.701
375.74
375.775
375.804
375.828
375.846
375.858
375.864
375.864
375.861
375.853
375.842
375.828
375.811
375.792
375.771
375.749
375.724
375.697
375.668
375.639
375.607
375.575
375.542
375.509
375.475
375.442
375.408
375.375
375.343
375.311
375.279
375.249
375.22
375.191
375.164
375.138
375.112
375.087
375.063
375.04
375.017
374.995
374.973
374.952
374.932
374.912
374.892
374.874
374.855
374.837
374.819
374.802
374.785
374.769
374.753
374.738
374.723
374.708
374.694
374.68
374.666
374.653
374.64
374.627
374.614
374.601
374.589
374.577
374.566
374.554
374.543
374.532
374.522
374.511
374.502
374.492
374.483
374.474
374.465
374.457
374.449
374.441
374.435
374.423
375.232
375.179
375.156
375.156
375.167
375.19
375.224
375.264
375.31
375.357
375.405
375.453
375.501
375.549
375.594
375.637
375.675
375.708
375.735
375.756
375.771
375.779
375.781
375.778
375.771
375.76
375.747
375.732
375.716
375.698
375.678
375.657
375.633
375.608
375.579
375.551
375.52
375.489
375.457
375.425
375.394
375.362
375.33
375.3
375.271
375.242
375.213
375.186
375.16
375.135
375.112
375.089
375.066
375.044
375.023
375.002
374.982
374.962
374.942
374.923
374.905
374.886
374.869
374.851
374.834
374.817
374.801
374.785
374.769
374.754
374.739
374.725
374.711
374.697
374.684
374.671
374.658
374.645
374.633
374.62
374.608
374.596
374.585
374.574
374.563
374.552
374.541
374.531
374.522
374.512
374.503
374.494
374.486
374.478
374.47
374.462
374.454
374.446
374.441
374.429
374.994
374.983
374.974
374.986
375.015
375.048
375.085
375.127
375.172
375.216
375.258
375.3
375.34
375.379
375.418
375.452
375.482
375.506
375.523
375.534
375.538
375.535
375.526
375.512
375.497
375.48
375.463
375.447
375.431
375.415
375.398
375.38
375.359
375.338
375.314
375.289
375.264
375.239
375.212
375.186
375.162
375.136
375.111
375.088
375.066
375.043
375.021
375.001
374.983
374.966
374.949
374.933
374.917
374.901
374.886
374.871
374.856
374.841
374.827
374.812
374.798
374.784
374.771
374.757
374.744
374.73
374.717
374.705
374.692
374.68
374.668
374.657
374.645
374.634
374.623
374.612
374.602
374.591
374.581
374.571
374.56
374.551
374.541
374.531
374.522
374.513
374.504
374.496
374.488
374.48
374.473
374.465
374.458
374.451
374.445
374.438
374.432
374.425
374.42
374.408
374.266
374.358
374.441
374.508
374.577
374.632
374.678
374.726
374.768
374.802
374.832
374.862
374.89
374.916
374.938
374.954
374.966
374.971
374.968
374.96
374.942
374.914
374.886
374.857
374.832
374.809
374.792
374.779
374.77
374.763
374.758
374.752
374.744
374.737
374.724
374.718
374.708
374.7
374.692
374.682
374.674
374.663
374.652
374.644
374.636
374.628
374.62
374.615
374.612
374.608
374.605
374.602
374.599
374.595
374.592
374.588
374.584
374.58
374.576
374.572
374.567
374.562
374.557
374.551
374.545
374.539
374.533
374.527
374.521
374.515
374.509
374.502
374.496
374.49
374.484
374.478
374.472
374.466
374.459
374.453
374.447
374.44
374.434
374.428
374.422
374.417
374.411
374.406
374.401
374.396
374.391
374.386
374.382
374.377
374.373
374.368
374.364
374.359
374.356
374.347
372.73
372.859
373.014
373.139
373.246
373.342
373.423
373.499
373.558
373.606
373.642
373.67
373.688
373.703
373.706
373.705
373.699
373.685
373.665
373.644
373.62
373.606
373.606
373.609
373.611
373.618
373.629
373.643
373.656
373.669
373.68
373.689
373.696
373.703
373.707
373.718
373.725
373.728
373.745
373.755
373.763
373.775
373.788
373.804
373.821
373.842
373.865
373.89
373.915
373.939
373.964
373.988
374.012
374.034
374.057
374.076
374.095
374.112
374.128
374.142
374.154
374.165
374.174
374.182
374.188
374.194
374.2
374.205
374.21
374.214
374.218
374.221
374.225
374.227
374.23
374.232
374.234
374.235
374.236
374.237
374.237
374.237
374.237
374.237
374.237
374.237
374.236
374.236
374.235
374.234
374.234
374.234
374.232
374.232
374.232
374.23
374.229
374.229
374.228
374.225
371.89
371.95
372.034
372.108
372.175
372.241
372.305
372.366
372.427
372.482
372.538
372.59
372.644
372.699
372.751
372.802
372.847
372.893
372.933
372.976
373.014
373.054
373.091
373.127
373.163
373.194
373.224
373.251
373.269
373.288
373.296
373.302
373.307
373.308
373.309
373.31
373.305
373.306
373.302
373.299
373.299
373.296
373.293
373.292
373.291
373.291
373.295
373.301
373.307
373.315
373.324
373.334
373.344
373.356
373.37
373.385
373.403
373.421
373.442
373.463
373.485
373.509
373.532
373.558
373.584
373.61
373.636
373.661
373.687
373.711
373.734
373.756
373.777
373.796
373.814
373.83
373.846
373.86
373.873
373.885
373.896
373.905
373.915
373.924
373.932
373.94
373.947
373.955
373.962
373.969
373.976
373.982
373.988
373.994
374
374.005
374.01
374.015
374.019
374.022
371.808
371.842
371.89
371.944
371.992
372.039
372.09
372.143
372.203
372.262
372.327
372.391
372.459
372.523
372.586
372.651
372.709
372.77
372.825
372.88
372.928
372.978
373.021
373.062
373.102
373.135
373.169
373.194
373.216
373.235
373.241
373.251
373.255
373.252
373.261
373.256
373.249
373.251
373.242
373.24
373.235
373.228
373.222
373.215
373.207
373.2
373.194
373.188
373.174
373.168
373.169
373.171
373.169
373.164
373.156
373.15
373.144
373.139
373.134
373.13
373.128
373.128
373.129
373.131
373.136
373.142
373.151
373.161
373.172
373.184
373.199
373.214
373.23
373.247
373.266
373.284
373.304
373.323
373.344
373.364
373.385
373.407
373.428
373.449
373.47
373.491
373.511
373.531
373.551
373.57
373.588
373.606
373.623
373.64
373.654
373.67
373.682
373.697
373.707
373.721
371.931
371.958
372.005
372.048
372.083
372.12
372.161
372.206
372.256
372.31
372.368
372.425
372.487
372.544
372.606
372.666
372.724
372.785
372.837
372.889
372.934
372.981
373.021
373.06
373.096
373.124
373.158
373.175
373.198
373.21
373.216
373.231
373.232
373.229
373.236
373.232
373.225
373.225
373.217
373.217
373.207
373.201
373.195
373.192
373.177
373.171
373.164
373.158
373.16
373.159
373.155
373.148
373.141
373.133
373.126
373.118
373.111
373.104
373.098
373.09
373.085
373.078
373.074
373.069
373.066
373.062
373.06
373.058
373.056
373.054
373.054
373.053
373.053
373.052
373.051
373.052
373.054
373.055
373.058
373.061
373.065
373.076
373.08
373.08
373.084
373.09
373.096
373.108
373.115
373.13
373.14
373.158
373.169
373.19
373.203
373.226
373.24
373.265
373.275
373.315
372.031
372.053
372.099
372.132
372.159
372.19
372.227
372.267
372.314
372.363
372.415
372.467
372.521
372.575
372.631
372.683
372.736
372.787
372.834
372.879
372.92
372.959
372.993
373.026
373.054
373.079
373.101
373.116
373.136
373.144
373.157
373.166
373.168
373.174
373.179
373.174
373.175
373.173
373.173
373.174
373.166
373.159
373.152
373.148
373.142
373.131
373.127
373.128
373.125
373.119
373.114
373.109
373.106
373.1
373.097
373.09
373.087
373.081
373.078
373.072
373.069
373.063
373.06
373.054
373.05
373.044
373.041
373.034
373.031
373.025
373.021
373.016
373.01
373.007
373.007
373.007
373.016
373.014
373.019
373.021
373.019
373.016
373.014
373.011
373.009
373.006
373.005
373.003
373.001
373
372.998
372.999
372.998
372.998
372.999
373.001
373.006
373.008
373.007
373.016
372.082
372.101
372.138
372.177
372.203
372.232
372.262
372.298
372.336
372.381
372.427
372.479
372.532
372.583
372.635
372.679
372.727
372.765
372.804
372.844
372.877
372.911
372.94
372.97
372.997
373.023
373.046
373.068
373.088
373.103
373.121
373.131
373.139
373.149
373.152
373.148
373.163
373.16
373.158
373.154
373.151
373.149
373.146
373.141
373.136
373.13
373.127
373.123
373.119
373.115
373.11
373.107
373.102
373.097
373.092
373.086
373.083
373.076
373.07
373.065
373.06
373.057
373.052
373.044
373.041
373.041
373.041
373.04
373.039
373.034
373.031
373.027
373.022
373.021
373.019
373.019
373.019
373.022
373.025
373.024
373.022
373.019
373.016
373.014
373.012
373.01
373.009
373.007
373.006
373.004
373.002
373
372.999
372.996
372.994
372.99
372.988
372.984
372.982
372.977
372.109
372.118
372.151
372.197
372.231
372.261
372.288
372.316
372.346
372.384
372.426
372.476
372.526
372.578
372.626
372.672
372.714
372.753
372.79
372.825
372.857
372.888
372.918
372.947
372.974
373.003
373.027
373.053
373.073
373.091
373.11
373.121
373.132
373.142
373.145
373.146
373.16
373.156
373.153
373.147
373.149
373.148
373.146
373.142
373.137
373.132
373.127
373.125
373.12
373.118
373.113
373.11
373.103
373.099
373.09
373.087
373.078
373.076
373.073
373.07
373.069
373.071
373.071
373.067
373.065
373.059
373.056
373.05
373.048
373.042
373.04
373.034
373.033
373.033
373.04
373.037
373.04
373.04
373.038
373.035
373.031
373.028
373.025
373.022
373.02
373.018
373.016
373.013
373.012
373.009
373.007
373.004
373.002
372.999
372.997
372.994
372.992
372.988
372.986
372.984
372.141
372.156
372.178
372.207
372.244
372.279
372.308
372.34
372.371
372.407
372.444
372.487
372.531
372.578
372.623
372.67
372.711
372.751
372.786
372.819
372.85
372.88
372.911
372.94
372.969
372.998
373.025
373.052
373.072
373.092
373.111
373.122
373.133
373.142
373.146
373.148
373.156
373.154
373.157
373.155
373.155
373.151
373.149
373.147
373.142
373.138
373.132
373.128
373.123
373.118
373.118
373.116
373.113
373.11
373.108
373.104
373.1
373.097
373.093
373.087
373.079
373.075
373.07
373.066
373.067
373.066
373.064
373.062
373.059
373.057
373.053
373.052
373.047
373.046
373.046
373.046
373.047
373.051
373.051
373.049
373.046
373.044
373.041
373.038
373.034
373.031
373.028
373.025
373.022
373.018
373.015
373.012
373.009
373.006
373.004
373.001
372.999
372.996
372.995
372.991
372.221
372.238
372.238
372.251
372.277
372.317
372.353
372.39
372.421
372.456
372.488
372.526
372.563
372.607
372.649
372.693
372.733
372.773
372.806
372.839
372.869
372.9
372.93
372.961
372.991
373.018
373.044
373.068
373.09
373.107
373.125
373.133
373.143
373.15
373.153
373.155
373.165
373.163
373.161
373.158
373.154
373.154
373.153
373.153
373.153
373.148
373.142
373.136
373.128
373.129
373.125
373.126
373.124
373.121
373.117
373.112
373.109
373.105
373.1
373.094
373.089
373.086
373.078
373.075
373.071
373.073
373.067
373.069
373.069
373.069
373.066
373.064
373.059
373.058
373.057
373.06
373.056
373.058
373.059
373.06
373.059
373.058
373.055
373.053
373.05
373.047
373.044
373.04
373.037
373.033
373.031
373.027
373.026
373.023
373.021
373.019
373.017
373.015
373.014
373.012
372.286
372.298
372.335
372.33
372.347
372.383
372.418
372.454
372.486
372.517
372.545
372.576
372.609
372.648
372.688
372.73
372.768
372.804
372.836
372.866
372.895
372.922
372.95
372.975
373.001
373.022
373.049
373.07
373.092
373.11
373.125
373.135
373.144
373.15
373.154
373.159
373.168
373.162
373.165
373.164
373.162
373.163
373.163
373.158
373.158
373.158
373.157
373.154
373.152
373.15
373.148
373.142
373.134
373.127
373.117
373.111
373.105
373.1
373.095
373.092
373.088
373.086
373.082
373.08
373.073
373.071
373.068
373.066
373.068
373.068
373.067
373.062
373.061
373.06
373.06
373.056
373.055
373.055
373.06
373.06
373.06
373.059
373.058
373.058
373.058
373.059
373.061
373.06
373.058
373.055
373.053
373.051
373.049
373.046
373.045
373.043
373.041
373.039
373.038
373.035
372.359
372.371
372.402
372.416
372.42
372.438
372.468
372.514
372.551
372.578
372.601
372.63
372.659
372.693
372.724
372.757
372.787
372.817
372.846
372.874
372.902
372.93
372.954
372.979
373.003
373.028
373.053
373.077
373.1
373.119
373.134
373.144
373.153
373.156
373.16
373.163
373.165
373.165
373.165
373.168
373.173
373.174
373.178
373.174
373.177
373.182
373.182
373.183
373.181
373.181
373.181
373.176
373.166
373.155
373.143
373.131
373.122
373.113
373.107
373.1
373.095
373.09
373.086
373.083
373.081
373.078
373.076
373.074
373.071
373.068
373.066
373.06
373.054
373.051
373.048
373.046
373.043
373.041
373.04
373.038
373.036
373.037
373.031
373.04
373.046
373.05
373.05
373.057
373.056
373.057
373.059
373.062
373.064
373.061
373.059
373.056
373.055
373.054
373.052
373.051
372.412
372.426
372.465
372.485
372.507
372.51
372.533
372.558
372.585
372.612
372.638
372.67
372.697
372.732
372.76
372.792
372.82
372.847
372.875
372.899
372.929
372.954
372.978
373.001
373.028
373.054
373.078
373.102
373.12
373.138
373.151
373.159
373.167
373.169
373.174
373.177
373.18
373.181
373.188
373.195
373.196
373.195
373.197
373.202
373.209
373.212
373.212
373.213
373.214
373.216
373.215
373.216
373.213
373.204
373.192
373.179
373.162
373.147
373.131
373.116
373.104
373.093
373.084
373.078
373.074
373.07
373.068
373.066
373.063
373.061
373.057
373.053
373.049
373.044
373.041
373.037
373.035
373.032
373.03
373.029
373.024
373.024
373.023
373.024
373.025
373.031
373.028
373.034
373.042
373.048
373.054
373.061
373.058
373.061
373.062
373.061
373.06
373.059
373.058
373.057
372.473
372.48
372.515
372.562
372.604
372.621
372.626
372.624
372.638
372.66
372.685
372.712
372.74
372.768
372.793
372.82
372.841
372.864
372.889
372.918
372.945
372.975
372.998
373.024
373.046
373.067
373.086
373.106
373.121
373.135
373.144
373.155
373.162
373.171
373.181
373.187
373.189
373.192
373.202
373.203
373.202
373.203
373.202
373.214
373.224
373.222
373.222
373.224
373.224
373.224
373.225
373.227
373.228
373.225
373.213
373.199
373.18
373.161
373.139
373.117
373.098
373.081
373.069
373.059
373.052
373.048
373.046
373.041
373.038
373.039
373.039
373.037
373.035
373.031
373.029
373.025
373.023
373.021
373.02
373.016
373.015
373.016
373.014
373.016
373.015
373.015
373.015
373.02
373.025
373.035
373.042
373.05
373.055
373.064
373.061
373.064
373.065
373.065
373.064
373.062
372.541
372.543
372.571
372.604
372.625
372.655
372.693
372.706
372.7
372.71
372.731
372.752
372.777
372.799
372.82
372.842
372.858
372.88
372.9
372.929
372.953
372.983
373.006
373.032
373.051
373.072
373.087
373.1
373.112
373.121
373.128
373.135
373.141
373.144
373.15
373.156
373.157
373.168
373.178
373.184
373.187
373.195
373.202
373.208
373.216
373.206
373.206
373.211
373.212
373.206
373.204
373.204
373.194
373.193
373.197
373.193
373.176
373.153
373.13
373.11
373.091
373.074
373.06
373.052
373.044
373.038
373.033
373.03
373.029
373.025
373.024
373.023
373.023
373.024
373.025
373.024
373.022
373.02
373.018
373.016
373.014
373.014
373.011
373.01
373.009
373.01
373.011
373.017
373.022
373.033
373.032
373.034
373.042
373.046
373.051
373.062
373.062
373.064
373.069
373.066
372.601
372.603
372.619
372.646
372.677
372.692
372.721
372.73
372.752
372.751
372.768
372.79
372.812
372.836
372.857
372.877
372.888
372.904
372.917
372.938
372.961
372.986
373.009
373.034
373.054
373.075
373.091
373.105
373.118
373.125
373.134
373.138
373.143
373.145
373.149
373.149
373.153
373.156
373.161
373.163
373.162
373.164
373.16
373.165
373.163
373.161
373.16
373.158
373.159
373.162
373.154
373.149
373.138
373.138
373.133
373.138
373.143
373.138
373.124
373.109
373.093
373.08
373.068
373.059
373.049
373.043
373.036
373.033
373.03
373.029
373.029
373.028
373.028
373.025
373.027
373.025
373.026
373.026
373.025
373.023
373.021
373.019
373.017
373.014
373.011
373.01
373.007
373.006
373.005
373.005
373.006
373.007
373.017
373.021
373.024
373.033
373.037
373.043
373.042
373.042
372.657
372.665
372.659
372.685
372.728
372.745
372.756
372.777
372.806
372.816
372.816
372.821
372.837
372.861
372.883
372.904
372.916
372.928
372.939
372.951
372.969
372.987
373.007
373.025
373.045
373.065
373.083
373.099
373.112
373.122
373.129
373.132
373.136
373.137
373.137
373.136
373.137
373.135
373.136
373.133
373.13
373.129
373.127
373.127
373.122
373.12
373.116
373.109
373.109
373.105
373.1
373.091
373.087
373.082
373.083
373.076
373.079
373.081
373.083
373.091
373.092
373.083
373.073
373.062
373.049
373.039
373.027
373.016
373.008
373.008
373.01
373.009
373.011
373.011
373.018
373.016
373.017
373.017
373.012
373.009
373.006
373.004
373.003
373.001
372.999
372.996
372.993
372.992
372.99
372.988
372.988
372.986
372.987
372.989
372.988
372.988
372.988
372.988
372.988
372.988
372.747
372.739
372.732
372.746
372.758
372.792
372.796
372.819
372.836
372.858
372.869
372.9
372.909
372.905
372.918
372.936
372.949
372.961
372.968
372.975
372.984
372.993
373.006
373.018
373.036
373.049
373.063
373.075
373.088
373.097
373.103
373.107
373.111
373.11
373.106
373.104
373.101
373.102
373.1
373.094
373.094
373.083
373.083
373.082
373.073
373.073
373.072
373.069
373.069
373.067
373.059
373.054
373.048
373.045
373.037
373.04
373.045
373.041
373.042
373.044
373.047
373.053
373.048
373.042
373.031
373.019
373.01
372.998
372.992
372.984
372.981
372.979
372.98
372.983
372.99
372.991
372.995
372.999
372.999
373
372.998
372.996
372.995
372.993
372.991
372.988
372.985
372.982
372.979
372.978
372.975
372.974
372.973
372.972
372.972
372.972
372.972
372.972
372.971
372.97
372.818
372.806
372.804
372.792
372.787
372.803
372.8
372.834
372.867
372.885
372.903
372.93
372.946
372.962
372.963
372.968
372.975
372.988
372.996
373.006
373.015
373.029
373.038
373.051
373.067
373.063
373.07
373.065
373.065
373.067
373.072
373.074
373.079
373.082
373.082
373.081
373.082
373.085
373.08
373.07
373.069
373.061
373.062
373.056
373.052
373.049
373.041
373.036
373.034
373.028
373.019
373.016
373.01
373.006
373.005
373
372.999
372.999
373.001
373
373.008
373.005
373.013
373.012
373.015
373.01
373.001
372.992
372.986
372.979
372.975
372.974
372.969
372.971
372.975
372.981
372.984
372.986
372.986
372.988
372.991
372.988
372.988
372.986
372.983
372.98
372.977
372.974
372.972
372.97
372.969
372.968
372.967
372.967
372.967
372.966
372.966
372.966
372.965
372.965
372.84
372.844
372.843
372.824
372.828
372.839
372.849
372.866
372.868
372.883
372.908
372.931
372.944
372.958
372.974
372.98
372.98
372.991
372.999
373.006
373.014
373.017
373.028
373.034
373.041
373.045
373.048
373.05
373.05
373.05
373.052
373.054
373.06
373.063
373.061
373.06
373.06
373.059
373.055
373.056
373.054
373.045
373.039
373.035
373.032
373.026
373.026
373.021
373.019
373.015
373.009
373.005
373.001
372.997
372.996
372.995
372.994
372.995
372.996
372.995
372.994
372.992
372.992
372.992
372.991
372.992
372.993
372.989
372.985
372.982
372.979
372.979
372.975
372.978
372.98
372.985
372.986
372.987
372.988
372.99
372.991
372.993
372.996
372.997
372.996
372.994
372.991
372.987
372.984
372.982
372.98
372.98
372.979
372.978
372.978
372.978
372.978
372.978
372.976
372.976
372.88
372.887
372.89
372.894
372.888
372.885
372.901
372.901
372.901
372.903
372.908
372.926
372.939
372.95
372.963
372.97
372.979
372.988
372.994
372.996
372.999
373.003
373.003
373.005
373.009
373.01
373.013
373.014
373.014
373.014
373.014
373.015
373.015
373.016
373.016
373.016
373.016
373.011
373.011
373.014
373.015
373.013
373.015
373.012
373.008
373.007
373.008
373.007
373.007
373.006
373.004
373
373.002
372.997
372.998
372.995
372.996
372.997
372.997
372.997
372.996
372.993
372.992
372.991
372.991
372.992
372.993
372.993
372.992
372.99
372.99
372.991
372.991
372.989
372.989
372.991
372.991
372.991
372.992
372.993
372.995
372.998
372.999
373
373
373.001
373.002
373.001
373
372.998
372.997
372.996
372.996
372.995
372.995
372.995
372.994
372.994
372.993
372.993
372.91
372.915
372.92
372.925
372.922
372.915
372.922
372.914
372.932
372.94
372.945
372.948
372.956
372.968
372.972
372.979
372.985
372.985
372.988
372.989
372.99
372.991
372.99
372.991
372.993
372.995
372.996
372.997
372.997
372.997
372.997
372.999
372.999
373
373.002
373.002
373.002
373.002
373.004
373.006
373.004
373.005
373.007
373.006
373.005
373.005
373.004
373.004
373.003
373.003
373.002
372.997
373
372.997
372.997
372.996
372.996
372.996
372.996
372.998
372.998
372.998
372.998
372.999
373
373.001
373.002
373.002
373.003
373.003
373.004
373.005
373.006
373.005
373.006
373.006
373.007
373.006
373.006
373.005
373.005
373.005
373.005
373.005
373.006
373.006
373.007
373.006
373.007
373.007
373.006
373.006
373.005
373.005
373.005
373.005
373.005
373.005
373.005
373.004
372.976
372.978
372.981
372.984
372.985
372.986
372.985
372.984
372.997
372.991
372.991
372.989
372.989
372.986
372.984
372.986
372.988
372.985
372.985
372.985
372.985
372.985
372.984
372.984
372.986
372.988
372.989
372.99
372.991
372.991
372.992
372.993
372.994
372.994
372.997
372.997
373
373.001
373.001
373.002
373.001
373.002
373.002
373.004
373.003
373.003
373.003
373.003
373.001
373.001
373.001
372.998
372.997
372.996
372.998
372.999
373
372.999
373
373.001
373.001
373.003
373.005
373.006
373.006
373.007
373.007
373.008
373.009
373.01
373.011
373.012
373.012
373.012
373.012
373.011
373.011
373.01
373.01
373.009
373.01
373.009
373.01
373.01
373.011
373.011
373.012
373.012
373.012
373.012
373.012
373.012
373.011
373.01
373.01
373.01
373.01
373.009
373.009
373.009
371.916
371.905
371.881
371.848
371.876
371.973
371.981
371.975
371.922
371.809
372.046
371.981
371.967
371.925
371.919
371.97
372.013
372.025
372.025
371.925
372.095
372.046
372.034
372.036
372.021
372.024
372.034
372.043
372.06
372.018
372.153
372.142
372.128
372.126
372.088
372.076
372.069
372.071
372.084
372.068
372.245
372.24
372.213
372.202
372.185
372.149
372.139
372.107
372.109
372.098
372.323
372.316
372.29
372.265
372.259
372.227
372.216
372.192
372.164
372.131
372.398
372.385
372.365
372.337
372.33
372.302
372.291
372.265
372.249
372.196
372.46
372.446
372.431
372.402
372.396
372.372
372.362
372.333
372.321
372.269
372.515
372.495
372.486
372.457
372.45
372.432
372.422
372.394
372.384
372.342
372.569
372.546
372.537
372.512
372.506
372.487
372.478
372.451
372.442
372.401
372.618
372.596
372.583
372.562
372.556
372.54
372.534
372.514
372.508
372.467
372.669
372.65
372.643
372.619
372.611
372.595
372.588
372.57
372.567
372.537
372.712
372.691
372.686
372.67
372.659
372.652
372.648
372.628
372.624
372.602
372.76
372.742
372.728
372.724
372.709
372.698
372.695
372.679
372.677
372.663
372.797
372.792
372.775
372.773
372.767
372.754
372.751
372.74
372.744
372.729
372.833
372.829
372.825
372.817
372.815
372.804
372.801
372.785
372.785
372.777
372.873
372.871
372.865
372.861
372.866
372.843
372.836
372.819
372.82
372.821
372.904
372.901
372.909
372.902
372.915
372.894
372.886
372.88
372.879
372.876
372.934
372.93
372.933
372.932
372.936
372.928
372.926
372.927
372.912
372.905
372.992
372.989
372.981
372.988
372.985
372.985
372.984
372.99
372.982
372.976
373.345
373.395
373.352
373.225
373.079
372.905
372.599
372.254
371.655
370.987
373.076
373.073
373.01
372.867
372.661
372.473
372.149
371.584
370.849
370.171
372.77
372.763
372.704
372.563
372.257
371.954
371.558
371.025
370.163
369.561
372.514
372.459
372.34
372.173
371.963
371.647
371.152
370.551
369.574
368.904
372.307
372.273
372.16
371.918
371.555
371.247
370.706
370.01
369.04
368.645
372.043
371.963
371.896
371.713
371.345
371.068
370.603
369.81
368.829
368.005
371.936
371.784
371.689
371.52
371.136
370.694
370.194
369.661
368.616
368.081
371.884
371.721
371.496
371.359
371.054
370.658
370.083
369.538
368.757
368.343
371.737
371.708
371.545
371.383
371.099
370.703
370.18
369.53
368.751
368.665
371.733
371.677
371.54
371.392
371.108
370.761
370.18
369.74
369.169
369.645
375.299
375.486
375.628
375.851
376.021
376.285
376.474
376.767
376.944
377.001
375.269
375.442
375.58
375.779
375.941
376.171
376.352
376.594
376.784
376.791
375.2
375.371
375.518
375.702
375.865
376.073
376.246
376.452
376.604
376.614
375.065
375.21
375.364
375.529
375.686
375.861
376.007
376.188
376.245
376.159
374.89
375.04
375.141
375.321
375.442
375.622
375.697
375.784
375.775
375.677
374.71
374.769
374.892
374.979
375.086
375.208
375.329
375.348
375.261
375.04
374.546
374.576
374.634
374.727
374.76
374.83
374.818
374.764
374.643
374.324
374.269
374.266
374.305
374.35
374.336
374.343
374.341
374.22
373.963
373.521
374.031
374.076
374
374.003
373.954
373.87
373.739
373.559
373.197
372.685
373.659
373.744
373.683
373.581
373.537
373.425
373.249
372.911
372.414
371.808
373
373
373
373
373
373
373
373.001
373
373.001
373.001
373.001
373.001
373.001
373.001
373.002
373.002
373.002
373.003
373.003
373.003
373.004
373.004
373.005
373.005
373.006
373.006
373.007
373.007
373.008
373.009
373.01
373.011
373.012
373.013
373.014
373.015
373.017
373.018
373.02
373.021
373.023
373.024
373.027
373.029
373.032
373.033
373.037
373.039
373.043
373.045
373.05
373.053
373.058
373.062
373.068
373.072
373.079
373.083
373.092
373.097
373.106
373.112
373.123
373.13
373.143
373.151
373.165
373.175
373.192
373.203
373.222
373.235
373.257
373.272
373.298
373.315
373.345
373.364
373.399
373.422
373.463
373.489
373.538
373.568
373.626
373.661
373.73
373.772
373.855
373.906
374.006
374.069
374.193
374.272
374.43
374.532
374.735
374.877
375.138
373
373
373
373
373
373
373
373.001
373.001
373.001
373.001
373.001
373.001
373.001
373.001
373.002
373.002
373.002
373.003
373.003
373.003
373.004
373.004
373.005
373.005