/*--------------------------------*- C++ -*----------------------------------*\
  =========                 |
  \\      /  F ield         | OpenFOAM: The Open Source CFD Toolbox
   \\    /   O peration     | Website:  https://openfoam.org
    \\  /    A nd           | Version:  8
     \\/     M anipulation  |
\*---------------------------------------------------------------------------*/
FoamFile
{
    version     2.0;
    format      ascii;
    class       volVectorField;
    location    "20.000098150058701";
    object      U;
}
// * * * * * * * * * * * * * * * * * * * * * * * * * * * * * * * * * * * * * //

dimensions      [0 1 -1 0 0 0 0];

internalField   nonuniform List<vector> 
6800
(
(-28.0544 19.3159 -3.42207e-15)
(2.88576 -0.343707 0)
(35.3422 -2.21689 2.84353e-15)
(69.8568 -0.91151 -2.74975e-15)
(110.673 1.38198 -4.43601e-19)
(134.918 2.91863 -2.55419e-19)
(143.829 4.20012 -1.27078e-15)
(146.738 5.19206 1.18148e-15)
(147.755 5.13712 0)
(147.662 4.66736 -5.14596e-16)
(-30.8132 15.352 9.14367e-15)
(34.0933 -3.41695 -2.09869e-15)
(67.9234 -1.5209 0)
(114.075 1.37691 0)
(138.965 4.51911 0)
(145.942 5.78171 6.82009e-16)
(148.126 6.16661 -6.52782e-16)
(148.478 6.26256 1.38833e-15)
(148.246 6.14714 5.5123e-16)
(147.79 5.45699 -7.50928e-16)
(-35.3283 14.4903 -4.93422e-15)
(65.3812 -5.18891 -1.96865e-15)
(112.515 3.56138 0)
(139.207 4.19928 -1.52694e-15)
(147.618 6.35562 -6.8496e-16)
(149.439 6.88188 -4.56193e-19)
(149.413 7.24854 1.27042e-15)
(148.903 7.15028 -1.20713e-15)
(148.106 6.9688 1.14966e-15)
(146.364 7.34133 -1.04619e-15)
(-4.90532 11.9681 5.77185e-15)
(95.5386 -3.68558 -5.59978e-18)
(138.858 9.39886 0)
(147.5 6.28915 7.29988e-16)
(150.341 7.76132 -2.09039e-19)
(150.349 8.21449 9.5611e-16)
(149.84 8.02193 0)
(148.468 8.54567 1.03925e-15)
(147.069 8.07295 4.0743e-19)
(145.84 8.15471 0)
(30.91 46.4738 1.59793e-15)
(125.443 -0.769363 4.5768e-16)
(147.653 13.7095 4.02263e-16)
(150.848 8.40245 7.15935e-16)
(151.203 9.55271 -4.14032e-16)
(150.873 9.25986 2.98506e-16)
(149.499 10.0153 -4.83055e-16)
(148.017 9.191 1.24111e-15)
(146.82 9.30319 -1.47322e-15)
(145.774 8.90886 -2.13693e-15)
(92.8849 28.1697 -1.93752e-15)
(134.299 -11.7185 4.31193e-16)
(150.635 11.4466 -3.85036e-16)
(152.291 7.17682 4.16336e-16)
(151.828 9.30604 -9.15234e-16)
(151.087 9.66433 7.04984e-16)
(149.393 10.2656 0)
(148.012 10.8733 -6.75102e-16)
(146.843 10.5052 3.15773e-16)
(145.981 11.6186 2.98042e-16)
(103.694 23.3438 0)
(144.789 -12.6767 4.1554e-16)
(155.629 12.2356 4.22957e-16)
(155.916 8.39513 5.59635e-20)
(153.429 12.253 -3.1953e-16)
(152.027 11.0519 3.56582e-16)
(150.001 13.0547 3.53603e-16)
(148.647 12.6489 3.09798e-16)
(147.5 12.5488 -1.24886e-15)
(146.148 13.2556 1.13815e-15)
(138.42 23.3319 2.79121e-16)
(158.221 -14.8919 -4.05448e-16)
(159.424 13.1965 -4.17377e-16)
(158.875 7.56684 -5.37233e-16)
(154.508 13.5485 9.96942e-16)
(153.149 12.3988 -3.02476e-16)
(150.923 14.5689 -2.70857e-16)
(149.093 14.4557 3.18562e-16)
(147.673 14.1971 -6.11416e-16)
(146.245 15.3398 -4.39851e-16)
(147.387 28.4505 -1.19588e-16)
(165.256 -8.91659 9.67725e-17)
(164.05 17.021 0)
(162.337 10.4354 1.79354e-16)
(156.668 17.1237 0)
(154.265 14.5166 -3.72743e-16)
(151.227 16.458 3.87831e-16)
(149.366 16.2405 0)
(147.935 15.9772 -9.44865e-17)
(146.488 16.9841 2.51319e-16)
(169.05 37.1069 0)
(176.26 -6.07459 -1.03239e-16)
(168.474 23.8549 -3.73808e-17)
(164.186 13.5883 4.56854e-17)
(157.688 20.8193 1.6102e-31)
(154.914 18.1224 -8.34193e-17)
(151.251 19.9583 1.00586e-16)
(149.352 18.6936 1.394e-16)
(147.95 18.1193 1.67459e-16)
(146.485 19.3481 -3.00399e-16)
(-5.93064 2.69506 0)
(-8.84614 1.88911 -2.49842e-16)
(-11.6604 1.46041 0)
(-14.1893 1.20364 0)
(-16.1472 1.0579 0)
(-17.7452 0.948786 1.20637e-16)
(-19.0805 0.854407 -1.18589e-16)
(-20.1846 0.756334 -1.16725e-16)
(-21.0652 0.655826 2.29117e-16)
(-21.7441 0.559918 1.47076e-20)
(-6.02777 6.90996 1.11213e-15)
(-8.78484 5.26332 3.61416e-16)
(-11.3633 4.15853 0)
(-13.5933 3.50011 3.75087e-16)
(-15.2977 3.04218 0)
(-16.6277 2.71287 -1.6271e-16)
(-17.6735 2.42652 1.57828e-16)
(-18.4603 2.1213 0)
(-18.9536 1.80086 -1.4855e-16)
(-19.1561 1.47246 4.44862e-16)
(-6.74935 10.9872 -1.61752e-15)
(-8.75094 8.48187 -1.48712e-15)
(-10.7826 6.65784 9.43591e-16)
(-12.3882 5.59896 -1.1887e-15)
(-13.5095 4.87531 -7.28858e-16)
(-14.2731 4.31373 6.49879e-16)
(-14.6641 3.86502 6.5544e-20)
(-14.7854 3.30066 -1.35369e-15)
(-14.4709 2.6789 2.65832e-15)
(-13.5869 2.06143 -1.10874e-15)
(-7.74609 14.7113 0)
(-8.84981 10.9203 1.59945e-15)
(-9.84748 8.73571 -1.01497e-15)
(-10.5778 7.30054 1.71737e-15)
(-10.8177 6.34272 -7.98951e-16)
(-10.6693 5.60006 7.79703e-16)
(-10.129 4.90485 7.76524e-16)
(-9.1959 4.06768 7.78641e-16)
(-7.60683 3.00886 1.77919e-19)
(-4.76561 1.95124 -8.37502e-16)
(-8.68303 17.4171 3.99647e-19)
(-8.80842 12.6509 -1.8107e-15)
(-8.57181 10.1643 1.03993e-15)
(-8.19327 8.44574 -9.62671e-16)
(-7.18929 7.269 9.12553e-16)
(-5.6673 6.3724 -1.82143e-15)
(-3.55744 5.53586 0)
(-1.15359 4.47168 -1.88903e-15)
(2.26256 2.79904 9.459e-16)
(8.58002 1.12173 4.71971e-15)
(-10.0146 18.9401 2.78579e-15)
(-8.90035 13.4522 5.95369e-15)
(-7.37729 10.6439 -1.08133e-15)
(-5.38785 8.73139 -2.25408e-15)
(-2.57375 7.36557 5.54299e-15)
(1.12059 6.38441 -3.21622e-15)
(5.15151 5.61082 0)
(10.5502 4.56011 -1.08672e-15)
(17.4407 2.13582 -1.98845e-19)
(31.2121 -0.306538 -9.34798e-16)
(-11.0955 19.8471 5.49978e-15)
(-9.52562 13.0496 -6.26354e-19)
(-6.15984 10.1714 0)
(-1.86363 7.92304 2.83878e-15)
(4.0584 6.38293 5.32592e-15)
(10.3965 5.56494 -2.55934e-15)
(19.2216 4.60256 0)
(30.9819 3.96576 -4.4156e-15)
(43.0461 1.0318 8.5474e-15)
(66.5468 -0.772814 0)
(-13.4782 19.7642 -5.32816e-15)
(-10.4823 11.605 -6.39876e-15)
(-4.41833 8.38302 3.63568e-15)
(4.57487 5.73121 4.80183e-19)
(14.1673 4.44497 -6.29412e-15)
(27.0319 3.7023 0)
(43.3306 2.05397 -2.02153e-15)
(64.6101 2.55952 0)
(80.9044 -0.232275 -2.17969e-15)
(110.576 -0.730571 1.83461e-15)
(-16.6384 20.333 2.56873e-15)
(-11.3248 8.90037 0)
(1.51841 5.00672 0)
(15.7339 2.66344 0)
(33.375 1.8308 0)
(55.3533 2.00856 1.61452e-15)
(81.553 1.09025 3.33538e-15)
(107.556 0.855101 -1.54484e-15)
(127.745 -0.552415 -1.8427e-15)
(140.125 1.08261 2.38797e-15)
(-21.1145 20.0795 -3.6581e-15)
(-10.1861 4.95432 0)
(14.924 0.832905 -4.16175e-15)
(36.7193 -0.163752 5.08807e-15)
(65.145 0.828649 1.48618e-19)
(97.8113 1.18367 -1.88331e-15)
(126.367 1.10065 1.38358e-15)
(139.012 2.02614 -1.24977e-15)
(144.642 2.83547 0)
(146.86 3.88317 -5.91159e-16)
(-22.5459 0.42902 -1.00044e-16)
(-23.2638 0.22007 0)
(-23.5001 0.0673743 0)
(-23.4109 -0.0961973 0)
(-22.9464 -0.244488 0)
(-22.1731 -0.379498 0)
(-21.1008 -0.504305 -2.73335e-18)
(-19.7654 -0.614181 8.58945e-17)
(-18.1834 -0.714905 -8.17167e-17)
(-16.3733 -0.810137 0)
(-14.3592 -0.895358 2.56043e-18)
(-12.1552 -0.978704 2.52893e-18)
(-9.78251 -1.05924 2.48244e-18)
(-7.28584 -1.11485 2.45894e-18)
(-4.64825 -1.15199 2.42254e-18)
(-1.99482 -1.17928 0)
(0.854272 -1.21903 -7.47216e-17)
(3.70673 -1.24489 2.33618e-18)
(6.64894 -1.26802 7.94623e-17)
(9.62004 -1.27846 2.40953e-18)
(12.5973 -1.27951 0)
(15.5715 -1.27409 2.40827e-18)
(18.5265 -1.26258 -7.47693e-17)
(21.4497 -1.24541 7.97334e-17)
(24.3289 -1.22294 2.42426e-18)
(27.153 -1.19571 -7.54583e-17)
(29.9116 -1.16421 7.82257e-17)
(32.5957 -1.1292 2.4573e-18)
(35.1977 -1.09137 2.47077e-18)
(37.7117 -1.05156 -7.70389e-17)
(40.1336 -1.01057 8.24865e-17)
(42.461 -0.969142 2.51466e-18)
(44.6929 -0.927893 2.52982e-18)
(46.8302 -0.887427 -7.88986e-17)
(48.875 -0.84819 8.19383e-17)
(50.8305 -0.810564 -8.50039e-17)
(52.7006 -0.774817 8.2924e-17)
(54.4898 -0.740924 0)
(56.2027 -0.709004 0)
(57.8436 -0.678675 8.4384e-17)
(59.4161 -0.649874 -8.488e-17)
(60.9236 -0.622552 -8.8029e-17)
(62.3694 -0.596515 8.58618e-17)
(63.7562 -0.571625 -8.63474e-17)
(65.0866 -0.547913 8.41399e-17)
(66.3633 -0.525285 0)
(67.5888 -0.503671 -2.74537e-18)
(68.7652 -0.482835 0)
(69.8941 -0.462669 -2.77692e-18)
(70.9768 -0.443119 0)
(72.0148 -0.424239 0)
(73.0094 -0.40603 0)
(73.9622 -0.38855 -2.83974e-18)
(74.8749 -0.371816 0)
(75.7493 -0.355852 4.30539e-17)
(76.587 -0.340695 -4.61689e-17)
(77.3899 -0.326316 0)
(78.16 -0.312692 -2.91475e-18)
(78.8987 -0.299794 0)
(79.6079 -0.287613 -2.94304e-18)
(80.2892 -0.27613 0)
(80.9441 -0.265314 0)
(81.5742 -0.255141 0)
(82.181 -0.24555 -4.79431e-17)
(82.7658 -0.236516 4.81507e-17)
(83.3298 -0.227974 -3.02187e-18)
(83.8742 -0.219894 0)
(84.3999 -0.212232 0)
(84.9079 -0.204951 -3.05829e-18)
(85.3991 -0.198035 -4.91194e-17)
(85.8742 -0.191448 4.62255e-17)
(86.3341 -0.185173 4.94871e-17)
(86.7794 -0.179193 -5.27734e-17)
(87.2109 -0.173508 0)
(87.6292 -0.1681 0)
(88.0349 -0.162976 0)
(88.4288 -0.158121 -3.11167e-18)
(88.8115 -0.153538 2.48593e-17)
(89.1837 -0.149209 -2.48283e-17)
(89.5458 -0.145128 2.47973e-17)
(89.8985 -0.141272 -2.16734e-17)
(90.2423 -0.137629 0)
(90.5777 -0.134178 -2.47161e-17)
(90.9051 -0.130899 4.93842e-17)
(91.2248 -0.127774 -2.15858e-17)
(91.5374 -0.124785 0)
(91.8429 -0.121914 0)
(92.1419 -0.119147 0)
(92.4342 -0.116475 0)
(92.7208 -0.11388 3.07135e-18)
(93.0003 -0.111376 0)
(93.2759 -0.108911 -1.2269e-17)
(93.5424 -0.106576 2.84484e-22)
(93.8094 -0.104188 9.19087e-18)
(94.0605 -0.102082 0)
(94.325 -0.099635 -6.12034e-18)
(94.5516 -0.097944 3.05925e-18)
(94.8308 -0.0950629 6.1146e-18)
(95.003 -0.0943871 0)
(95.3604 -0.0883852 0)
(-19.4194 1.13024 3.77147e-18)
(-19.9055 0.602565 -8.2595e-18)
(-19.8881 0.0782828 -5.85398e-16)
(-19.5405 -0.375955 5.60357e-16)
(-18.8824 -0.807316 0)
(-17.9356 -1.2037 0)
(-16.7174 -1.57268 1.21449e-17)
(-15.2811 -1.90206 0)
(-13.6092 -2.2032 -3.86574e-18)
(-11.733 -2.48359 7.59359e-18)
(-9.68731 -2.7219 -3.73745e-18)
(-7.47601 -2.92226 -3.68583e-18)
(-5.26295 -3.07879 -3.66127e-18)
(-2.76715 -3.26177 -3.595e-18)
(-0.153591 -3.40454 3.57285e-18)
(2.61509 -3.55097 0)
(5.41013 -3.6573 4.5789e-16)
(8.26816 -3.72912 -4.58306e-16)
(11.1517 -3.78282 -3.60043e-18)
(14.048 -3.80741 -3.59457e-18)
(16.9455 -3.80757 0)
(19.8318 -3.78894 3.59407e-18)
(22.6935 -3.7529 -4.64499e-16)
(25.5195 -3.70099 9.20315e-16)
(28.2991 -3.63415 -4.6711e-16)
(31.0228 -3.55378 -1.09111e-17)
(33.6813 -3.4611 0)
(36.2663 -3.35814 -3.67384e-18)
(38.7708 -3.2467 -3.69432e-18)
(41.189 -3.12896 4.79339e-16)
(43.5168 -3.00704 -4.75094e-16)
(45.7517 -2.88304 -2.35244e-16)
(47.8929 -2.75908 4.59298e-16)
(49.9409 -2.63706 -3.50876e-18)
(51.8978 -2.51857 -2.21268e-16)
(53.7667 -2.40495 3.41177e-18)
(55.5521 -2.29735 0)
(57.2586 -2.19559 0)
(58.8912 -2.10003 2.10869e-16)
(60.4544 -2.00939 -2.08752e-16)
(61.9514 -1.92338 -2.06752e-16)
(63.3858 -1.84205 4.13045e-16)
(64.7612 -1.76475 -2.08927e-20)
(66.0799 -1.69088 -2.01633e-16)
(67.3447 -1.62059 3.12727e-18)
(68.5581 -1.55366 0)
(69.7228 -1.48996 2.00563e-16)
(70.8411 -1.42862 -2.0244e-16)
(71.9143 -1.36919 -1.92126e-16)
(72.9435 -1.31148 1.94164e-16)
(73.93 -1.25567 0)
(74.875 -1.20176 -1.92289e-16)
(75.7801 -1.14997 1.94468e-16)
(76.6467 -1.10033 -1.90681e-16)
(77.4766 -1.05296 1.92943e-16)
(78.2714 -1.00798 0)
(79.0331 -0.965311 -1.88649e-16)
(79.7633 -0.924883 3.79067e-16)
(80.4636 -0.886608 -1.87516e-16)
(81.1357 -0.85047 2.92167e-18)
(81.7812 -0.816424 0)
(82.4017 -0.784371 0)
(82.9986 -0.754249 0)
(83.5733 -0.725863 0)
(84.1272 -0.699148 0)
(84.6614 -0.673888 2.88209e-18)
(85.177 -0.650005 0)
(85.675 -0.627355 9.18935e-17)
(86.1561 -0.605835 -8.88803e-17)
(86.6213 -0.585399 -9.16001e-17)
(87.0714 -0.565933 2.86288e-18)
(87.507 -0.547393 9.13441e-17)
(87.9288 -0.529725 9.40716e-17)
(88.3375 -0.512936 -3.9217e-21)
(88.7337 -0.496978 -9.10076e-17)
(89.1182 -0.481866 0)
(89.4915 -0.467555 9.36497e-17)
(89.8542 -0.454052 -3.28838e-21)
(90.207 -0.441296 -8.49798e-17)
(90.5504 -0.429274 -9.62249e-17)
(90.885 -0.417914 8.76668e-17)
(91.2112 -0.407178 -5.08633e-17)
(91.5294 -0.396999 3.95335e-17)
(91.8401 -0.387325 -5.07933e-17)
(92.1437 -0.378099 -2.81886e-18)
(92.4404 -0.369265 3.94591e-17)
(92.7304 -0.360781 5.63383e-18)
(93.0144 -0.352592 3.94158e-17)
(93.2918 -0.344692 -4.50263e-17)
(93.564 -0.337003 -4.78171e-17)
(93.8293 -0.329606 4.4987e-17)
(94.0911 -0.322291 1.68625e-17)
(94.3441 -0.315426 -5.20692e-22)
(94.5979 -0.308308 -2.52754e-17)
(94.8361 -0.302191 5.61541e-18)
(95.0878 -0.294827 -5.61288e-18)
(95.3027 -0.290035 1.12243e-17)
(95.5687 -0.28132 -1.96342e-17)
(95.7331 -0.278846 5.66588e-18)
(96.0734 -0.264788 -7.1061e-18)
(-12.9374 1.39443 -1.21274e-15)
(-13.067 0.615039 2.77777e-17)
(-12.4795 -0.188414 2.8936e-17)
(-11.6792 -0.911364 1.18724e-15)
(-10.6643 -1.56978 -1.12679e-15)
(-9.46908 -2.15668 -1.08994e-15)
(-8.10604 -2.67583 1.07905e-15)
(-6.73507 -3.1619 1.6593e-17)
(-4.96288 -3.67066 1.05075e-15)
(-3.00244 -4.11893 -9.91485e-16)
(-0.914717 -4.49601 1.54299e-17)
(1.39628 -4.83493 1.53523e-17)
(3.93298 -5.17785 1.01052e-15)
(6.48564 -5.4753 -9.89222e-16)
(9.10516 -5.71241 9.90555e-16)
(11.7926 -5.9036 9.1548e-19)
(14.5133 -6.04543 -9.5667e-16)
(17.2634 -6.14399 -7.57095e-18)
(20.0225 -6.20684 0)
(22.7788 -6.23273 0)
(25.5215 -6.22438 0)
(28.2405 -6.18676 7.55706e-18)
(30.9259 -6.12258 -4.84894e-16)
(33.5691 -6.03432 5.0139e-16)
(36.1608 -5.92283 -1.52577e-17)
(38.6925 -5.78995 7.66517e-18)
(41.1557 -5.63728 5.08552e-16)
(43.5434 -5.46783 -4.84572e-16)
(45.8498 -5.28431 -4.60564e-16)
(48.07 -5.09035 -7.35106e-18)
(50.2012 -4.88943 4.59146e-16)
(52.2421 -4.68515 4.5205e-16)
(54.1931 -4.48102 -8.97934e-16)
(56.0557 -4.28008 4.39451e-16)
(57.8325 -4.08503 4.47436e-16)
(59.5268 -3.89802 -8.70881e-16)
(61.1437 -3.72169 4.23999e-16)
(62.6877 -3.55527 -4.32682e-16)
(64.1642 -3.39947 4.285e-16)
(65.5774 -3.25167 -1.28658e-17)
(66.9296 -3.11127 0)
(68.2243 -2.97897 0)
(69.4652 -2.85334 0)
(70.6541 -2.73318 0)
(71.7931 -2.6189 0)
(72.8849 -2.51023 0)
(73.9322 -2.40725 -1.22388e-17)
(74.9374 -2.30806 1.82578e-17)
(75.9014 -2.2118 3.75373e-16)
(76.8249 -2.11818 -3.85658e-16)
(77.7091 -2.02767 -3.83879e-16)
(78.5554 -1.94016 3.82294e-16)
(79.365 -1.85613 -3.8074e-16)
(80.1396 -1.77559 3.7936e-16)
(80.8807 -1.69874 0)
(81.59 -1.62589 0)
(82.2693 -1.55681 0)
(82.9203 -1.4914 0)
(83.5445 -1.42947 -1.16716e-17)
(84.1433 -1.37105 0)
(84.7183 -1.31606 1.85807e-16)
(85.2709 -1.26433 -1.85396e-16)
(85.8025 -1.21579 0)
(86.3144 -1.17003 0)
(86.8078 -1.12702 0)
(87.2838 -1.08633 0)
(87.7431 -1.04788 0)
(88.1867 -1.01139 1.71848e-16)
(88.6154 -0.976724 -9.79385e-21)
(89.0299 -0.943828 -3.76953e-16)
(89.4308 -0.912482 1.93927e-16)
(89.8189 -0.882639 0)
(90.1948 -0.854203 -1.13787e-17)
(90.559 -0.82721 0)
(90.9122 -0.801564 1.81651e-16)
(91.2549 -0.777309 -1.81473e-16)
(91.5879 -0.754345 -1.1331e-17)
(91.9115 -0.732701 -7.92437e-17)
(92.2264 -0.712252 7.3524e-17)
(92.5331 -0.692988 1.69531e-17)
(92.8321 -0.674772 -1.01641e-16)
(93.1236 -0.657554 9.59288e-17)
(93.4082 -0.641215 1.69171e-17)
(93.6862 -0.625673 5.6355e-18)
(93.9578 -0.610844 0)
(94.2234 -0.596627 -5.62903e-18)
(94.483 -0.582969 5.62611e-18)
(94.7372 -0.56977 9.55957e-17)
(94.9857 -0.557054 -1.01175e-16)
(95.2295 -0.544645 -4.49457e-17)
(95.4671 -0.532764 3.36971e-17)
(95.7018 -0.520942 -3.92957e-17)
(95.9283 -0.509985 5.61202e-17)
(96.1563 -0.49844 -5.60962e-18)
(96.3695 -0.488824 5.60835e-18)
(96.5963 -0.476808 -1.68173e-17)
(96.7885 -0.469464 1.12104e-17)
(97.029 -0.455384 1.12054e-17)
(97.1767 -0.451 -5.66445e-18)
(97.4845 -0.432826 1.43067e-17)
(-2.80235 1.13838 -1.4195e-15)
(-2.37568 0.148178 -2.30021e-17)
(-1.26616 -0.791441 1.3279e-15)
(-0.0354414 -1.69558 0)
(1.31517 -2.51042 -2.56817e-21)
(2.80918 -3.2428 1.17725e-15)
(4.47732 -3.92466 -1.70574e-17)
(6.52049 -4.61086 -1.17106e-15)
(8.53196 -5.27558 1.11067e-15)
(10.6492 -5.86276 -1.1222e-15)
(12.8579 -6.38501 -1.69814e-17)
(15.1716 -6.86172 1.05523e-15)
(17.5888 -7.27658 -2.13648e-15)
(20.0669 -7.62536 1.05051e-15)
(22.5997 -7.9154 -1.6315e-17)
(25.1682 -8.14715 -1.02306e-15)
(27.7486 -8.31637 1.01851e-15)
(30.3295 -8.42874 0)
(32.9 -8.49035 -1.03307e-15)
(35.4473 -8.5056 1.03294e-15)
(37.9608 -8.47713 1.03539e-15)
(40.4349 -8.41123 -1.0538e-15)
(42.8631 -8.31041 0)
(45.2387 -8.17886 -1.55515e-17)
(47.5542 -8.01718 1.52338e-17)
(49.8023 -7.82832 1.49407e-17)
(51.9762 -7.61338 -1.46751e-17)
(54.0707 -7.37636 0)
(56.0819 -7.12104 -1.42039e-17)
(58.0075 -6.85257 0)
(59.8471 -6.57588 8.83475e-16)
(61.6017 -6.29579 -8.72074e-16)
(63.2735 -6.01701 0)
(64.8655 -5.74307 -8.38553e-16)
(66.3808 -5.47769 8.29684e-16)
(67.8227 -5.22285 1.3039e-17)
(69.1971 -4.98436 0)
(70.5082 -4.75985 1.28049e-17)
(71.7623 -4.55043 -5.21656e-22)
(72.9623 -4.35152 1.26025e-17)
(74.1089 -4.16158 4.00354e-16)
(75.2053 -3.98371 -3.84425e-20)
(76.2556 -3.81476 -3.95163e-16)
(77.2603 -3.6526 -3.80498e-16)
(78.2209 -3.49824 3.90621e-16)
(79.1395 -3.35169 0)
(80.0196 -3.21376 1.20824e-17)
(80.8635 -3.0808 -1.20263e-17)
(81.6715 -2.95138 1.19737e-17)
(82.4438 -2.82529 3.6964e-16)
(83.1815 -2.70357 -3.84511e-20)
(83.886 -2.58583 -3.90584e-16)
(84.5586 -2.47298 0)
(85.201 -2.36483 1.17567e-17)
(85.8145 -2.26173 -3.75062e-16)
(86.4009 -2.16428 3.74023e-16)
(86.9621 -2.07196 3.72981e-16)
(87.4996 -1.9846 -3.72065e-16)
(88.0146 -1.90194 2.31974e-17)
(88.5083 -1.82403 0)
(88.9823 -1.75081 0)
(89.4377 -1.68198 0)
(89.8761 -1.6175 -1.15027e-17)
(90.2982 -1.5567 -3.55934e-16)
(90.7052 -1.49965 3.66815e-16)
(91.0978 -1.44558 -1.14441e-17)
(91.4768 -1.39454 3.65647e-16)
(91.8428 -1.34605 -7.18855e-16)
(92.1964 -1.29997 5.35565e-16)
(92.5383 -1.2563 -9.20483e-21)
(92.8691 -1.21466 -1.93233e-16)
(93.1893 -1.17504 1.70296e-16)
(93.4994 -1.13729 -1.58778e-16)
(93.7999 -1.10151 1.81267e-16)
(94.0915 -1.06752 -3.6219e-16)
(94.3745 -1.03544 7.08261e-21)
(94.6496 -1.00507 1.13052e-17)
(94.9172 -0.976497 1.58052e-16)
(95.1778 -0.949481 4.83618e-23)
(95.4318 -0.924062 -2.25448e-17)
(95.6795 -0.899991 4.35616e-23)
(95.9213 -0.877246 0)
(96.1574 -0.855627 1.57508e-16)
(96.3882 -0.835043 -1.01203e-16)
(96.6138 -0.815389 -1.01147e-16)
(96.8345 -0.79652 1.12327e-17)
(97.0503 -0.778391 -2.24546e-17)
(97.2618 -0.760843 -1.12221e-17)
(97.4684 -0.743973 8.97386e-17)
(97.6714 -0.727466 -8.97028e-17)
(97.8691 -0.71175 8.9668e-17)
(98.0649 -0.696012 -1.45654e-16)
(98.2534 -0.681625 -2.24004e-17)
(98.4442 -0.666243 1.00765e-16)
(98.6216 -0.653796 -2.23883e-17)
(98.8124 -0.637818 -6.71318e-17)
(98.9724 -0.628508 2.2374e-17)
(99.1759 -0.610198 -1.66065e-22)
(99.2994 -0.604621 -1.13329e-17)
(99.5608 -0.582565 -2.88508e-17)
(11.7174 0.234688 -6.58187e-15)
(13.1579 -0.785269 3.45633e-15)
(14.8393 -1.80706 1.62286e-15)
(16.6083 -2.79882 -1.47648e-15)
(18.4103 -3.73128 -2.22704e-17)
(20.2421 -4.59298 1.38831e-15)
(22.1745 -5.45326 -2.63868e-15)
(24.2228 -6.22402 1.27955e-15)
(26.3071 -6.93952 0)
(28.4344 -7.58795 0)
(30.6157 -8.17449 0)
(32.8484 -8.717 1.83652e-17)
(35.1287 -9.20188 1.8125e-17)
(37.443 -9.60713 1.79329e-17)
(39.7784 -9.93398 1.77763e-17)
(42.121 -10.1892 -1.10567e-15)
(44.4522 -10.3698 1.58297e-17)
(46.7648 -10.4814 1.06356e-15)
(49.0467 -10.5311 1.5978e-17)
(51.2895 -10.5279 1.56223e-17)
(53.4857 -10.474 1.53013e-17)
(55.6335 -10.3773 0)
(57.7245 -10.2378 9.58885e-16)
(59.7537 -10.0615 -9.13742e-16)
(61.7136 -9.8468 1.42852e-17)
(63.5992 -9.59934 -2.15877e-21)
(65.4053 -9.32 -8.75576e-16)
(67.129 -9.01536 8.78156e-16)
(68.7693 -8.68978 1.35608e-17)
(70.3265 -8.35018 1.34108e-17)
(71.8035 -8.00296 -8.36134e-16)
(73.2039 -7.65376 1.30922e-17)
(74.5321 -7.30859 1.66618e-15)
(75.7925 -6.97028 -8.25709e-16)
(76.9893 -6.64413 -8.05991e-16)
(78.1238 -6.32793 2.83709e-20)
(79.2023 -6.03632 8.18907e-16)
(80.2298 -5.76247 0)
(81.2138 -5.50765 -1.24286e-17)
(82.1554 -5.26648 1.23511e-17)
(83.0521 -5.03189 7.85871e-16)
(83.9068 -4.81617 -7.69435e-16)
(84.7257 -4.61078 0)
(85.5065 -4.41242 -5.11081e-22)
(86.25 -4.2223 0)
(86.957 -4.0422 1.19847e-17)
(87.6325 -3.87503 0)
(88.2797 -3.71395 -7.49086e-16)
(88.8976 -3.55582 7.58306e-16)
(89.4849 -3.40142 1.18076e-17)
(90.0433 -3.25297 3.88369e-16)
(90.5743 -3.10926 -3.63751e-16)
(91.0792 -2.97208 1.16991e-17)
(91.5599 -2.84057 -1.16672e-17)
(92.017 -2.71547 1.16367e-17)
(92.453 -2.59775 0)
(92.8696 -2.48629 1.15811e-17)
(93.2681 -2.38096 0)
(93.6495 -2.28134 -1.15319e-17)
(94.0148 -2.18761 3.79792e-16)
(94.3654 -2.09978 -7.35231e-16)
(94.7022 -2.01726 3.78452e-16)
(95.0266 -1.94019 1.14489e-17)
(95.339 -1.86736 3.65773e-16)
(95.6403 -1.79925 -3.6525e-16)
(95.9312 -1.73444 -3.41916e-16)
(96.2118 -1.67341 3.64243e-16)
(96.4828 -1.61524 -3.52391e-16)
(96.7444 -1.55999 3.74693e-16)
(96.9973 -1.50775 1.1341e-17)
(97.242 -1.45788 -3.5118e-16)
(97.4788 -1.41046 7.35603e-16)
(97.708 -1.36527 -3.61797e-16)
(97.9302 -1.32255 0)
(98.1458 -1.28196 1.12854e-17)
(98.3553 -1.24377 0)
(98.559 -1.20759 1.12672e-17)
(98.7574 -1.17365 1.12589e-17)
(98.9508 -1.14151 1.12511e-17)
(99.1395 -1.11134 1.12436e-17)
(99.3238 -1.0827 -1.68545e-16)
(99.5039 -1.05566 1.79681e-16)
(99.6799 -1.0299 -1.68352e-16)
(99.8521 -1.00536 1.12227e-17)
(100.021 -0.981919 1.12169e-17)
(100.186 -0.959368 4.77168e-21)
(100.347 -0.937708 1.90428e-16)
(100.505 -0.916703 -7.83742e-17)
(100.66 -0.896572 1.00728e-16)
(100.812 -0.876807 0)
(100.96 -0.858134 1.11831e-17)
(101.107 -0.839285 1.11784e-17)
(101.249 -0.822353 1.11749e-17)
(101.393 -0.803941 0)
(101.526 -0.789538 1.11673e-17)
(101.672 -0.770529 0)
(101.792 -0.760012 1.11598e-17)
(101.949 -0.738849 -2.23085e-17)
(102.043 -0.732641 2.2692e-17)
(102.246 -0.707861 2.91528e-17)
(34.0419 -1.08831 0)
(35.8918 -2.12786 2.65947e-17)
(37.5062 -3.11725 -3.20351e-15)
(39.1856 -4.08412 5.94446e-15)
(40.9426 -5.03057 2.41269e-17)
(42.6546 -5.9017 -2.75269e-15)
(44.4883 -6.84571 2.59734e-15)
(46.3525 -7.66644 -2.49529e-15)
(48.213 -8.44764 2.40743e-15)
(50.0922 -9.15405 2.32093e-18)
(52.0177 -9.79399 2.30357e-18)
(53.9844 -10.3801 -4.39298e-15)
(55.9765 -10.9007 -2.20271e-18)
(57.9784 -11.3431 4.15994e-15)
(59.9756 -11.6971 -2.04015e-15)
(61.962 -11.9625 -1.56135e-17)
(63.9236 -12.1424 -3.4041e-21)
(65.8526 -12.245 -1.503e-17)
(67.7377 -12.2742 -3.36535e-21)
(69.5776 -12.2431 -3.30929e-21)
(71.3647 -12.1535 -3.2425e-21)
(73.0982 -12.0189 0)
(74.7683 -11.8344 -3.05115e-21)
(76.3722 -11.6101 -1.38118e-17)
(77.9016 -11.3409 -9.02065e-16)
(79.3524 -11.036 8.52283e-16)
(80.7215 -10.6944 -8.58071e-16)
(82.0081 -10.3262 8.50274e-16)
(83.2146 -9.93579 8.16911e-16)
(84.3437 -9.5322 -1.68581e-15)
(85.4024 -9.12343 8.29814e-16)
(86.3967 -8.7153 -1.287e-17)
(87.334 -8.31564 -1.27747e-17)
(88.2193 -7.92461 7.99248e-16)
(89.0592 -7.55122 -8.06502e-16)
(89.8501 -7.1837 0)
(90.5954 -6.85074 7.9652e-16)
(91.3046 -6.53603 -7.92036e-16)
(91.9856 -6.2429 1.23076e-17)
(92.6383 -5.96852 -1.22458e-17)
(93.2555 -5.69372 1.21855e-17)
(93.8372 -5.44747 -1.21305e-17)
(94.3974 -5.21288 1.20769e-17)
(94.9288 -4.98562 -1.2028e-17)
(95.4301 -4.76605 1.19807e-17)
(95.8984 -4.55778 -7.75922e-16)
(96.3439 -4.36789 7.73279e-16)
(96.7718 -4.1847 -1.18566e-17)
(97.1782 -4.00376 1.18184e-17)
(97.5588 -3.82597 7.54053e-16)
(97.9169 -3.65593 -7.63671e-16)
(98.2543 -3.49089 1.17152e-17)
(98.5722 -3.33451 -1.16842e-17)
(98.8729 -3.18424 1.16541e-17)
(99.1562 -3.04212 -1.16263e-17)
(99.425 -2.90952 -7.30739e-16)
(99.6814 -2.78388 -1.1512e-17)
(99.9262 -2.66535 1.16109e-17)
(100.16 -2.55316 3.68944e-16)
(100.383 -2.44783 2.77587e-20)
(100.598 -2.34949 3.67579e-16)
(100.804 -2.25712 -2.06876e-22)
(101.003 -2.17132 0)
(101.195 -2.08981 -2.28622e-17)
(101.38 -2.01409 0)
(101.558 -1.94141 3.64741e-16)
(101.73 -1.87336 -3.64277e-16)
(101.896 -1.80806 -2.27377e-17)
(102.056 -1.74612 0)
(102.21 -1.68778 -3.51592e-16)
(102.359 -1.63192 -1.13121e-17)
(102.503 -1.57893 3.5085e-16)
(102.642 -1.52837 -1.13062e-17)
(102.777 -1.48078 -3.50146e-16)
(102.907 -1.4355 3.49843e-16)
(103.035 -1.39311 3.72077e-16)
(103.158 -1.35288 -3.71786e-16)
(103.279 -1.31535 -3.48969e-16)
(103.397 -1.27968 3.59973e-16)
(103.513 -1.24637 0)
(103.625 -1.21458 1.90967e-16)
(103.736 -1.18468 -1.68397e-16)
(103.844 -1.15604 -1.68289e-16)
(103.95 -1.1288 3.70024e-16)
(104.054 -1.10275 -1.79307e-16)
(104.156 -1.07764 1.12003e-17)
(104.256 -1.05355 1.90304e-16)
(104.354 -1.03014 -1.67832e-16)
(104.45 -1.0078 -1.78929e-16)
(104.545 -0.985774 1.67663e-16)
(104.637 -0.96518 0)
(104.729 -0.944189 0)
(104.818 -0.925737 0)
(104.909 -0.905293 -1.11559e-17)
(104.993 -0.889906 1.11521e-17)
(105.087 -0.869017 1.11455e-17)
(105.163 -0.858116 0)
(105.266 -0.835632 -1.1135e-17)
(105.327 -0.829485 9.25543e-23)
(105.463 -0.803665 2.95106e-17)
(67.6783 -1.34656 -1.41262e-17)
(68.2908 -2.63015 -1.95058e-17)
(68.7522 -3.88312 0)
(69.3033 -4.98527 -5.74225e-21)
(70.0753 -5.99585 2.29513e-15)
(70.8251 -6.90483 3.68768e-17)
(71.8912 -7.92379 -2.19798e-15)
(73.039 -8.73459 0)
(74.229 -9.58016 -2.11861e-15)
(75.5226 -10.3523 2.05857e-15)
(76.9108 -11.0494 1.57813e-17)
(78.3624 -11.6802 -1.54943e-17)
(79.8546 -12.2374 1.93574e-15)
(81.3654 -12.7048 1.69065e-17)
(82.8744 -13.0758 -1.29523e-17)
(84.3685 -13.3517 1.63326e-17)
(85.8286 -13.5303 -1.27751e-17)
(87.2523 -13.6243 -3.64769e-15)
(88.6237 -13.6348 1.80409e-15)
(89.9482 -13.5827 1.77423e-15)
(91.2116 -13.462 1.16142e-18)
(92.4203 -13.2943 -1.75723e-15)
(93.5607 -13.0656 -1.36337e-17)
(94.6327 -12.7955 1.35386e-17)
(95.6288 -12.4715 1.34568e-17)
(96.5454 -12.1113 -1.72568e-15)
(97.3862 -11.7095 2.53966e-15)
(98.1486 -11.282 2.05224e-19)
(98.8431 -10.8332 -8.14874e-16)
(99.4744 -10.3745 0)
(100.055 -9.91522 8.05559e-16)
(100.59 -9.45876 -1.65339e-15)
(101.091 -9.01921 1.65659e-15)
(101.561 -8.58585 -1.64716e-15)
(102.011 -8.18522 7.99893e-16)
(102.431 -7.7723 1.2625e-17)
(102.814 -7.42458 -1.25624e-17)
(103.181 -7.08453 0)
(103.533 -6.76236 -8.08392e-16)
(103.871 -6.46657 7.92373e-16)
(104.188 -6.15823 -1.10437e-21)
(104.473 -5.89001 0)
(104.754 -5.62771 -7.82106e-16)
(105.018 -5.37554 7.91218e-16)
(105.263 -5.13175 -1.21265e-17)
(105.476 -4.90525 7.85445e-16)
(105.679 -4.69445 -1.21122e-17)
(105.877 -4.48715 -7.6812e-16)
(106.063 -4.28559 -6.29878e-22)
(106.227 -4.08987 7.63097e-16)
(106.376 -3.90421 -7.48918e-16)
(106.512 -3.72238 7.46631e-16)
(106.636 -3.55221 -7.56401e-16)
(106.751 -3.38648 7.54314e-16)
(106.856 -3.23127 -7.52434e-16)
(106.954 -3.08895 -7.62251e-16)
(107.048 -2.95437 7.4888e-16)
(107.137 -2.82862 -1.16744e-17)
(107.223 -2.70927 1.16487e-17)
(107.303 -2.59738 -1.16242e-17)
(107.381 -2.49325 0)
(107.456 -2.39508 -2.65863e-22)
(107.528 -2.30463 7.39488e-16)
(107.597 -2.21777 -1.10725e-15)
(107.664 -2.13813 7.36859e-16)
(107.728 -2.06043 -1.15157e-17)
(107.788 -1.98855 -7.22943e-16)
(107.847 -1.91854 3.78105e-16)
(107.901 -1.85261 3.66079e-16)
(107.953 -1.79085 -3.76995e-16)
(108.003 -1.73132 0)
(108.05 -1.67506 -3.64568e-16)
(108.096 -1.62131 3.64124e-16)
(108.14 -1.5711 -1.32326e-22)
(108.182 -1.52314 0)
(108.224 -1.47861 -1.13394e-17)
(108.264 -1.43613 0)
(108.304 -1.39686 -1.13162e-17)
(108.344 -1.35925 1.13052e-17)
(108.382 -1.32447 0)
(108.421 -1.29092 -1.12848e-17)
(108.459 -1.25962 -8.51438e-23)
(108.496 -1.22936 -1.91514e-16)
(108.533 -1.20067 1.57593e-16)
(108.569 -1.1732 -1.12476e-17)
(108.605 -1.1467 -1.12389e-17)
(108.64 -1.1213 -2.24608e-17)
(108.675 -1.09656 -1.12218e-17)
(108.709 -1.0731 -1.90632e-16)
(108.743 -1.04986 4.23513e-21)
(108.777 -1.02839 1.79165e-16)
(108.811 -1.0063 -8.9512e-17)
(108.843 -0.987347 7.82756e-17)
(108.879 -0.96601 1.11732e-17)
(108.911 -0.950535 -2.23336e-17)
(108.949 -0.929153 -1.11575e-17)
(108.98 -0.918462 -1.11518e-17)
(109.025 -0.896634 3.34235e-17)
(109.052 -0.890705 -3.48016e-17)
(109.116 -0.86606 -2.96494e-17)
(109.741 -0.909887 1.2852e-15)
(107.991 -1.78006 -1.90884e-15)
(106.658 -3.06018 1.48497e-17)
(105.632 -4.36585 1.48673e-17)
(104.925 -5.73149 -1.91747e-15)
(104.253 -6.60027 1.88332e-15)
(104.117 -8.29305 2.6524e-15)
(104.097 -9.08661 -1.0481e-17)
(104.202 -10.0115 1.5677e-17)
(104.506 -10.8301 -1.14674e-17)
(105.048 -11.6959 -1.26267e-17)
(105.694 -12.4476 -1.83191e-15)
(106.417 -13.0896 0)
(107.184 -13.6204 -2.79289e-17)
(107.955 -14.0327 -1.77409e-15)
(108.721 -14.3329 -2.91022e-17)
(109.449 -14.5175 -1.51784e-18)
(110.149 -14.6089 1.73705e-15)
(110.796 -14.6022 -2.7007e-17)
(111.41 -14.5323 0)
(111.969 -14.3802 -2.67661e-17)
(112.49 -14.1849 0)
(112.95 -13.9109 -1.71567e-15)
(113.351 -13.5975 -1.40767e-17)
(113.69 -13.2166 1.68123e-15)
(113.958 -12.803 1.32242e-17)
(114.177 -12.3422 -1.70276e-15)
(114.333 -11.861 3.37349e-15)
(114.456 -11.3611 -2.59504e-17)
(114.542 -10.8555 -1.67971e-15)
(114.613 -10.3595 1.68835e-15)
(114.663 -9.86724 -1.68397e-15)
(114.721 -9.4076 0)
(114.767 -8.93761 2.52015e-21)
(114.827 -8.56209 0)
(114.879 -7.96322 -3.76505e-17)
(114.889 -7.63432 -7.36429e-16)
(114.918 -7.31586 6.89887e-16)
(114.937 -6.93347 0)
(114.956 -6.72405 5.85188e-16)
(114.973 -6.25393 -2.36926e-15)
(114.981 -6.06145 6.39501e-16)
(114.988 -5.79759 -2.23812e-17)
(114.994 -5.55009 -1.25711e-17)
(114.974 -5.23423 -1.75473e-17)
(114.949 -4.99186 -1.27115e-17)
(114.939 -4.79205 0)
(114.937 -4.635 0)
(114.909 -4.40335 7.68339e-16)
(114.868 -4.18876 -1.58114e-15)
(114.826 -3.99677 7.62939e-16)
(114.783 -3.80662 0)
(114.739 -3.63603 7.81442e-16)
(114.697 -3.46457 -7.90813e-16)
(114.647 -3.303 0)
(114.599 -3.15596 -1.2079e-17)
(114.553 -3.01573 0)
(114.508 -2.88636 -7.68084e-16)
(114.464 -2.763 1.51947e-15)
(114.418 -2.64733 -7.75302e-16)
(114.372 -2.54018 0)
(114.325 -2.4387 7.35103e-16)
(114.281 -2.34615 -7.56752e-16)
(114.235 -2.25575 2.88278e-22)
(114.191 -2.17455 0)
(114.146 -2.09304 1.17333e-17)
(114.101 -2.01977 -7.72535e-16)
(114.056 -1.94535 7.47479e-16)
(114.009 -1.87694 -1.16537e-17)
(113.963 -1.81385 0)
(113.917 -1.75223 -1.16069e-17)
(113.873 -1.69426 3.82305e-16)
(113.828 -1.63874 -3.81628e-16)
(113.785 -1.58777 -3.80955e-16)
(113.743 -1.53898 7.37604e-16)
(113.702 -1.49455 -7.36413e-16)
(113.663 -1.45176 7.3527e-16)
(113.625 -1.413 -3.67087e-16)
(113.589 -1.37525 -1.30857e-22)
(113.554 -1.34107 0)
(113.521 -1.30736 -3.65523e-16)
(113.489 -1.2765 7.18663e-16)
(113.458 -1.24605 -7.29125e-16)
(113.427 -1.21754 3.75471e-16)
(113.397 -1.19001 -1.70453e-16)
(113.368 -1.16349 1.81589e-16)
(113.34 -1.13804 1.13354e-17)
(113.313 -1.11327 1.81141e-16)
(113.287 -1.08987 -3.50559e-16)
(113.261 -1.06666 1.92013e-16)
(113.237 -1.04547 1.69232e-16)
(113.213 -1.02352 -3.60598e-16)