/*--------------------------------*- C++ -*----------------------------------*\
  =========                 |
  \\      /  F ield         | OpenFOAM: The Open Source CFD Toolbox
   \\    /   O peration     | Website:  https://openfoam.org
    \\  /    A nd           | Version:  8
     \\/     M anipulation  |
\*---------------------------------------------------------------------------*/
FoamFile
{
    version     2.0;
    format      ascii;
    class       volScalarField;
    location    "1";
    object      N;
}
// * * * * * * * * * * * * * * * * * * * * * * * * * * * * * * * * * * * * * //

dimensions      [0 -3 0 0 0 0 0];

internalField   nonuniform List<scalar> 
800
(
1975499.5
1975078.6
1975304.4
1975272.8
1975292.6
1975288.9
1975291.5
1975290.7
1975290.8
1975290.6
1975290.6
1975290.8
1975290.8
1975291.6
1975289.1
1975292.9
1975273
1975304.7
1975078.9
1975499.9
86.605692
22.36869
54.036257
49.073953
52.287009
51.299134
51.776907
51.780712
52.093282
52.186431
52.16652
52.036792
51.698802
51.651072
51.141924
52.121016
48.877501
53.822019
22.172915
86.336243
0.10616661
0.1012775
0.10358375
0.10317449
0.10343613
0.10335107
0.10339162
0.10339374
0.1034207
0.10342857
0.10342654
0.10341507
0.10338546
0.10337902
0.10333533
0.10341942
0.10315502
0.10356195
0.10126098
0.10613733
0.099996827
0.099996443
0.099996615
0.099996587
0.099996605
0.099996599
0.099996606
0.099996602
0.099996604
0.099996601
0.099996602
0.099996604
0.099996603
0.099996607
0.0999966
0.099996606
0.099996588
0.099996616
0.099996444
0.099996828
0.10000063
0.10000061
0.10000062
0.1000006
0.10000061
0.10000061
0.10000061
0.10000061
0.10000061
0.10000061
0.10000061
0.10000061
0.10000061
0.10000061
0.10000061
0.10000061
0.1000006
0.10000062
0.1000006
0.10000062
0.099995319
0.099995344
0.099995336
0.099995344
0.099995342
0.099995338
0.09999534
0.099995336
0.099995336
0.099995332
0.099995332
0.099995335
0.099995335
0.099995339
0.099995337
0.09999534
0.099995342
0.099995333
0.099995342
0.099995317
0.10000558
0.10000557
0.10000557
0.10000557
0.10000557
0.10000557
0.10000557
0.10000557
0.10000557
0.10000557
0.10000557
0.10000557
0.10000557
0.10000556
0.10000557
0.10000557
0.10000557
0.10000557
0.10000557
0.10000558
0.09998841
0.09998843
0.09998842
0.099988427
0.099988425
0.099988423
0.099988424
0.099988419
0.099988423
0.099988422
0.099988421
0.099988423
0.099988418
0.099988424
0.099988422
0.099988424
0.099988426
0.099988418
0.099988429
0.099988409
0.10001015
0.10001013
0.10001014
0.10001013
0.10001014
0.10001014
0.10001014
0.10001014
0.10001014
0.10001014
0.10001015
0.10001014
0.10001014
0.10001014
0.10001014
0.10001014
0.10001014
0.10001015
0.10001014
0.10001015
0.099979758
0.09997975
0.099979758
0.09997975
0.099979757
0.099979751
0.099979755
0.099979753
0.099979754
0.099979754
0.099979754
0.099979754
0.099979753
0.099979755
0.099979751
0.099979757
0.09997975
0.099979758
0.099979749
0.099979757
1974401.5
1973864.3
1974140.9
1974101.5
1974126.5
1974121.1
1974124.4
1974123.7
1974124.3
1974124.2
1974124.2
1974124.2
1974123.7
1974124.4
1974121
1974126.5
1974101.5
1974140.9
1973864.3
1974401.4
0.10398183
0.10100884
0.1025376
0.10230885
0.10245839
0.10241235
0.10243438
0.10243643
0.10245174
0.10245655
0.10245539
0.10244853
0.10243175
0.10242718
0.10240333
0.10244896
0.10229762
0.10252545
0.10099747
0.10396813
0.099997992
0.099997791
0.099997886
0.09999787
0.099997885
0.099997879
0.099997881
0.09999788
0.099997882
0.099997882
0.099997882
0.099997882
0.099997881
0.099997882
0.09999788
0.099997886
0.099997871
0.099997888
0.099997793
0.099997993
0.099996327
0.099996331
0.099996323
0.099996328
0.099996325
0.099996326
0.09999633
0.099996326
0.099996325
0.099996322
0.099996322
0.099996326
0.099996327
0.099996332
0.099996329
0.099996327
0.099996331
0.099996326
0.099996335
0.099996331
0.10000064
0.10000062
0.10000064
0.10000062
0.10000062
0.10000063
0.10000063
0.10000063
0.10000063
0.10000063
0.10000063
0.10000063
0.10000063
0.10000063
0.10000063
0.10000062
0.10000062
0.10000064
0.10000062
0.10000064
0.099995318
0.099995343
0.099995335
0.099995343
0.099995341
0.099995337
0.099995339
0.099995335
0.099995335
0.099995331
0.099995331
0.099995334
0.099995334
0.099995338
0.099995336
0.099995339
0.099995341
0.099995332
0.09999534
0.099995315
0.1000056
0.10000558
0.10000559
0.10000559
0.10000558
0.10000559
0.10000558
0.10000559
0.10000559
0.10000559
0.10000559
0.10000559
0.10000558
0.10000558
0.10000558
0.10000558
0.10000559
0.10000558
0.10000558
0.10000559
0.099988404
0.099988423
0.099988415
0.099988423
0.099988418
0.099988417
0.099988417
0.099988413
0.099988414
0.099988413
0.099988413
0.099988413
0.099988412
0.099988416
0.099988417
0.099988417
0.099988421
0.099988413
0.099988422
0.099988403
0.10001015
0.10001014
0.10001015
0.10001013
0.10001014
0.10001014
0.10001014
0.10001015
0.10001015
0.10001015
0.10001015
0.10001015
0.10001015
0.10001014
0.10001014
0.10001014
0.10001014
0.10001015
0.10001014
0.10001016
0.099979762
0.099979754
0.099979762
0.099979755
0.099979761
0.099979755
0.09997976
0.099979757
0.099979758
0.099979758
0.099979758
0.099979758
0.099979757
0.09997976
0.099979756
0.099979761
0.099979754
0.099979762
0.099979754
0.099979761
1974401.5
1973864.3
1974140.9
1974101.5
1974126.5
1974121.1
1974124.4
1974123.7
1974124.3
1974124.2
1974124.2
1974124.2
1974123.7
1974124.4
1974121
1974126.5
1974101.5
1974140.9
1973864.3
1974401.4
0.10398183
0.10100885
0.1025376
0.10230885
0.10245839
0.10241236
0.10243438
0.10243643
0.10245174
0.10245655
0.10245539
0.10244853
0.10243175
0.10242719
0.10240333
0.10244896
0.10229762
0.10252546
0.10099747
0.10396813
0.099997992
0.099997791
0.099997886
0.09999787
0.099997885
0.099997879
0.099997881
0.09999788
0.099997882
0.099997882
0.099997882
0.099997882
0.099997881
0.099997882
0.09999788
0.099997886
0.099997871
0.099997888
0.099997793
0.099997993
0.099996327
0.099996331
0.099996323
0.099996328
0.099996325
0.099996326
0.09999633
0.099996326
0.099996325
0.099996322
0.099996322
0.099996326
0.099996327
0.099996332
0.099996329
0.099996327
0.099996331
0.099996326
0.099996335
0.099996331
0.10000064
0.10000062
0.10000064
0.10000062
0.10000062
0.10000063
0.10000063
0.10000063
0.10000063
0.10000063
0.10000063
0.10000063
0.10000063
0.10000063
0.10000063
0.10000062
0.10000062
0.10000064
0.10000062
0.10000064
0.099995318
0.099995343
0.099995335
0.099995343
0.099995341
0.099995337
0.099995339
0.099995335
0.099995335
0.099995331
0.099995331
0.099995334
0.099995334
0.099995338
0.099995336
0.099995339
0.099995341
0.099995332
0.09999534
0.099995315
0.1000056
0.10000558
0.10000559
0.10000559
0.10000558
0.10000559
0.10000558
0.10000559
0.10000559
0.10000559
0.10000559
0.10000559
0.10000558
0.10000558
0.10000558
0.10000558
0.10000559
0.10000558
0.10000558
0.10000559
0.099988404
0.099988423
0.099988415
0.099988423
0.099988418
0.099988417
0.099988417
0.099988413
0.099988414
0.099988413
0.099988413
0.099988413
0.099988412
0.099988416
0.099988417
0.099988417
0.099988421
0.099988413
0.099988422
0.099988403
0.10001015
0.10001014
0.10001015
0.10001013
0.10001014
0.10001014
0.10001014
0.10001015
0.10001015
0.10001015
0.10001015
0.10001015
0.10001015
0.10001014
0.10001014
0.10001014
0.10001014
0.10001015
0.10001014
0.10001016
0.099979762
0.099979754
0.099979762
0.099979755
0.099979761
0.099979755
0.09997976
0.099979757
0.099979758
0.099979758
0.099979758
0.099979758
0.099979757
0.09997976
0.099979756
0.099979761
0.099979754
0.099979762
0.099979754
0.099979761
1975499.5
1975078.6
1975304.4
1975272.8
1975292.6
1975288.9
1975291.5
1975290.7
1975290.8
1975290.6
1975290.6
1975290.8
1975290.8
1975291.6
1975289.1
1975292.9
1975273
1975304.7
1975078.9
1975499.9
86.605703
22.368695
54.036261
49.073956
52.287014
51.29914
51.776909
51.780712
52.093289
52.186445
52.166536
52.036802
51.698809
51.65109
51.141953
52.121038
48.877515
53.822032
22.172926
86.336257
0.10616662
0.1012775
0.10358375
0.10317449
0.10343614
0.10335107
0.10339162
0.10339374
0.1034207
0.10342857
0.10342654
0.10341507
0.10338546
0.10337903
0.10333533
0.10341942
0.10315502
0.10356195
0.10126098
0.10613733
0.099996827
0.099996443
0.099996615
0.099996587
0.099996605
0.099996599
0.099996606
0.099996602
0.099996604
0.099996601
0.099996602
0.099996604
0.099996603
0.099996607
0.0999966
0.099996606
0.099996588
0.099996616
0.099996444
0.099996828
0.10000063
0.10000061
0.10000062
0.1000006
0.10000061
0.10000061
0.10000061
0.10000061
0.10000061
0.10000061
0.10000061
0.10000061
0.10000061
0.10000061
0.10000061
0.10000061
0.1000006
0.10000062
0.1000006
0.10000062
0.099995319
0.099995344
0.099995336
0.099995344
0.099995342
0.099995338
0.09999534
0.099995336
0.099995336
0.099995332
0.099995332
0.099995335
0.099995335
0.099995339
0.099995337
0.09999534
0.099995342
0.099995333
0.099995342
0.099995317
0.10000558
0.10000557
0.10000557
0.10000557
0.10000557
0.10000557
0.10000557
0.10000557
0.10000557
0.10000557
0.10000557
0.10000557
0.10000557
0.10000556
0.10000557
0.10000557
0.10000557
0.10000557
0.10000557
0.10000558
0.09998841
0.09998843
0.09998842
0.099988427
0.099988425
0.099988423
0.099988424
0.099988419
0.099988423
0.099988422
0.099988421
0.099988423
0.099988418
0.099988424
0.099988422
0.099988424
0.099988426
0.099988418
0.099988429
0.099988409
0.10001015
0.10001013
0.10001014
0.10001013
0.10001014
0.10001014
0.10001014
0.10001014
0.10001014
0.10001014
0.10001015
0.10001014
0.10001014
0.10001014
0.10001014
0.10001014
0.10001014
0.10001015
0.10001014
0.10001015
0.099979758
0.09997975
0.099979758
0.09997975
0.099979757
0.099979751
0.099979755
0.099979753
0.099979754
0.099979754
0.099979754
0.099979754
0.099979753
0.099979755
0.099979751
0.099979757
0.09997975
0.099979758
0.099979749
0.099979757
)
;

boundaryField
{
    left
    {
        type            zeroGradient;
    }
    right
    {
        type            zeroGradient;
    }
    walls
    {
        type            zeroGradient;
    }
    centreline
    {
        type            zeroGradient;
    }
    frontAndBack
    {
        type            zeroGradient;
    }
}


// ************************************************************************* //
