/*--------------------------------*- C++ -*----------------------------------*\
  =========                 |
  \\      /  F ield         | OpenFOAM: The Open Source CFD Toolbox
   \\    /   O peration     | Website:  https://openfoam.org
    \\  /    A nd           | Version:  8
     \\/     M anipulation  |
\*---------------------------------------------------------------------------*/
FoamFile
{
    version     2.0;
    format      ascii;
    class       surfaceScalarField;
    location    "1";
    object      phi;
}
// * * * * * * * * * * * * * * * * * * * * * * * * * * * * * * * * * * * * * //

dimensions      [1 0 -1 0 0 0 0];

internalField   nonuniform List<scalar> 
2080
(
-4.999098e-06
-5.8600199e-05
-1.2796412e-05
-7.5958646e-08
-6.927747e-05
-1.2465149e-05
-3.4661894e-07
-6.4141274e-05
-1.2614321e-05
2.9479301e-08
-6.5289641e-05
-1.2610846e-05
-2.210474e-08
-6.4956161e-05
-1.2627045e-05
-1.6494882e-09
-6.5105775e-05
-1.2624984e-05
-4.1865092e-08
-6.5102837e-05
-1.2624386e-05
-3.5775848e-08
-6.5034507e-05
-1.2625773e-05
-2.1748038e-08
-6.4999446e-05
-1.2627374e-05
-1.9248442e-09
-6.4972527e-05
-1.2629107e-05
1.9709834e-08
-6.4973581e-05
-1.2628915e-05
3.8990966e-08
-6.5000936e-05
-1.2626832e-05
4.9270915e-08
-6.5037737e-05
-1.2625026e-05
1.1803485e-08
-6.5109999e-05
-1.2623349e-05
2.4985225e-08
-6.5112528e-05
-1.2623893e-05
-3.1090704e-08
-6.4965801e-05
-1.2625799e-05
3.4252501e-07
-6.5297127e-05
-1.2610327e-05
7.1795202e-08
-6.4150353e-05
-1.2614291e-05
4.9977414e-06
-6.9284901e-05
-1.2464399e-05
-5.8614827e-05
-1.2796026e-05
1.5348363e-06
-0.00010959142
6.379965e-06
-2.5632864e-08
-0.00011698687
6.1982794e-06
-6.5484904e-08
-0.00011312699
6.3052076e-06
2.2078862e-08
-0.00011422219
6.3158331e-06
1.3291387e-08
-0.00011385758
6.3267715e-06
6.9094788e-09
-0.00011405381
6.3255243e-06
-3.1202037e-08
-0.00011407236
6.3257396e-06
-2.9193932e-08
-0.00011395182
6.3260055e-06
-1.8091849e-08
-0.00011392358
6.3273975e-06
-1.9048957e-09
-0.00011388752
6.3288198e-06
1.6543518e-08
-0.0001138879
6.3286745e-06
3.3965692e-08
-0.00011392512
6.327013e-06
4.03424e-08
-0.00011395657
6.3255183e-06
3.1964092e-09
-0.00011408656
6.3252187e-06
-6.316266e-09
-0.00011406921
6.3248039e-06
-2.3268489e-08
-0.0001138772
6.3256016e-06
6.1154773e-08
-0.00011424264
6.3146346e-06
1.9264264e-08
-0.00011314443
6.3040815e-06
-1.5375371e-06
-0.00011700316
6.197165e-06
-0.00010960861
6.3795674e-06
1.2052688e-06
-0.00016684692
3.3388819e-06
-2.9581518e-07
-0.00017120202
3.2811316e-06
-2.8861152e-07
-0.00016849047
3.2907098e-06
-1.2934979e-07
-0.00016965565
3.2866152e-06
-1.0535936e-07
-0.00016902129
3.2974026e-06
-4.4762809e-08
-0.00016929703
3.2929426e-06
-3.8638058e-08
-0.00016927635
3.2928233e-06
-1.7715308e-08
-0.00016914462
3.2942566e-06
-9.0041793e-09
-0.00016911856
3.2959429e-06
-3.851333e-09
-0.00016907806
3.2975808e-06
3.8300107e-09
-0.000169078
3.2974192e-06
1.8638366e-08
-0.00016912105
3.2953959e-06
4.4170383e-08
-0.00016915197
3.2935579e-06
5.2519942e-08
-0.00016929814
3.2918212e-06
1.0801514e-07
-0.00016932491
3.2918211e-06
1.2553046e-07
-0.00016905439
3.2961035e-06
2.8246747e-07
-0.00016968891
3.2861001e-06
2.8936364e-07
-0.00016852138
3.2901574e-06
-1.2094926e-06
-0.00017122896
3.281137e-06
-0.00016687165
3.3381473e-06
6.4710707e-07
-0.00023056636
1.4733715e-06
2.3340306e-07
-0.00023229864
1.6108998e-06
3.5740453e-07
-0.00023106778
1.5341451e-06
5.3336008e-08
-0.0002315612
1.5345105e-06
9.7889372e-08
-0.00023123973
1.5175944e-06
1.4545625e-08
-0.00023138601
1.517587e-06
5.3625314e-08
-0.00023140787
1.5173824e-06
2.2953341e-08
-0.00023130886
1.5172889e-06
3.6938643e-09
-0.0002313682
1.5155458e-06
-2.5664258e-09
-0.00023134628
1.5134793e-06
-6.3578423e-09
-0.00023134045
1.5136661e-06
-2.0705379e-08
-0.0002313574
1.5160992e-06
-4.476067e-08
-0.0002312969
1.51805e-06
-5.9571893e-09
-0.00023140463
1.518283e-06
-9.3901839e-08
-0.00023139719
1.5186734e-06
-5.598825e-08
-0.00023124852
1.5189006e-06
-3.6051637e-07
-0.00023156302
1.5368824e-06
-2.3616547e-07
-0.00023106708
1.5379569e-06
-6.4756549e-07
-0.00023228692
1.6138905e-06
-0.0002305524
1.4783465e-06
9.3017673e-07
-0.00018313167
-1.1915679e-07
-2.8993978e-07
-0.00018513393
-1.6412803e-07
-3.3261113e-07
-0.00018456599
-1.2905412e-07
-3.2735094e-07
-0.00018488412
-1.3674384e-07
-2.7838687e-07
-0.00018463987
-1.3421095e-07
-1.2294703e-07
-0.00018460037
-1.2992773e-07
-2.2252382e-08
-0.00018461907
-1.3143072e-07
7.3026858e-09
-0.00018458958
-1.2968417e-07
3.1497781e-09
-0.00018466355
-1.2928788e-07
-4.0140574e-09
-0.00018465378
-1.2855726e-07
-1.224162e-08
-0.00018465077
-1.2863638e-07
-1.5339107e-08
-0.00018465849
-1.2937007e-07
1.4560914e-08
-0.00018458729
-1.2971221e-07
1.1812167e-07
-0.00018462402
-1.3120386e-07
2.7717686e-07
-0.00018462127
-1.288575e-07
3.247592e-07
-0.00018466299
-1.3398156e-07
3.2927042e-07
-0.00018490437
-1.3772177e-07
2.8587144e-07
-0.00018458343
-1.3323227e-07
-9.3358668e-07
-0.00018514427
-1.6972065e-07
-0.00018313853
-1.28903e-07
6.4784404e-07
-9.2453286e-05
9.6281087e-07
3.3707198e-07
-9.3229377e-05
9.8608862e-07
8.4971109e-07
-9.3043812e-05
9.7242847e-07
2.7195564e-07
-9.3072105e-05
9.6921637e-07
3.9951688e-07
-9.3114723e-05
9.7501447e-07
6.9799386e-08
-9.2879164e-05
9.7290527e-07
1.3430756e-07
-9.3023957e-05
9.7579307e-07
9.1166099e-09
-9.2963407e-05
9.7385018e-07
-1.4113249e-08
-9.3102718e-05
9.7560726e-07
3.1008832e-09
-9.303521e-05
9.7497214e-07
1.9701983e-08
-9.3031696e-05
9.7497139e-07
-5.3603847e-09
-9.3091504e-05
9.7582641e-07
-1.3409935e-07
-9.295286e-05
9.7412107e-07
-6.9376795e-08
-9.301942e-05
9.7627601e-07
-3.9493984e-07
-9.2878865e-05
9.7317683e-07
-2.6768951e-07
-9.3117266e-05
9.7548742e-07
-8.4614964e-07
-9.3070017e-05
9.7068299e-07
-3.3233175e-07
-9.3033456e-05
9.7410697e-07
-6.438185e-07
-9.3214525e-05
9.8948801e-07
-9.2432627e-05
9.6451843e-07
-7.1588595e-07
6.7036318e-05
-2.0860507e-06
-6.2382951e-07
6.5901662e-05
-2.0945881e-06
-8.2093244e-07
6.5938756e-05
-2.0975721e-06
-3.5589579e-07
6.5891369e-05
-2.0948391e-06
-4.5942831e-07
6.5988622e-05
-2.0965428e-06
-2.2838515e-07
6.5964045e-05
-2.0949613e-06
-2.6096736e-07
6.6080673e-05
-2.0963805e-06
-1.1841637e-07
6.6052766e-05
-2.096423e-06
-5.6903928e-08
6.6113258e-05
-2.0974458e-06
-2.2759673e-09
6.6138894e-05
-2.0978116e-06
4.660507e-08
6.6139504e-05
-2.0978561e-06
9.8720838e-08
6.6116059e-05
-2.0970713e-06
2.3023528e-07
6.606503e-05
-2.0960264e-06
1.9585381e-07
6.6080011e-05
-2.0963584e-06
4.3798912e-07
6.5987347e-05
-2.09555e-06
3.5224614e-07
6.6006786e-05
-2.0969141e-06
8.2859586e-07
6.592558e-05
-2.0952107e-06
6.3733759e-07
6.5973232e-05
-2.0984456e-06
7.2750891e-07
6.5932602e-05
-2.0966911e-06
6.7066043e-05
-2.0890285e-06
3.1192937e-06
5.7842381e-05
3.7362008e-06
7.0233704e-07
6.7679503e-05
3.7094278e-06
1.4602519e-06
6.6510082e-05
3.4389665e-06
5.3756423e-07
6.1888694e-05
3.3744753e-06
9.4674112e-07
6.6696254e-05
3.7245231e-06
2.7175354e-07
6.108047e-05
3.740971e-06
3.1095245e-07
6.6553567e-05
3.8457927e-06
6.8242015e-08
6.1097324e-05
3.8909496e-06
8.7911627e-08
6.402709e-05
4.0833734e-06
1.7746803e-08
6.1927354e-05
4.0431553e-06
-5.3779486e-08
6.1806863e-05
4.0337585e-06
-4.6767176e-08
6.3492095e-05
4.0884575e-06
-3.1528863e-07
6.0957414e-05
3.8398837e-06
-2.418496e-07
6.6225295e-05
3.9220783e-06
-9.1998766e-07
6.1082645e-05
3.7388581e-06
-5.1169895e-07
6.6690232e-05
3.7230735e-06
-1.4408201e-06
6.1882723e-05
3.4177621e-06
-7.0103305e-07
6.65026e-05
3.5519711e-06
-3.1219261e-06
6.7669823e-05
3.7137039e-06
5.7826245e-05
3.733145e-06
-2.4341868e-06
-6.580261e-05
-1.6387075e-06
-6.0370425e-07
-6.3154008e-05
-1.6104077e-06
-1.3704367e-06
-6.6022713e-05
-1.3812599e-06
-6.0783085e-07
-6.3745329e-05
-1.3145466e-06
-1.04931e-06
-6.3939725e-05
-1.6398807e-06
-3.3783822e-07
-6.3944434e-05
-1.6576802e-06
-3.8266292e-07
-6.3926782e-05
-1.7546082e-06
-1.0895236e-07
-6.3961716e-05
-1.7985223e-06
-1.0020126e-07
-6.3922704e-05
-1.9902705e-06
-1.666194e-08
-6.3944703e-05
-1.9473107e-06
6.9253215e-08
-6.3944058e-05
-1.9368582e-06
7.5284611e-08
-6.3926598e-05
-1.9937988e-06
3.6546209e-07
-6.396578e-05
-1.7468822e-06
3.025475e-07
-6.3925134e-05
-1.8272788e-06
1.0299526e-06
-6.3947184e-05
-1.6526655e-06
6.1067014e-07
-6.3939776e-05
-1.6381046e-06
1.3773003e-06
-6.3753991e-05
-1.3544232e-06
6.2025798e-07
-6.6028462e-05
-1.4848534e-06
2.4573256e-06
-6.3164563e-05
-1.6224404e-06
-6.5809279e-05
-1.6449686e-06
4.2584874e-07
4.7703428e-07
5.5285409e-07
9.7466031e-07
4.217926e-07
6.891117e-07
4.3529057e-07
7.5538812e-07
3.9316821e-07
7.3474516e-07
3.8111887e-07
7.4168752e-07
3.1842188e-07
7.3660835e-07
2.5717871e-07
7.3503019e-07
1.3732002e-07
7.3704526e-07
1.107577e-08
7.3600799e-07
-1.1799296e-07
7.3444532e-07
-2.3336214e-07
7.3389567e-07
-2.9040088e-07
7.2471471e-07
-3.648371e-07
7.3343245e-07
-3.9629076e-07
7.4023523e-07
-4.5491052e-07
7.3690302e-07
-4.315246e-07
7.626935e-07
-5.642012e-07
6.956403e-07
-4.6101186e-07
1.0191298e-06
4.8039969e-07
-5.0978323e-06
-8.2327149e-05
6.4643366e-12
-6.7000173e-08
-9.3612791e-05
4.5668921e-12
-3.6912347e-07
-8.831326e-05
4.4553754e-12
2.5966673e-08
-8.9432562e-05
4.4923802e-12
-2.4052369e-08
-8.9076899e-05
1.9607004e-12
-2.5047338e-09
-8.9229536e-05
-1.6821053e-13
-4.2756429e-08
-8.9224241e-05
-1.4387361e-12
-3.6674939e-08
-8.9157082e-05
-3.8065163e-13
-2.2343579e-08
-8.9118825e-05
1.1318878e-12
-1.8962448e-09
-8.9090175e-05
8.9046723e-14
2.0369814e-08
-8.9091514e-05
-2.5197647e-13
3.9910299e-08
-8.9121132e-05
8.8528418e-13
5.0204401e-08
-8.9161388e-05
2.2004484e-12
1.2501276e-08
-8.9232699e-05
2.3930149e-12
2.6919814e-08
-8.9237806e-05
1.7344818e-12
-2.7700594e-08
-8.9088455e-05
5.358245e-13
3.6502788e-07
-8.9441535e-05
-4.3569201e-13
6.2548878e-08
-8.8322837e-05
-5.3714167e-13
5.0965348e-06
-9.3621849e-05
7.9936606e-13
-8.2341465e-05
6.1740337e-13
1.5074231e-06
-0.00012221027
5.2472856e-12
-1.4665675e-08
-0.00012989549
2.9989986e-12
-5.8757652e-08
-0.0001259519
3.4022149e-12
2.5017295e-08
-0.00012705467
3.3306102e-12
1.2385068e-08
-0.00012668092
1.0914816e-12
6.7060751e-09
-0.00012688196
-9.3976135e-13
-3.1320772e-08
-0.00012689765
-2.7401758e-12
-2.9007546e-08
-0.00012677719
-1.5242543e-12
-1.7842783e-08
-0.00012674766
5.2424769e-14
-1.8958782e-09
-0.0001267116
-5.6195932e-13
1.6312414e-08
-0.00012671193
-8.2373272e-13
3.3835037e-08
-0.00012674907
1.608579e-13
4.0522529e-08
-0.00012678171
1.4973407e-12
3.6183142e-09
-0.00012691161
1.5160229e-12
-5.2109265e-09
-0.000126897
1.2336815e-12
-2.6257853e-08
-0.0001267
-1.22846e-13
5.4295753e-08
-0.00012707376
-1.1601434e-12
7.7177448e-09
-0.0001259674
-1.2351709e-12
-1.5099323e-06
-0.00012991031
-1.9806692e-13
-0.00012222493
4.2172586e-13
1.2072351e-06
-0.00017260726
3.2520293e-12
-3.0286529e-07
-0.00017699329
-1.8795249e-12
-2.8574556e-07
-0.00017427581
1.4051914e-12
-1.2864907e-07
-0.00017546467
1.7506344e-12
-1.0692974e-07
-0.00017482556
4.9343759e-13
-4.5902457e-08
-0.00017510287
-8.3565299e-13
-3.8871631e-08
-0.00017508012
-2.8030997e-12
-1.7185151e-08
-0.00017494895
-2.1991165e-12
-8.6158281e-09
-0.00017492332
-9.1671157e-13
-3.9719103e-09
-0.00017488389
-1.2899326e-12
3.2409761e-09
-0.00017488379
-1.3573067e-12
1.7918932e-08
-0.00017492569
-5.5543532e-13
4.424321e-08
-0.00017495615
-1.8769583e-14
5.3479922e-08
-0.00017510177
7.0288714e-13
1.095109e-07
-0.00017513047
2.4751264e-13
1.2496811e-07
-0.00017485834
-9.0045995e-13
2.7952183e-07
-0.00017549776
-1.7711926e-12
2.9682763e-07
-0.00017430613
-1.9120403e-12
-1.2118202e-06
-0.00017702057
-1.0671509e-12
-0.00017263193
-1.0922066e-12
6.855767e-07
-0.00023318344
-4.3402148e-12
2.3034505e-07
-0.00023499464
-9.8431175e-12
3.5196084e-07
-0.00023373142
-3.973519e-12
4.9166816e-08
-0.00023424277
-2.6830702e-12
9.8844911e-08
-0.00023391141
-2.2961789e-12
1.4676973e-08
-0.00023405972
-4.415814e-13
5.4029075e-08
-0.00023407967
-1.8820109e-12
2.2375079e-08
-0.00023398116
-2.0874335e-12
3.179803e-09
-0.00023404019
-3.3772807e-12
-2.4343121e-09
-0.00023401803
-2.977854e-12
-5.3292281e-09
-0.0002340122
-1.8858946e-12
-1.99404e-08
-0.00023402933
-2.5298989e-12
-4.4977217e-08
-0.00023396905
-3.7994676e-13
-5.9721528e-09
-0.00023407621
-9.7533453e-13
-9.4529637e-08
-0.00023407058
1.0850338e-12
-5.1297353e-08
-0.00023391996
-1.4455728e-12
-3.5460127e-07
-0.00023424482
-1.7131676e-12
-2.3297414e-07
-0.00023373216
-3.12984e-12
-6.8555991e-07
-0.00023498399
-1.5504383e-12
-0.00023317171
-1.2649861e-12
9.2454163e-07
-0.00018671828
-2.7211194e-11
-2.9541548e-07
-0.00018880114
-4.0846749e-11
-3.3565582e-07
-0.00018820977
-1.7091393e-11
-3.3027948e-07
-0.00018853462
-1.8235e-11
-2.8186708e-07
-0.00018828101
-2.0429919e-12
-1.2425784e-07
-0.00018824383
4.6167845e-13
-2.3971789e-08
-0.00018826046
-3.3613904e-12
6.704827e-09
-0.0001882316
-4.5746802e-12
2.7294763e-09
-0.00018830484
-3.8370826e-12
-4.1263926e-09
-0.00018829498
-2.647178e-12
-1.1995678e-08
-0.00018829204
-1.4337792e-12
-1.4898465e-08
-0.00018829987
-8.9432591e-13
1.6227321e-08
-0.00018822944
-3.7048865e-12
1.1941882e-07
-0.00018826561
8.1674912e-14
2.8028114e-07
-0.00018826513
-1.8091348e-12
3.2715892e-07
-0.00018830439
-6.9437956e-13
3.3145193e-07
-0.00018855511
-8.701127e-13
2.9045158e-07
-0.00018822737
-1.109854e-12
-9.2868371e-07
-0.00018881129
-1.3112656e-12
-0.00018672535
-1.764966e-12
6.6918416e-07
-9.3805684e-05
-4.0523326e-11
3.4230267e-07
-9.4599984e-05
-1.7364386e-11
8.6270378e-07
-9.4435657e-05
-1.6045518e-11
2.7572094e-07
-9.4464427e-05
-1.8626218e-11
4.0669687e-07
-9.4488006e-05
-5.4665091e-12
7.1428402e-08
-9.4249307e-05
7.6612616e-12
1.3746676e-07
-9.4389516e-05
1.1225189e-11
9.7290902e-09
-9.4325251e-05
-8.4712359e-13
-1.3362297e-08
-9.4454826e-05
-1.6252031e-11
3.2181398e-09
-9.4389291e-05
-4.7609937e-12
1.9140998e-08
-9.4386298e-05
6.0531608e-12
-6.0276807e-09
-9.4443362e-05
-6.4029572e-12
-1.3694788e-07
-9.4317658e-05
-3.4820003e-12
-7.0884419e-08
-9.4380575e-05
-1.1779589e-11
-4.0188153e-07
-9.4249441e-05
2.6639292e-12
-2.7109678e-07
-9.449076e-05
-3.9343766e-12
-8.5875839e-07
-9.4459744e-05
3.981366e-12
-3.372176e-07
-9.4418794e-05
1.7489944e-12
-6.6520711e-07
-9.4584724e-05
-2.6417846e-13
-9.3784609e-05
-4.8667964e-12
-7.3109867e-07
6.1157271e-05
-1.2308609e-10
-6.3168406e-07
5.9904845e-05
2.6532108e-11
-8.3181104e-07
5.9934111e-05
-3.4943355e-11
-3.6194417e-07
5.9884345e-05
-1.5381073e-10
-4.6702821e-07
5.9998971e-05
-2.0478515e-11
-2.3216427e-07
5.9976134e-05
-2.3554509e-11
-2.657231e-07
6.0101583e-05
-2.3139498e-11
-1.2048689e-07
6.0075243e-05
-1.5190102e-11
-5.8723112e-08
6.0147866e-05
-3.1421559e-12
-2.4309938e-09
6.0171876e-05
-9.5647009e-12
4.8171113e-08
6.0172103e-05
-1.1483209e-11
1.0043746e-07
6.0151338e-05
7.0092463e-12
2.3453508e-07
6.0085562e-05
-2.0147779e-12
1.9917826e-07
6.010524e-05
1.4648645e-11
4.4539152e-07
6.0000339e-05
-4.9728783e-12
3.5808437e-07
6.0018604e-05
4.0052602e-12
8.3927119e-07
5.9922046e-05
8.2113474e-13
6.4450379e-07
5.9974478e-05
2.364839e-12
7.4247191e-07
5.9936065e-05
1.0648875e-12
6.1187158e-05
3.7756012e-12
3.15009e-06
6.1436478e-05
1.1143771e-10
6.3512302e-07
6.68337e-05
1.333579e-10
1.4839305e-06
6.6503338e-05
1.2698771e-10
6.1757208e-07
6.6953235e-05
9.7374448e-11
9.9368533e-07
6.789252e-05
-2.5458622e-11
3.0264129e-07
6.8256445e-05
2.4146872e-11
3.4996064e-07
6.7992554e-05
-4.5887591e-11
1.0721224e-07
6.8155674e-05
-2.4058319e-11
9.2493036e-08
6.8067636e-05
-6.3884126e-11
1.6247711e-08
6.8112699e-05
2.7364932e-11
-6.2304162e-08
6.8111854e-05
1.2774647e-10
-8.2073424e-08
6.8062388e-05
-3.2205368e-11
-3.3558799e-07
6.8152846e-05
6.6507e-11
-2.804674e-07
6.7984891e-05
-5.8989345e-11
-9.6862186e-07
6.8252909e-05
2.0124508e-11
-5.7646214e-07
6.7885512e-05
-2.4505979e-11
-1.4531909e-06
6.6210318e-05
2.3367192e-11
-6.5255198e-07
6.7190727e-05
8.5876802e-11
-3.1611173e-06
6.6825893e-05
1.4613608e-11
6.1421312e-05
-1.3688817e-11
-2.45738e-06
-6.6537334e-05
1.2843344e-09
-5.3513794e-07
-6.7198276e-05
2.5118974e-09
-1.391806e-06
-6.7713406e-05
8.1230062e-10
-6.976391e-07
-6.6925503e-05
-1.947093e-11
-1.0997573e-06
-6.7636812e-05
-1.112224e-10
-3.7205337e-07
-6.7092597e-05
-2.3977738e-10
-4.2350979e-07
-6.7633604e-05
6.946276e-11
-1.535388e-07
-6.7654158e-05
-2.5559908e-13
-1.0611658e-07
-6.7634306e-05
-1.2472574e-10
-1.4754646e-08
-6.764513e-05
-2.9483699e-11
7.8280724e-08
-6.7644812e-05
-3.3107726e-11
1.1810836e-07
-6.7636703e-05
-1.2603833e-11
3.8571604e-07
-6.711473e-05
-9.0214173e-12
3.4616605e-07
-6.7633091e-05
-1.1628156e-10
1.0806109e-06
-6.709537e-05
1.5613368e-11
6.8295219e-07
-6.7637561e-05
1.3888388e-11
1.3860239e-06
-6.6935182e-05
2.7814262e-11
5.705705e-07
-6.7720198e-05
-3.1242588e-11
2.4883053e-06
-6.646496e-05
1.3614705e-11
-6.6549564e-05
7.9852843e-12
-5.3224878e-08
-3.558055e-10
6.3043358e-07
-3.3013519e-09
4.0581421e-07
-3.5769435e-10
4.5188309e-07
5.1702829e-11
3.9848505e-07
5.7434736e-11
3.8880485e-07
2.4541862e-10
3.2273689e-07
-3.3564423e-11
2.6142747e-07
3.3779591e-11
1.3928216e-07
1.7668128e-10
1.049108e-08
6.0998692e-12
-1.2096429e-07
-9.5876861e-11
-2.3838254e-07
3.7224185e-11
-2.9340131e-07
-6.5586738e-11
-3.7073014e-07
1.503826e-10
-4.0005954e-07
-2.9727293e-11
-4.6972587e-07
2.5257753e-11
-4.1034135e-07
-4.241707e-11
-6.3839786e-07
-3.7347526e-11
2.8163458e-08
-1.8014539e-11
1.6584479e-11
-5.0978326e-06
-8.2327151e-05
1.2796421e-05
-6.7000327e-08
-9.3612794e-05
1.2465156e-05
-3.6912369e-07
-8.8313262e-05
1.2614327e-05
2.5966215e-08
-8.9432563e-05
1.2610852e-05
-2.4052882e-08
-8.90769e-05
1.2627047e-05
-2.5051315e-09
-8.9229536e-05
1.2624984e-05
-4.2756255e-08
-8.9224241e-05
1.2624383e-05
-3.667469e-08
-8.9157082e-05
1.2625772e-05
-2.2343643e-08
-8.9118826e-05
1.2627376e-05
-1.8962685e-09
-8.9090176e-05
1.2629107e-05
2.037005e-08
-8.9091515e-05
1.2628915e-05
3.9910578e-08
-8.9121133e-05
1.2626833e-05
5.0204483e-08
-8.9161389e-05
1.2625029e-05
1.2501058e-08
-8.92327e-05
1.2623352e-05
2.6919561e-08
-8.9237806e-05
1.2623895e-05
-2.7700793e-08
-8.9088455e-05
1.2625799e-05
3.650279e-07
-8.9441535e-05
1.2610326e-05
6.2549039e-08
-8.8322837e-05
1.261429e-05
5.0965348e-06
-9.362185e-05
1.24644e-05
-8.2341465e-05
1.2796027e-05
1.5074227e-06
-0.00012221027
-6.3799573e-06
-1.4665851e-08
-0.0001298955
-6.1982751e-06
-5.875781e-08
-0.00012595191
-6.3052026e-06
2.5016828e-08
-0.00012705467
-6.3158284e-06
1.2384211e-08
-0.00012668092
-6.32677e-06
6.7058635e-09
-0.00012688196
-6.3255257e-06
-3.1320623e-08
-0.00012689765
-6.3257435e-06
-2.900727e-08
-0.00012677719
-6.3260077e-06
-1.7842788e-08
-0.00012674767
-6.3273975e-06
-1.895865e-09
-0.0001267116
-6.3288208e-06
1.6312651e-08
-0.00012671193
-6.3286759e-06
3.3835312e-08
-0.00012674907
-6.3270128e-06
4.0522612e-08
-0.00012678172
-6.325516e-06
3.6180977e-09
-0.00012691161
-6.3252163e-06
-5.2112419e-09
-0.000126897
-6.3248021e-06
-2.625809e-08
-0.0001267
-6.3256018e-06
5.4295717e-08
-0.00012707376
-6.3146363e-06
7.718107e-09
-0.0001259674
-6.3040833e-06
-1.5099321e-06
-0.00012991031
-6.1971655e-06
-0.00012222493
-6.3795668e-06
1.2072342e-06
-0.00017260726
-3.3388759e-06
-3.0286488e-07
-0.00017699329
-3.281133e-06
-2.8574545e-07
-0.00017427582
-3.2907071e-06
-1.286493e-07
-0.00017546468
-3.2866122e-06
-1.069302e-07
-0.00017482556
-3.2974015e-06
-4.5902843e-08
-0.00017510287
-3.2929434e-06
-3.8871614e-08
-0.00017508012
-3.2928268e-06
-1.7184945e-08
-0.00017494895
-3.2942591e-06
-8.6157683e-09
-0.00017492332
-3.2959438e-06
-3.9718566e-09
-0.00017488389
-3.2975821e-06
3.2411082e-09
-0.00017488379
-3.2974206e-06
1.7919136e-08
-0.00017492569
-3.2953964e-06
4.4243376e-08
-0.00017495616
-3.2935576e-06
5.3479785e-08
-0.00017510177
-3.29182e-06
1.0951061e-07
-0.00017513047
-3.2918202e-06
1.2496789e-07
-0.00017485834
-3.2961042e-06
2.7952177e-07
-0.00017549776
-3.2861021e-06
2.9682782e-07
-0.00017430613
-3.2901595e-06
-1.2118202e-06
-0.00017702057
-3.2811381e-06
-0.00017263193
-3.3381479e-06
6.8557644e-07
-0.00023318345
-1.4733775e-06
2.3034572e-07
-0.00023499465
-1.6109137e-06
3.5196139e-07
-0.00023373142
-1.5341506e-06
4.9167209e-08
-0.00023424277
-1.5345146e-06
9.8845046e-08
-0.00023391141
-1.5175978e-06
1.467692e-08
-0.00023405972
-1.5175881e-06
5.4028671e-08
-0.00023407967
-1.5173855e-06
2.2374804e-08
-0.00023398116
-1.5172924e-06
3.1799371e-09
-0.00023404019
-1.5155504e-06
-2.434086e-09
-0.00023401803
-1.5134837e-06
-5.3291939e-09
-0.00023401219
-1.5136692e-06
-1.9940379e-08
-0.00023402933
-1.5161027e-06
-4.4977048e-08
-0.00023396905
-1.5180506e-06
-5.972e-09
-0.00023407621
-1.5182835e-06
-9.4529792e-08
-0.00023407058
-1.5186719e-06
-5.1297697e-08
-0.00023391996
-1.5189024e-06
-3.5460129e-07
-0.00023424482
-1.5368849e-06
-2.3297399e-07
-0.00023373216
-1.5379618e-06
-6.8555987e-07
-0.00023498399
-1.6138929e-06
-0.00023317171
-1.4783483e-06
9.2454167e-07
-0.00018671829
1.1912092e-07
-2.9541254e-07
-0.00018880114
1.6404947e-07
-3.3565261e-07
-0.00018820978
1.2901611e-07
-3.3027608e-07
-0.00018853463
1.3670631e-07
-2.8186615e-07
-0.00018828101
1.3420679e-07
-1.2425829e-07
-0.00018824383
1.2992902e-07
-2.3972184e-08
-0.00018826046
1.3142327e-07
6.705053e-09
-0.0001882316
1.2967365e-07
2.7296036e-09
-0.00018830484
1.292774e-07
-4.1261515e-09
-0.00018829498
1.2855144e-07
-1.1995554e-08
-0.00018829204
1.2863411e-07
-1.4898261e-08
-0.00018829987
1.2936709e-07
1.6227742e-08
-0.00018822944
1.2970319e-07
1.1941868e-07
-0.00018826561
1.3120086e-07
2.8028099e-07
-0.00018826513
1.2885338e-07
3.2715889e-07
-0.00018830439
1.3397956e-07
3.3145174e-07
-0.00018855511
1.3771937e-07
2.9045144e-07
-0.00018822737
1.3322978e-07
-9.2868372e-07
-0.00018881129
1.697188e-07
-0.00018672535
1.2889903e-07
6.6918927e-07
-9.3805681e-05
-9.6287103e-07
3.4230401e-07
-9.4599958e-05
-9.8612033e-07
8.6270345e-07
-9.4435648e-05
-9.7245374e-07
2.7572409e-07
-9.4464429e-05
-9.6924544e-07
4.066997e-07
-9.448801e-05
-9.7502062e-07
7.1429375e-08
-9.4249308e-05
-9.7289511e-07
1.3746329e-07
-9.4389517e-05
-9.7577749e-07
9.7270273e-09
-9.432525e-05
-9.7385343e-07
-1.3360387e-08
-9.4454833e-05
-9.7562742e-07
3.2201468e-09
-9.438929e-05
-9.7497971e-07
1.913941e-08
-9.4386292e-05
-9.7496446e-07
-6.0306449e-09
-9.4443364e-05
-9.7583278e-07
-1.369487e-07
-9.4317656e-05
-9.7412574e-07
-7.0882405e-08
-9.4380588e-05
-9.7628279e-07
-4.0187951e-07
-9.424944e-05
-9.7317349e-07
-2.710961e-07
-9.4490762e-05
-9.7549056e-07
-8.5875702e-07
-9.4459745e-05
-9.7067562e-07
-3.3721818e-07
-9.4418786e-05
-9.7410644e-07
-6.6520825e-07
-9.4584722e-05
-9.8949024e-07
-9.378461e-05
-9.6452539e-07
-7.3107187e-07
6.1157352e-05
2.0858618e-06
-6.3170853e-07
5.9904957e-05
2.0946364e-06
-8.3181904e-07
5.9934145e-05
2.0975241e-06
-3.6193118e-07
5.9884354e-05
2.0946225e-06
-4.6701925e-07
5.9998979e-05
2.0965119e-06
-2.3216389e-07
5.9976125e-05
2.0949296e-06
-2.657202e-07
6.0101569e-05
2.09635e-06
-1.2048404e-07
6.0075245e-05
2.0964019e-06
-5.8725409e-08
6.0147887e-05
2.0974328e-06
-2.4315385e-09
6.017187e-05
2.0978007e-06
4.8174809e-08
6.0172088e-05
2.0978469e-06
1.0044102e-07
6.0151338e-05
2.0970791e-06
2.3453693e-07
6.0085563e-05
2.0960217e-06
1.991754e-07
6.0105261e-05
2.0963618e-06
4.4538947e-07
6.0000338e-05
2.0955439e-06
3.5808457e-07
6.00186e-05
2.0969195e-06
8.3926974e-07
5.9922044e-05
2.0952104e-06
6.4450343e-07
5.9974476e-05
2.0984516e-06
7.424735e-07
5.9936057e-05
2.0966995e-06
6.1187162e-05
2.0890323e-06
3.1500948e-06
6.1436473e-05
-3.7360449e-06
6.3513644e-07
6.6833817e-05
-3.7092528e-06
1.4838954e-06
6.6504355e-05
-3.4389274e-06
6.1754287e-07
6.6952643e-05
-3.3743767e-06
9.9368281e-07
6.789247e-05
-3.7245414e-06
3.0264452e-07
6.8256453e-05
-3.7409512e-06
3.4994368e-07
6.7992593e-05
-3.8459653e-06
1.0720046e-07
6.8155677e-05
-3.8910356e-06
9.2518375e-08
6.806754e-05
-4.0833648e-06
1.6265315e-08
6.8112722e-05
-4.0431072e-06
-6.2323794e-08
6.8111929e-05
-4.0335214e-06
-8.2104141e-08
6.8062369e-05
-4.0884766e-06
-3.3560383e-07
6.815285e-05
-3.8397328e-06
-2.8045122e-07
6.7984748e-05
-3.9219746e-06
-9.6859551e-07
6.8252921e-05
-3.7388367e-06
-5.7645183e-07
6.7885509e-05
-3.7230954e-06
-1.4531596e-06
6.6210384e-05
-3.4177061e-06
-6.5256309e-07
6.7191132e-05
-3.5519839e-06
-3.161137e-06
6.6825972e-05
-3.7137193e-06
6.142128e-05
-3.7331624e-06
-2.4573565e-06
-6.6537463e-05
1.6404047e-06
-5.3536254e-07
-6.7198247e-05
1.6138756e-06
-1.3920128e-06
-6.7713345e-05
1.3823816e-06
-6.977512e-07
-6.6925432e-05
1.3144972e-06
-1.099754e-06
-6.7636913e-05
1.63973e-06
-3.7201494e-07
-6.7092568e-05
1.657351e-06
-4.2350649e-07
-6.7633526e-05
1.754802e-06
-1.535506e-07
-6.7654153e-05
1.7985512e-06
-1.0610223e-07
-6.7634498e-05
1.9900678e-06
-1.4743679e-08
-6.7645083e-05
1.9472361e-06
7.8277347e-08
-6.7644662e-05
1.9367031e-06
1.1810061e-07
-6.763674e-05
1.9937853e-06
3.8570236e-07
-6.711472e-05
1.7468302e-06
3.4618342e-07
-6.7633379e-05
1.8271083e-06
1.0806163e-06
-6.7095336e-05
1.6526834e-06
6.8294736e-07
-6.7637567e-05
1.638129e-06
1.3860099e-06
-6.6935192e-05
1.3544633e-06
5.7058413e-07
-6.772014e-05
1.4849041e-06
2.4883079e-06
-6.6464863e-05
1.6224464e-06
-6.6549601e-05
1.6449837e-06
-5.3484711e-08
-4.7761867e-07
6.3068114e-07
-9.7869981e-07
4.0613858e-07
-6.8956306e-07
4.519547e-07
-7.5532113e-07
3.9845352e-07
-7.3467447e-07
3.8876633e-07
-7.4138968e-07
3.2274176e-07
-7.366619e-07
2.6144832e-07
-7.3497036e-07
1.3924264e-07
-7.3685937e-07
1.0464002e-08
-7.359798e-07
-1.2094441e-07
-7.3453199e-07
-2.3834483e-07
-7.3387439e-07
-2.9337346e-07
-7.2481216e-07
-3.7075734e-07
-7.3337885e-07
-4.0008858e-07
-7.4026502e-07
-4.6973197e-07
-7.3688678e-07
-4.103614e-07
-7.6277519e-07
-6.3839812e-07
-6.9567692e-07
2.8181506e-08
-1.0191073e-06
-4.8038422e-07
-4.9990989e-06
-5.8600204e-05
-7.5959099e-08
-6.9277477e-05
-3.4661943e-07
-6.4141278e-05
2.9478243e-08
-6.5289645e-05
-2.2105882e-08
-6.4956163e-05
-1.6504128e-09
-6.5105776e-05
-4.186468e-08
-6.5102838e-05
-3.5775266e-08
-6.5034509e-05
-2.1748194e-08
-6.4999449e-05
-1.9249185e-09
-6.4972528e-05
1.9710387e-08
-6.4973583e-05
3.8991624e-08
-6.5000938e-05
4.9271094e-08
-6.503774e-05
1.1803023e-08
-6.5110002e-05
2.498468e-08
-6.5112529e-05
-3.1091164e-08
-6.4965802e-05
3.4252502e-07
-6.5297128e-05
7.179572e-08
-6.4150355e-05
4.9977415e-06
-6.9284904e-05
-5.8614829e-05
1.5348354e-06
-0.00010959143
-2.5633239e-08
-0.00011698688
-6.5485265e-08
-0.000113127
2.20778e-08
-0.0001142222
1.3289479e-08
-0.00011385758
6.9089415e-09
-0.00011405381
-3.1201647e-08
-0.00011407236
-2.9193241e-08
-0.00011395182
-1.8091892e-08
-0.00011392358
-1.9048833e-09
-0.00011388752
1.6544104e-08
-0.0001138879
3.3966391e-08
-0.00011392512
4.0342611e-08
-0.00011395657
3.1958636e-09
-0.00011408657
-6.3174393e-09
-0.00011406921
-2.3269014e-08
-0.0001138772
6.115469e-08
-0.00011424264
1.9264864e-08
-0.00011314443
-1.5375367e-06
-0.00011700316
-0.00010960861
1.2052669e-06
-0.00016684693
-2.9581458e-07
-0.00017120203
-2.8861135e-07
-0.00016849048
-1.293504e-07
-0.00016965566
-1.0536038e-07
-0.00016902129
-4.4763647e-08
-0.00016929703
-3.8637962e-08
-0.00016927635
-1.7714833e-08
-0.00016914463
-9.0040243e-09
-0.00016911856
-3.8512076e-09
-0.00016907807
3.8302787e-09
-0.000169078
1.8638761e-08
-0.00016912105
4.4170685e-08
-0.00016915197
5.2519735e-08
-0.00016929814
1.0801454e-07
-0.00016932492
1.2552995e-07
-0.00016905439
2.8246738e-07
-0.00016968891
2.8936402e-07
-0.00016852138
-1.2094925e-06
-0.00017122896
-0.00016687165
6.4710636e-07
-0.00023056638
2.334043e-07
-0.00023229865
3.5740557e-07
-0.00023106779
5.3336816e-08
-0.00023156121
9.7889625e-08
-0.00023123973
1.4545475e-08
-0.000231386
5.3624759e-08
-0.00023140787
2.2953029e-08
-0.00023130887
3.6939637e-09
-0.0002313682
-2.5660007e-09
-0.00023134628
-6.3571234e-09
-0.00023134045
-2.0704837e-08
-0.0002313574
-4.4759886e-08
-0.0002312969
-5.9571575e-09
-0.00023140463
-9.3902519e-08
-0.00023139719
-5.5989165e-08
-0.00023124852
-3.6051672e-07
-0.00023156302
-2.3616508e-07
-0.00023106708
-6.4756508e-07
-0.00023228692
-0.0002305524
9.3017778e-07
-0.00018313169
-2.8993431e-07
-0.00018513393
-3.3260561e-07
-0.00018456599
-3.2734398e-07
-0.00018488414
-2.7838476e-07
-0.00018463987
-1.2294804e-07
-0.00018460038
-2.225365e-08
-0.00018461907
7.302756e-09
-0.00018458958
3.1508141e-09
-0.00018466355
-4.0130658e-09
-0.00018465378
-1.2241964e-08
-0.00018465077
-1.5339677e-08
-0.00018465849
1.4561284e-08
-0.00018458729
1.1812204e-07
-0.00018462402
2.7717714e-07
-0.00018462127
3.2475933e-07
-0.00018466299
3.2927046e-07
-0.00018490436
2.8587131e-07
-0.00018458343
-9.3358693e-07
-0.00018514427
-0.00018313853
6.4785287e-07
-9.2453283e-05
3.3707562e-07
-9.3229333e-05
8.4971351e-07
-9.3043803e-05
2.719652e-07
-9.3072122e-05
3.9952351e-07
-9.3114727e-05
6.9800394e-08
-9.2879168e-05
1.343012e-07
-9.3023972e-05
9.1136325e-09
-9.2963414e-05
-1.4111257e-08
-9.3102717e-05
3.1047481e-09
-9.3035208e-05
1.9701109e-08
-9.3031684e-05
-5.3615821e-09
-9.3091503e-05
-1.3409748e-07
-9.295285e-05
-6.9376017e-08
-9.3019411e-05
-3.9493862e-07
-9.2878863e-05
-2.6768867e-07
-9.3117266e-05
-8.4615014e-07
-9.3070011e-05
-3.3233424e-07
-9.3033452e-05
-6.4381978e-07
-9.3214525e-05
-9.2432627e-05
-7.1581824e-07
6.7036477e-05
-6.2388563e-07
6.5901917e-05
-8.2095696e-07
6.5938839e-05
-3.5587087e-07
6.5891381e-05
-4.5940651e-07
6.5988631e-05
-2.2838255e-07
6.5964021e-05
-2.6096421e-07
6.6080644e-05
-1.1841308e-07
6.6052765e-05
-5.6902552e-08
6.6113284e-05
-2.2733787e-09
6.6138892e-05
4.6608404e-08
6.6139498e-05
9.8721262e-08
6.6116062e-05
2.3023438e-07
6.6065031e-05
1.9585378e-07
6.6080031e-05
4.3798986e-07
6.5987347e-05
3.5224681e-07
6.6006787e-05
8.2859683e-07
6.5925575e-05
6.373386e-07
6.5973227e-05
7.2750823e-07
6.5932609e-05
6.7066045e-05
3.1192616e-06
5.7842524e-05
7.0232903e-07
6.7679522e-05
1.4602324e-06
6.6510105e-05
5.3754269e-07
6.1888774e-05
9.4672496e-07
6.6696224e-05
2.7171078e-07
6.1080479e-05
3.1096584e-07
6.6553019e-05
6.8273213e-08
6.1097488e-05
8.793612e-08
6.4031726e-05
1.777643e-08
6.1926891e-05
-5.3801001e-08
6.1805106e-05
-4.6760993e-08
6.3493038e-05
-3.1527999e-07
6.0957283e-05
-2.4188865e-07
6.6225971e-05
-9.1998395e-07
6.1082666e-05
-5.1169157e-07
6.669023e-05
-1.4408209e-06
6.1882845e-05
-7.0105027e-07
6.6502613e-05
-3.1219309e-06
6.7669814e-05
5.7826232e-05
-2.4341007e-06