/*--------------------------------*- C++ -*----------------------------------*\
  =========                 |
  \\      /  F ield         | OpenFOAM: The Open Source CFD Toolbox
   \\    /   O peration     | Website:  https://openfoam.org
    \\  /    A nd           | Version:  8
     \\/     M anipulation  |
\*---------------------------------------------------------------------------*/
FoamFile
{
    version     2.0;
    format      ascii;
    class       volVectorField;
    location    "1";
    object      U;
}
// * * * * * * * * * * * * * * * * * * * * * * * * * * * * * * * * * * * * * //

dimensions      [0 1 -1 0 0 0 0];

internalField   nonuniform List<vector> 
800
(
(-0.0015856803 0.36194036 -0.0029818441)
(0.00014082664 0.36330394 -0.002985895)
(-0.00015953216 0.36357356 -0.0029970941)
(5.1156171e-05 0.3635522 -0.0029972237)
(-3.9557815e-05 0.36354631 -0.0029979834)
(3.0306696e-05 0.36357211 -0.0029980597)
(-2.989318e-05 0.36355162 -0.0029979902)
(1.61131e-05 0.36357156 -0.0029981853)
(-2.5484668e-05 0.36356154 -0.0029982261)
(1.9870436e-05 0.36356799 -0.0029983437)
(-2.0455961e-05 0.36356809 -0.0029983384)
(2.5511914e-05 0.36356161 -0.0029982153)
(-1.5216483e-05 0.36357191 -0.0029981704)
(3.1175724e-05 0.36355187 -0.0029979727)
(-2.9308215e-05 0.36357279 -0.002998044)
(3.9538238e-05 0.36354671 -0.0029979644)
(-5.1643543e-05 0.36355309 -0.0029972333)
(0.00015883354 0.36357418 -0.0029971523)
(-0.00014128461 0.36330487 -0.002985886)
(0.0015857226 0.36194088 -0.0029819251)
(0.00030980204 -0.42900167 0.00037163063)
(5.3794397e-05 -0.431847 0.00036651455)
(-5.6834454e-05 -0.43155914 0.00037119245)
(3.9436479e-05 -0.43166612 0.00037216498)
(-3.1985383e-05 -0.43162012 0.0003724308)
(3.3600195e-05 -0.43166725 0.00037236183)
(-3.1001477e-05 -0.43164272 0.0003723854)
(2.1569276e-05 -0.43165827 0.00037241072)
(-2.7876405e-05 -0.43164245 0.00037245359)
(2.3681416e-05 -0.43164688 0.00037250127)
(-2.4176848e-05 -0.4316471 0.00037250122)
(2.8025998e-05 -0.43164263 0.0003724526)
(-2.0584428e-05 -0.43165893 0.00037241335)
(3.24489e-05 -0.4316437 0.00037239497)
(-3.252464e-05 -0.43166864 0.00037236961)
(3.2073998e-05 -0.43162151 0.00037242505)
(-3.9814439e-05 -0.43166777 0.00037216142)
(5.6155092e-05 -0.43156062 0.00037118996)
(-5.4304362e-05 -0.43184863 0.00036651736)
(-0.00030996828 -0.42900369 0.00037167705)
(0.0002390915 0.48717485 0.00016722351)
(1.7897707e-05 0.48952227 0.00016530164)
(-8.1875173e-05 0.48970375 0.00016697821)
(1.8531232e-05 0.48967324 0.00016697515)
(-4.2648911e-05 0.48967055 0.00016755787)
(1.7193366e-05 0.48969797 0.00016740271)
(-2.5235022e-05 0.48966581 0.00016740337)
(1.5885094e-05 0.48970198 0.00016748246)
(-1.9173353e-05 0.48968751 0.00016756721)
(1.7140912e-05 0.48969834 0.00016765366)
(-1.7977646e-05 0.48969848 0.00016764477)
(1.8918499e-05 0.48968732 0.00016753797)
(-1.5463074e-05 0.48970184 0.00016744446)
(2.6064027e-05 0.48966462 0.00016735157)
(-1.6451238e-05 0.48969708 0.00016734555)
(4.2459068e-05 0.48966903 0.00016748574)
(-1.9095943e-05 0.48967179 0.00016692344)
(8.1189679e-05 0.48970247 0.00016694468)
(-1.8661057e-05 0.48952122 0.00016527162)
(-0.00023925778 0.48717414 0.00016719129)
(0.0001453341 -0.59581173 7.4165084e-05)
(-1.7777049e-05 -0.59920542 8.0287915e-05)
(5.2927808e-05 -0.59901233 7.6855574e-05)
(2.0550818e-05 -0.59914214 7.6698343e-05)
(-1.3771967e-05 -0.59904989 7.6059671e-05)
(3.3326188e-05 -0.59912227 7.6021093e-05)
(-2.9471684e-05 -0.59907988 7.6021826e-05)
(3.7108696e-05 -0.5991052 7.6019009e-05)
(-3.193739e-05 -0.59908465 7.5955089e-05)
(3.2202234e-05 -0.59909308 7.5877085e-05)
(-3.2668085e-05 -0.59909307 7.5885209e-05)
(3.1969708e-05 -0.59908434 7.5979252e-05)
(-3.6694734e-05 -0.59910548 7.6052747e-05)
(3.0535924e-05 -0.59908079 7.6061935e-05)
(-3.2421198e-05 -0.59912433 7.606532e-05)
(1.3529101e-05 -0.59905188 7.6114855e-05)
(-2.0726896e-05 -0.59914403 7.679868e-05)
(-5.3337481e-05 -0.59901401 7.7005762e-05)
(1.7693673e-05 -0.59920659 8.0412919e-05)
(-0.00014526902 -0.59581277 7.4362722e-05)
(0.00010603212 0.66778925 -2.0941111e-05)
(2.1628833e-05 0.67149624 -2.2089069e-05)
(-5.3971115e-05 0.67145135 -2.1209162e-05)
(-1.0857395e-05 0.67151924 -2.1386001e-05)
(-3.3027818e-05 0.67146259 -2.1334404e-05)
(-8.899795e-06 0.67152894 -2.123032e-05)
(-1.148432e-05 0.67147484 -2.126915e-05)
(8.5570878e-06 0.67152128 -2.1227394e-05)
(-7.7081784e-06 0.6714888 -2.1220418e-05)
(8.0244471e-06 0.67150309 -2.1203689e-05)
(-8.6799585e-06 0.67150361 -2.1205394e-05)
(7.1769963e-06 0.67148918 -2.1221863e-05)
(-9.0780728e-06 0.67152215 -2.1227321e-05)
(1.0877572e-05 0.67147483 -2.1262826e-05)
(8.7759509e-06 0.67152807 -2.1204097e-05)
(3.2971229e-05 0.67146176 -2.1326963e-05)
(1.0465515e-05 0.6715189 -2.1407678e-05)
(5.3811498e-05 0.67145098 -2.1304663e-05)
(-2.2020964e-05 0.67149651 -2.2245075e-05)
(-0.0001061471 0.66778949 -2.1161072e-05)
(0.00015816643 -0.81143381 4.7634858e-05)
(-5.5031013e-05 -0.81604883 4.8606501e-05)
(8.8867809e-05 -0.81592036 4.8491465e-05)
(3.5074848e-05 -0.81603524 4.8306772e-05)
(-1.2495829e-06 -0.815935 4.8544321e-05)
(5.1420722e-05 -0.81600999 4.8419971e-05)
(-3.9628751e-05 -0.8159484 4.8550164e-05)
(5.4701833e-05 -0.81600149 4.8461885e-05)
(-5.2803065e-05 -0.81597437 4.8521797e-05)
(4.9934479e-05 -0.81599065 4.8507823e-05)
(-4.9537965e-05 -0.81599069 4.8506541e-05)
(5.3267119e-05 -0.81597373 4.852466e-05)
(-5.4486954e-05 -0.81600171 4.8466268e-05)
(3.9397208e-05 -0.81594853 4.8557147e-05)
(-5.1078607e-05 -0.81601148 4.8429731e-05)
(1.4633366e-06 -0.81593678 4.8555458e-05)
(-3.4795717e-05 -0.81603704 4.8333589e-05)
(-8.8756485e-05 -0.81592168 4.8521349e-05)
(5.5557214e-05 -0.81604963 4.869701e-05)
(-0.00015810947 -0.81143392 4.7684015e-05)
(-7.9514554e-05 0.93926297 -7.0838786e-05)
(-1.2317905e-05 0.94454609 -7.115129e-05)
(-5.5810537e-05 0.94442244 -7.1277556e-05)
(-3.2660255e-05 0.94454868 -7.1165805e-05)
(-1.3990191e-05 0.94442761 -7.1239571e-05)
(-3.2525155e-05 0.94454391 -7.1183592e-05)
(9.9843584e-07 0.94445415 -7.1243982e-05)
(-2.6426651e-05 0.94452531 -7.1238695e-05)
(1.074785e-05 0.94447741 -7.127815e-05)
(-1.6029244e-05 0.94450519 -7.1289e-05)
(1.5823576e-05 0.94450562 -7.1290866e-05)
(-1.1630611e-05 0.94447783 -7.1269728e-05)
(2.4971023e-05 0.94452664 -7.1228486e-05)
(-3.0019296e-06 0.94445445 -7.124995e-05)
(3.0559364e-05 0.94454532 -7.1204276e-05)
(1.3547907e-05 0.94442901 -7.1253856e-05)
(3.2657153e-05 0.94455062 -7.117623e-05)
(5.6662824e-05 0.94442479 -7.1300174e-05)
(1.3062965e-05 0.94454824 -7.1191912e-05)
(8.0103048e-05 0.93926492 -7.0903182e-05)
(0.00037503382 -1.0920705 0.00010351625)
(-4.7793976e-05 -1.0983424 0.00010353192)
(0.00010416609 -1.0981973 9.8871927e-05)
(5.2691442e-05 -1.0983471 9.7212553e-05)
(-5.3535251e-06 -1.0981964 0.00010405063)
(9.8672245e-05 -1.0983353 0.00010423943)
(-7.0199929e-05 -1.0982178 0.00010628674)
(9.7634854e-05 -1.0983053 0.00010701783)
(-8.9074668e-05 -1.098243 0.00011049563)
(9.6539439e-05 -1.0982737 0.00010976409)
(-9.4963082e-05 -1.0982742 0.00010959773)
(9.088757e-05 -1.0982432 0.00011057849)
(-9.7247184e-05 -1.0983057 0.00010608248)
(7.0358682e-05 -1.098218 0.00010767141)
(-9.6573086e-05 -1.0983344 0.00010417644)
(6.3428894e-06 -1.098196 0.00010400647)
(-5.1203702e-05 -1.0983458 9.7980689e-05)
(-0.0001039011 -1.0981965 0.00010084705)
(4.7794686e-05 -1.0983415 0.00010356988)
(-0.00037531358 -1.0920695 0.00010344203)
(-0.00027407979 1.2889485 -5.7058281e-05)
(5.2052407e-05 1.2969919 -5.6990705e-05)
(-9.1500008e-05 1.2962907 -5.2859986e-05)
(-3.8362951e-05 1.2967972 -5.1262043e-05)
(-6.3181668e-06 1.2963956 -5.7597911e-05)
(-8.2495029e-05 1.2966773 -5.7801497e-05)
(5.2576652e-05 1.2964569 -5.9584938e-05)
(-8.2229725e-05 1.2966125 -6.022246e-05)
(7.1389032e-05 1.2965126 -6.3290785e-05)
(-7.8626745e-05 1.2965623 -6.2617681e-05)
(7.7227838e-05 1.2965626 -6.2455216e-05)
(-7.2520107e-05 1.2965115 -6.3320304e-05)
(8.0513055e-05 1.2966117 -5.9315212e-05)
(-5.3146961e-05 1.2964564 -6.0786324e-05)
(8.0680818e-05 1.2966764 -5.7690155e-05)
(6.3205725e-06 1.2963939 -5.7546279e-05)
(3.8714272e-05 1.2967948 -5.2003643e-05)
(9.1661361e-05 1.2962879 -5.4750873e-05)
(-5.0980811e-05 1.2969893 -5.7232402e-05)
(0.0002750446 1.2889453 -5.7166629e-05)
(-0.00025212314 -1.5200422 -0.0022650275)
(0.00027635584 -1.5294063 -0.0022767411)
(-0.00022789663 -1.5287087 -0.0022810805)
(0.00025142563 -1.5292541 -0.002280447)
(-0.00021316367 -1.5288134 -0.0022804133)
(0.00023592743 -1.5291424 -0.0022806355)
(-0.00020366648 -1.5288841 -0.0022804628)
(0.0002236752 -1.5290703 -0.0022806833)
(-0.00020320873 -1.5289488 -0.0022805167)
(0.00021232821 -1.5290096 -0.0022805881)
(-0.00021144875 -1.5290099 -0.0022806057)
(0.00020357138 -1.5289481 -0.0022805718)
(-0.000222126 -1.5290701 -0.0022808684)
(0.00020395628 -1.5288832 -0.0022805178)
(-0.00023487495 -1.529142 -0.0022806468)
(0.000211866 -1.5288119 -0.0022803799)
(-0.00025174342 -1.5292531 -0.0022803667)
(0.00022770974 -1.5287072 -0.002280971)
(-0.00027719349 -1.5294052 -0.0022759821)
(0.00025067756 -1.520041 -0.0022650121)
(-0.0016362375 0.36833658 0.001167355)
(0.00015095911 0.36970424 0.001196539)
(-0.00016659814 0.36999448 0.0011883887)
(5.1198333e-05 0.36997381 0.0011880821)
(-4.0620359e-05 0.36996925 0.0011874281)
(3.0666332e-05 0.36999511 0.0011875195)
(-3.0410611e-05 0.36997452 0.0011874672)
(1.6350455e-05 0.36999478 0.0011874124)
(-2.5965375e-05 0.3699848 0.0011872828)
(2.0188972e-05 0.36999147 0.0011872159)
(-2.0764916e-05 0.36999156 0.0011872225)
(2.5998648e-05 0.36998486 0.0011872967)
(-1.5448913e-05 0.36999512 0.0011874327)
(3.169452e-05 0.36997476 0.001187492)
(-2.9666127e-05 0.36999578 0.0011875441)
(4.0588794e-05 0.36996963 0.001187457)
(-5.1723393e-05 0.36997471 0.0011880838)
(0.00016590944 0.36999515 0.0011883424)
(-0.0001514291 0.36970516 0.001196561)
(0.0016362357 0.36833722 0.0011672865)
(0.00031195165 -0.43925533 0.00039208511)
(5.3360952e-05 -0.44222223 0.00038606772)
(-5.4938318e-05 -0.44191707 0.00039069629)
(4.0572891e-05 -0.44202509 0.0003916762)
(-3.2496382e-05 -0.44197689 0.00039194383)
(3.3977791e-05 -0.44202492 0.00039187253)
(-3.1448223e-05 -0.4419999 0.00039189985)
(2.1990179e-05 -0.44201566 0.00039191978)
(-2.8265238e-05 -0.44199937 0.00039196278)
(2.4113078e-05 -0.44200376 0.00039200784)
(-2.4605396e-05 -0.442004 0.00039200791)
(2.8419421e-05 -0.44199961 0.00039196252)
(-2.0996422e-05 -0.44201639 0.00039192347)
(3.2900895e-05 -0.44200096 0.00039191121)
(-3.2907331e-05 -0.44202642 0.00039188202)
(3.2581256e-05 -0.44197841 0.00039194015)
(-4.0947457e-05 -0.44202683 0.00039167464)
(5.4263863e-05 -0.44191858 0.00039069616)
(-5.3846794e-05 -0.44222395 0.00038607311)
(-0.00031209503 -0.43925735 0.00039213345)
(0.00024140805 0.49746181 0.00020069081)
(1.7286832e-05 0.49989815 0.0001982141)
(-8.2187192e-05 0.50007592 0.00019984491)
(1.9098463e-05 0.50004379 0.00019984328)
(-4.3138435e-05 0.50004083 0.00020042878)
(1.7347714e-05 0.50006857 0.00020026254)
(-2.56323e-05 0.50003613 0.0002002657)
(1.6230813e-05 0.50007267 0.00020034562)
(-1.941168e-05 0.5000579 0.00020043596)
(1.7465164e-05 0.50006879 0.00020052524)
(-1.8328452e-05 0.50006893 0.00020051591)
(1.9135101e-05 0.50005773 0.000200406)
(-1.5827176e-05 0.50007255 0.00020030637)
(2.6445065e-05 0.50003497 0.00020021188)
(-1.6620471e-05 0.50006772 0.00020020323)
(4.2945877e-05 0.50003935 0.00020035389)
(-1.9647482e-05 0.50004243 0.00019978834)
(8.1510104e-05 0.50007478 0.00019980809)
(-1.8052564e-05 0.49989721 0.0001981805)
(-0.00024157471 0.49746122 0.00020065458)
(0.00015123824 -0.60870921 3.9463355e-05)
(-1.6932278e-05 -0.61220957 4.4567026e-05)
(5.167188e-05 -0.61201435 4.1179758e-05)
(2.0529585e-05 -0.61214617 4.100394e-05)
(-1.4283838e-05 -0.61205301 4.0376618e-05)
(3.378841e-05 -0.61212617 4.033463e-05)
(-2.9890524e-05 -0.61208308 4.0341634e-05)
(3.7582257e-05 -0.61210898 4.0331205e-05)
(-3.2522131e-05 -0.61208814 4.0267106e-05)
(3.2693466e-05 -0.61209683 4.0184441e-05)
(-3.3132501e-05 -0.61209681 4.019297e-05)
(3.2576855e-05 -0.61208782 4.0292596e-05)
(-3.7150388e-05 -0.61210923 4.0366671e-05)
(3.0968753e-05 -0.61208395 4.0384313e-05)
(-3.2868356e-05 -0.61212817 4.0382292e-05)
(1.4075003e-05 -0.61205494 4.0435269e-05)
(-2.0652666e-05 -0.61214805 4.1108595e-05)
(-5.2065493e-05 -0.61201606 4.1334451e-05)
(1.6874508e-05 -0.61221083 4.4696899e-05)
(-0.00015113559 -0.60871038 3.9665691e-05)
(0.00010594378 0.68251403 1.6319092e-05)
(2.098016e-05 0.68633565 1.5235246e-05)
(-5.4197407e-05 0.68629306 1.6102969e-05)
(-1.1002956e-05 0.68636154 1.5924516e-05)
(-3.3467185e-05 0.68630481 1.5979839e-05)
(-8.8454095e-06 0.68637198 1.6085035e-05)
(-1.1805525e-05 0.68631727 1.605004e-05)
(8.6422806e-06 0.68636433 1.6090647e-05)
(-7.8822337e-06 0.68633153 1.6100236e-05)
(8.1308549e-06 0.68634611 1.6115873e-05)
(-8.8034143e-06 0.68634662 1.61139e-05)
(7.336365e-06 0.6863319 1.6097843e-05)
(-9.1728616e-06 0.68636519 1.6089202e-05)
(1.1197404e-05 0.68631723 1.6054365e-05)
(8.7120395e-06 0.6863711 1.6108447e-05)
(3.3375936e-05 0.68630396 1.598445e-05)
(1.0551714e-05 0.68636115 1.5899463e-05)
(5.3966504e-05 0.6862926 1.6004427e-05)
(-2.1439829e-05 0.68633588 1.5076385e-05)
(-0.00010608985 0.68251415 1.6095666e-05)
(0.00016133288 -0.82918656 1.2694024e-05)
(-5.5325869e-05 -0.83394763 1.2743462e-05)
(8.9964812e-05 -0.83381794 1.2633371e-05)
(3.5518254e-05 -0.83393464 1.244947e-05)
(-1.0792008e-06 -0.83383273 1.2684261e-05)
(5.2126179e-05 -0.83390919 1.2560993e-05)
(-4.0069257e-05 -0.83384647 1.2682868e-05)
(5.5520494e-05 -0.83390045 1.2600247e-05)
(-5.3500732e-05 -0.83387279 1.2658112e-05)
(5.0756498e-05 -0.83388938 1.2645217e-05)
(-5.034474e-05 -0.83388942 1.2644319e-05)
(5.3981609e-05 -0.83387215 1.2661376e-05)
(-5.5288688e-05 -0.83390066 1.2605179e-05)
(3.9850414e-05 -0.8338466 1.2689748e-05)
(-5.1770172e-05 -0.83391069 1.2571041e-05)
(1.3092972e-06 -0.83383453 1.2696723e-05)
(-3.5223169e-05 -0.83393643 1.2476958e-05)
(-8.9815571e-05 -0.83381921 1.2664669e-05)
(5.5864529e-05 -0.83394835 1.2835182e-05)
(-0.0001612957 -0.82918657 1.2744638e-05)
(-8.0813396e-05 0.95982434 -3.526368e-05)
(-1.261652e-05 0.96527569 -3.5087993e-05)
(-5.6622551e-05 0.96514792 -3.5204005e-05)
(-3.2998494e-05 0.96527632 -3.5104231e-05)
(-1.4420344e-05 0.9651555 -3.5166706e-05)
(-3.2905519e-05 0.96527401 -3.5117797e-05)
(8.9155691e-07 0.9651834 -3.5172116e-05)
(-2.6820439e-05 0.96525613 -3.5172108e-05)
(1.0879779e-05 0.96520881 -3.5208277e-05)
(-1.6351091e-05 0.96523671 -3.5221615e-05)
(1.6128374e-05 0.96523708 -3.5223766e-05)
(-1.1776559e-05 0.96520926 -3.5200645e-05)
(2.5341394e-05 0.96525709 -3.5162399e-05)
(-2.9300388e-06 0.96518426 -3.5178101e-05)
(3.0923088e-05 0.96527539 -3.5140317e-05)
(1.396987e-05 0.96515688 -3.5181737e-05)
(3.2980894e-05 0.96527856 -3.5114723e-05)
(5.7455267e-05 0.96515103 -3.522739e-05)
(1.3333067e-05 0.96527782 -3.5131474e-05)
(8.1390996e-05 0.95982623 -3.5328363e-05)
(0.00038099428 -1.1166554 6.8125326e-05)
(-5.1664709e-05 -1.1231331 6.6463749e-05)
(0.00010267705 -1.1229837 6.1722755e-05)
(5.6284753e-05 -1.1231364 6.0088439e-05)
(-2.0357762e-06 -1.1229845 6.6910537e-05)
(0.00010127807 -1.1231259 6.7100635e-05)
(-6.9821031e-05 -1.1230069 6.9150863e-05)
(0.00010134608 -1.1230962 6.9875147e-05)
(-8.9076908e-05 -1.1230337 7.3354787e-05)
(9.7653496e-05 -1.1230647 7.2624271e-05)
(-9.6100044e-05 -1.1230651 7.246001e-05)
(9.0523678e-05 -1.1230339 7.3439689e-05)
(-0.00010028758 -1.1230962 6.8940949e-05)
(7.0430249e-05 -1.1230074 7.053126e-05)
(-9.9877999e-05 -1.123125 6.7039101e-05)
(3.4507608e-06 -1.122984 6.6868668e-05)
(-5.3777119e-05 -1.1231352 6.0855587e-05)
(-0.00010277011 -1.1229834 6.36996e-05)
(5.0647045e-05 -1.1231324 6.6501948e-05)
(-0.00038133008 -1.1166544 6.8052207e-05)
(-0.00027872138 1.3181064 -1.8413478e-05)
(5.543302e-05 1.3264054 -1.6966592e-05)
(-9.0147602e-05 1.3256939 -1.2734297e-05)
(-4.1565989e-05 1.3262095 -1.1189133e-05)
(-9.6367497e-06 1.3257986 -1.750403e-05)
(-8.4750176e-05 1.3260851 -1.7710626e-05)
(5.2052762e-05 1.3258603 -1.9491915e-05)
(-8.54399e-05 1.326018 -2.0122407e-05)
(7.1260714e-05 1.3259151 -2.3196481e-05)
(-7.9498346e-05 1.3259659 -2.2518843e-05)
(7.8146724e-05 1.3259662 -2.2355615e-05)
(-7.2036764e-05 1.325914 -2.3225558e-05)
(8.3125149e-05 1.3260174 -1.9214278e-05)
(-5.3037028e-05 1.3258592 -2.0694498e-05)
(8.3548028e-05 1.3260842 -1.7596149e-05)
(9.2031696e-06 1.325797 -1.7450609e-05)
(4.0938907e-05 1.3262069 -1.1929974e-05)
(9.0555541e-05 1.3256903 -1.4634726e-05)
(-5.34756e-05 1.326403 -1.7237849e-05)
(0.00027975181 1.3181032 -1.8535905e-05)
(-0.00029475537 -1.5545182 0.0022786281)
(0.00028804637 -1.5641843 0.0023073356)
(-0.00023358445 -1.5634756 0.0023015576)
(0.00025617488 -1.5640308 0.0023033373)
(-0.00021669893 -1.5635808 0.0023024601)
(0.00023985011 -1.5639152 0.0023029181)
(-0.00020699834 -1.5636522 0.0023025618)
(0.00022729111 -1.5638412 0.0023027112)
(-0.00020648998 -1.5637168 0.002302635)
(0.00021574068 -1.5637787 0.0023026792)
(-0.00021488612 -1.5637791 0.0023026601)
(0.00020678041 -1.5637161 0.0023025769)
(-0.00022573683 -1.5638412 0.0023025253)
(0.00020738328 -1.5636509 0.0023025088)
(-0.00023874079 -1.5639149 0.0023029024)
(0.0002154487 -1.5635794 0.0023024901)
(-0.0002564466 -1.5640295 0.0023034117)
(0.00023373294 -1.5634736 0.0023016682)
(-0.00028892456 -1.5641834 0.0023081288)
(0.00029293564 -1.554517 0.0022786399)
(-0.0016362375 0.36833658 -0.0011673541)
(0.00015095907 0.36970424 -0.0011965384)
(-0.00016659815 0.36999447 -0.001188388)
(5.1198276e-05 0.36997381 -0.0011880814)
(-4.0620463e-05 0.36996925 -0.0011874278)
(3.0666258e-05 0.36999511 -0.0011875195)
(-3.0410615e-05 0.36997452 -0.0011874674)
(1.6350513e-05 0.36999478 -0.0011874125)
(-2.5965361e-05 0.3699848 -0.0011872827)
(2.0188946e-05 0.36999147 -0.0011872159)
(-2.0764899e-05 0.36999156 -0.0011872225)
(2.5998695e-05 0.36998486 -0.0011872966)
(-1.5448884e-05 0.36999512 -0.0011874324)
(3.1694508e-05 0.36997476 -0.0011874916)
(-2.9666169e-05 0.36999578 -0.0011875439)
(4.0588751e-05 0.36996963 -0.0011874569)
(-5.1723415e-05 0.36997471 -0.0011880839)
(0.00016590947 0.36999515 -0.0011883425)
(-0.00015142909 0.36970516 -0.0011965609)
(0.0016362356 0.36833722 -0.0011672865)
(0.00031195161 -0.43925533 -0.00039208442)
(5.3360917e-05 -0.44222223 -0.00038606731)
(-5.4938315e-05 -0.44191707 -0.00039069584)
(4.0572849e-05 -0.44202509 -0.00039167577)
(-3.2496471e-05 -0.44197689 -0.00039194368)
(3.3977718e-05 -0.44202492 -0.00039187265)
(-3.1448232e-05 -0.4419999 -0.0003919002)
(2.1990231e-05 -0.44201566 -0.00039191995)
(-2.8265221e-05 -0.44199937 -0.00039196276)
(2.4113064e-05 -0.44200376 -0.00039200789)
(-2.4605383e-05 -0.442004 -0.000392008)
(2.8419463e-05 -0.44199961 -0.00039196249)
(-2.0996399e-05 -0.44201639 -0.00039192327)
(3.290089e-05 -0.44200097 -0.00039191101)
(-3.2907364e-05 -0.44202642 -0.00039188186)
(3.2581213e-05 -0.44197841 -0.00039194016)
(-4.0947476e-05 -0.44202683 -0.00039167476)
(5.4263881e-05 -0.44191858 -0.00039069629)
(-5.3846762e-05 -0.44222395 -0.00038607314)
(-0.00031209502 -0.43925735 -0.00039213338)
(0.00024140797 0.49746181 -0.00020069039)
(1.7286802e-05 0.49989815 -0.00019821426)
(-8.2187132e-05 0.50007592 -0.00019984473)
(1.9098452e-05 0.50004379 -0.00019984305)
(-4.3138486e-05 0.50004083 -0.00020042873)
(1.7347662e-05 0.50006857 -0.00020026263)
(-2.5632322e-05 0.50003613 -0.00020026599)
(1.6230844e-05 0.50007267 -0.00020034583)
(-1.9411664e-05 0.5000579 -0.00020043604)
(1.7465155e-05 0.50006879 -0.00020052536)
(-1.832844e-05 0.50006893 -0.00020051603)
(1.913512e-05 0.50005773 -0.00020040605)
(-1.5827151e-05 0.50007255 -0.00020030637)
(2.6445071e-05 0.50003497 -0.00020021179)
(-1.6620504e-05 0.50006772 -0.00020020319)
(4.2945848e-05 0.50003935 -0.00020035397)
(-1.96475e-05 0.50004243 -0.00019978851)
(8.1510115e-05 0.50007478 -0.00019980827)
(-1.8052555e-05 0.49989721 -0.0001981806)
(-0.00024157471 0.49746122 -0.00020065467)
(0.00015123817 -0.60870921 -3.9463716e-05)
(-1.693227e-05 -0.61220957 -4.456788e-05)
(5.1671984e-05 -0.61201435 -4.1180103e-05)
(2.0529611e-05 -0.61214617 -4.1004163e-05)
(-1.4283813e-05 -0.61205301 -4.0376837e-05)
(3.378842e-05 -0.61212617 -4.0334679e-05)
(-2.9890549e-05 -0.61208308 -4.034182e-05)
(3.7582222e-05 -0.61210898 -4.0331399e-05)
(-3.2522146e-05 -0.61208814 -4.0267408e-05)
(3.2693501e-05 -0.61209683 -4.0184708e-05)
(-3.3132504e-05 -0.61209681 -4.0193146e-05)
(3.2576866e-05 -0.61208782 -4.0292829e-05)
(-3.7150389e-05 -0.61210923 -4.0366706e-05)
(3.0968774e-05 -0.61208395 -4.0384416e-05)
(-3.2868338e-05 -0.61212817 -4.0382198e-05)
(1.407496e-05 -0.61205494 -4.0435403e-05)
(-2.065268e-05 -0.61214805 -4.1108758e-05)
(-5.2065481e-05 -0.61201606 -4.133474e-05)
(1.6874524e-05 -0.61221083 -4.4697038e-05)
(-0.0001511356 -0.60871038 -3.9665814e-05)
(0.00010594352 0.68251403 -1.6321125e-05)
(2.0980261e-05 0.68633565 -1.5238572e-05)
(-5.4197035e-05 0.68629306 -1.6104308e-05)
(-1.1002748e-05 0.68636154 -1.5925846e-05)
(-3.3466969e-05 0.68630481 -1.5979984e-05)
(-8.845426e-06 0.68637198 -1.6084984e-05)
(-1.1805593e-05 0.68631727 -1.6050297e-05)
(8.6422969e-06 0.68636433 -1.6091003e-05)
(-7.8822148e-06 0.68633153 -1.6100536e-05)
(8.1308515e-06 0.68634611 -1.6116079e-05)
(-8.8033814e-06 0.68634662 -1.6114011e-05)
(7.3363511e-06 0.6863319 -1.6097916e-05)
(-9.1728198e-06 0.68636519 -1.6089496e-05)
(1.1197425e-05 0.68631723 -1.6054359e-05)
(8.7119996e-06 0.6863711 -1.6108583e-05)
(3.3375948e-05 0.68630396 -1.5984502e-05)
(1.0551695e-05 0.68636115 -1.5899532e-05)
(5.3966487e-05 0.6862926 -1.6004518e-05)
(-2.1439829e-05 0.68633588 -1.5076487e-05)
(-0.00010608985 0.68251415 -1.6095796e-05)
(0.00016133321 -0.82918656 -1.2696801e-05)
(-5.5325585e-05 -0.83394763 -1.2744747e-05)
(8.9964761e-05 -0.83381794 -1.2634478e-05)
(3.5518304e-05 -0.83393464 -1.2450676e-05)
(-1.078979e-06 -0.83383273 -1.268466e-05)
(5.2126391e-05 -0.83390919 -1.2560464e-05)
(-4.0069331e-05 -0.83384647 -1.2682115e-05)
(5.5520143e-05 -0.83390045 -1.2600299e-05)
(-5.3500777e-05 -0.83387279 -1.2659228e-05)
(5.0756856e-05 -0.83388938 -1.2645522e-05)
(-5.0344833e-05 -0.83388942 -1.2643886e-05)
(5.3981446e-05 -0.83387215 -1.2661826e-05)
(-5.5288909e-05 -0.83390066 -1.2605396e-05)
(3.9850491e-05 -0.8338466 -1.2690601e-05)
(-5.1769915e-05 -0.83391069 -1.2570833e-05)
(1.3092651e-06 -0.83383453 -1.2696981e-05)
(-3.5223045e-05 -0.83393643 -1.2476704e-05)
(-8.9815536e-05 -0.83381921 -1.2664572e-05)
(5.5864442e-05 -0.83394835 -1.2835192e-05)
(-0.00016129578 -0.82918657 -1.2744947e-05)
(-8.081215e-05 0.95982435 3.5256025e-05)
(-1.2615837e-05 0.96527569 3.5089224e-05)
(-5.6623964e-05 0.96514792 3.5201657e-05)
(-3.2998163e-05 0.96527632 3.5095532e-05)
(-1.4419189e-05 0.9651555 3.5165558e-05)
(-3.2905593e-05 0.96527401 3.511657e-05)
(8.9158805e-07 0.9651834 3.5170817e-05)
(-2.6820127e-05 0.96525613 3.5171229e-05)
(1.0879812e-05 0.96520881 3.5208084e-05)
(-1.6351354e-05 0.96523671 3.5221098e-05)
(1.6128582e-05 0.96523708 3.5223158e-05)
(-1.1776393e-05 0.96520926 3.5201056e-05)
(2.5341655e-05 0.96525709 3.5162262e-05)
(-2.9300889e-06 0.96518426 3.5178922e-05)
(3.0922781e-05 0.96527539 3.5140027e-05)
(1.3969955e-05 0.96515688 3.5181977e-05)
(3.298083e-05 0.96527856 3.511477e-05)
(5.7455172e-05 0.96515103 3.5227525e-05)
(1.3333129e-05 0.96527782 3.5131547e-05)
(8.1391112e-05 0.95982623 3.5328559e-05)
(0.00038099551 -1.1166554 -6.8120303e-05)
(-5.1663763e-05 -1.1231331 -6.6456266e-05)
(0.0001026764 -1.1229837 -6.171761e-05)
(5.6282616e-05 -1.1231364 -6.0083783e-05)
(-2.0366466e-06 -1.1229845 -6.6912026e-05)
(0.00010127886 -1.1231259 -6.7099472e-05)
(-6.9821158e-05 -1.1230069 -6.9153518e-05)
(0.0001013444 -1.1230962 -6.987652e-05)
(-8.9076719e-05 -1.1230337 -7.3357944e-05)
(9.7656291e-05 -1.1230647 -7.2622689e-05)
(-9.6101047e-05 -1.1230651 -7.2452729e-05)
(9.0522604e-05 -1.1230339 -7.3441404e-05)
(-0.00010028967 -1.1230962 -6.8937307e-05)
(7.0430307e-05 -1.1230074 -7.0534415e-05)
(-9.9875697e-05 -1.123125 -6.7038014e-05)
(3.4503275e-06 -1.122984 -6.6869987e-05)
(-5.3775399e-05 -1.1231352 -6.0854404e-05)
(-0.00010276931 -1.1229834 -6.3696221e-05)
(5.0645571e-05 -1.1231324 -6.6501128e-05)
(-0.00038133091 -1.1166544 -6.8052952e-05)
(-0.00027871311 1.3181064 1.8463459e-05)
(5.5430174e-05 1.3264054 1.7071566e-05)
(-9.0162867e-05 1.3256939 1.2767024e-05)
(-4.1571312e-05 1.3262095 1.1186965e-05)
(-9.6381789e-06 1.3257986 1.7498628e-05)
(-8.4749096e-05 1.3260851 1.7700673e-05)
(5.2054061e-05 1.3258603 1.9495291e-05)
(-8.5440723e-05 1.326018 2.0122486e-05)
(7.1260708e-05 1.3259151 2.3191084e-05)
(-7.9497373e-05 1.3259659 2.2517355e-05)
(7.8146715e-05 1.3259662 2.2353739e-05)
(-7.2036883e-05 1.325914 2.3225115e-05)
(8.3124424e-05 1.3260174 1.9213779e-05)
(-5.3037018e-05 1.3258591 2.0689738e-05)
(8.3548926e-05 1.3260842 1.7596738e-05)
(9.2032495e-06 1.325797 1.7451284e-05)
(4.0938197e-05 1.3262069 1.1931169e-05)
(9.0555574e-05 1.3256903 1.4633944e-05)
(-5.3474913e-05 1.326403 1.7238332e-05)
(0.00027975165 1.3181032 1.8536306e-05)
(-0.00029477554 -1.5545182 -0.0022786376)
(0.00028804306 -1.5641843 -0.002307447)
(-0.00023356324 -1.5634756 -0.0023015699)
(0.00025617809 -1.5640308 -0.0023033332)
(-0.00021669935 -1.5635808 -0.0023024575)
(0.0002398491 -1.5639152 -0.0023029097)
(-0.00020699996 -1.5636522 -0.0023025629)
(0.00022729294 -1.5638412 -0.0023027101)
(-0.00020649015 -1.5637168 -0.0023026286)
(0.00021573793 -1.5637787 -0.002302679)
(-0.00021488541 -1.5637791 -0.0023026637)
(0.0002067812 -1.5637161 -0.0023025755)
(-0.00022573485 -1.5638412 -0.0023025276)
(0.0002073833 -1.5636509 -0.0023025031)
(-0.00023874295 -1.5639149 -0.0023029035)
(0.00021544894 -1.5635794 -0.0023024891)
(-0.00025644734 -1.5640295 -0.0023034133)
(0.00023373237 -1.5634736 -0.0023016696)
(-0.00028892401 -1.5641834 -0.0023081294)
(0.00029293639 -1.554517 -0.0022786393)
(-0.0015856804 0.36194036 0.0029818445)
(0.00014082653 0.36330394 0.0029858953)
(-0.00015953218 0.36357356 0.0029970943)
(5.1156039e-05 0.3635522 0.0029972239)
(-3.9558046e-05 0.36354631 0.0029979835)
(3.0306528e-05 0.36357211 0.0029980597)
(-2.9893189e-05 0.36355162 0.0029979901)
(1.6113236e-05 0.36357156 0.0029981853)
(-2.5484638e-05 0.36356154 0.0029982262)
(1.9870373e-05 0.36356799 0.0029983437)
(-2.0455923e-05 0.36356809 0.0029983384)
(2.5512026e-05 0.36356161 0.0029982153)
(-1.5216415e-05 0.36357191 0.0029981705)
(3.1175693e-05 0.36355187 0.0029979728)
(-2.9308296e-05 0.36357279 0.0029980441)
(3.9538139e-05 0.36354671 0.0029979645)
(-5.1643592e-05 0.36355309 0.0029972333)
(0.0001588336 0.36357418 0.0029971523)
(-0.00014128455 0.36330487 0.002985886)
(0.0015857226 0.36194088 0.0029819252)
(0.00030980194 -0.42900167 -0.00037163037)
(5.3794316e-05 -0.431847 -0.00036651441)
(-5.6834446e-05 -0.43155914 -0.00037119228)
(3.943637e-05 -0.43166612 -0.00037216483)
(-3.1985576e-05 -0.43162012 -0.00037243076)
(3.3600027e-05 -0.43166725 -0.00037236189)
(-3.1001496e-05 -0.43164272 -0.00037238554)
(2.1569405e-05 -0.43165827 -0.0003724108)
(-2.7876363e-05 -0.43164245 -0.00037245359)
(2.3681375e-05 -0.43164688 -0.0003725013)
(-2.4176813e-05 -0.4316471 -0.00037250127)
(2.8026102e-05 -0.43164263 -0.00037245259)
(-2.0584367e-05 -0.43165893 -0.00037241327)
(3.2448884e-05 -0.4316437 -0.00037239488)
(-3.2524717e-05 -0.43166864 -0.00037236955)
(3.2073899e-05 -0.43162151 -0.00037242505)
(-3.9814483e-05 -0.43166777 -0.00037216147)
(5.6155129e-05 -0.43156062 -0.00037119002)
(-5.4304294e-05 -0.43184863 -0.00036651737)
(-0.00030996825 -0.42900369 -0.00037167705)
(0.00023909131 0.48717485 -0.00016722332)
(1.7897632e-05 0.48952226 -0.00016530168)
(-8.1875049e-05 0.48970375 -0.00016697811)
(1.8531185e-05 0.48967324 -0.00016697507)
(-4.2649018e-05 0.48967055 -0.00016755784)
(1.7193245e-05 0.48969797 -0.00016740275)
(-2.5235063e-05 0.48966581 -0.00016740348)
(1.5885167e-05 0.48970198 -0.00016748253)
(-1.9173318e-05 0.48968751 -0.00016756724)
(1.7140899e-05 0.48969834 -0.00016765369)
(-1.7977623e-05 0.48969848 -0.0001676448)
(1.8918542e-05 0.48968732 -0.00016753799)
(-1.5463031e-05 0.48970184 -0.00016744445)
(2.6064039e-05 0.48966462 -0.00016735155)
(-1.6451292e-05 0.48969708 -0.00016734552)
(4.2458996e-05 0.48966903 -0.00016748576)
(-1.9095979e-05 0.48967179 -0.0001669235)
(8.1189703e-05 0.48970247 -0.00016694474)
(-1.8661025e-05 0.48952122 -0.00016527165)
(-0.00023925778 0.48717414 -0.00016719131)
(0.00014533392 -0.59581173 -7.4165208e-05)
(-1.7777049e-05 -0.59920543 -8.0288243e-05)
(5.2928017e-05 -0.59901234 -7.6855698e-05)
(2.055086e-05 -0.59914214 -7.6698463e-05)
(-1.3771907e-05 -0.59904989 -7.6059752e-05)
(3.3326192e-05 -0.59912227 -7.6021151e-05)
(-2.9471732e-05 -0.59907988 -7.6021921e-05)
(3.7108673e-05 -0.5991052 -7.6019111e-05)
(-3.193741e-05 -0.59908465 -7.5955162e-05)
(3.2202261e-05 -0.59909308 -7.5877193e-05)
(-3.2668063e-05 -0.59909307 -7.5885298e-05)
(3.1969765e-05 -0.59908434 -7.5979313e-05)
(-3.6694666e-05 -0.59910548 -7.605275e-05)
(3.0535966e-05 -0.59908079 -7.6061855e-05)
(-3.242123e-05 -0.59912433 -7.6065281e-05)
(1.3529016e-05 -0.59905188 -7.6114872e-05)
(-2.072696e-05 -0.59914403 -7.6798728e-05)
(-5.3337482e-05 -0.59901401 -7.7005888e-05)
(1.769374e-05 -0.59920659 -8.0412988e-05)
(-0.000145269 -0.59581277 -7.4362744e-05)
(0.00010603173 0.66778925 2.0940377e-05)
(2.1629084e-05 0.67149624 2.2088062e-05)
(-5.3970496e-05 0.67145135 2.1208732e-05)
(-1.0857003e-05 0.67151924 2.1385476e-05)
(-3.302734e-05 0.67146259 2.1334344e-05)
(-8.8998332e-06 0.67152894 2.1230322e-05)
(-1.1484457e-05 0.67147484 2.1269051e-05)
(8.5570539e-06 0.67152128 2.1227252e-05)
(-7.7081235e-06 0.6714888 2.1220221e-05)
(8.024542e-06 0.67150309 2.1203621e-05)
(-8.6799235e-06 0.67150361 2.12054e-05)
(7.1769191e-06 0.67148918 2.1221799e-05)
(-9.078074e-06 0.67152215 2.1227194e-05)
(1.0877628e-05 0.67147483 2.1262675e-05)
(8.7759617e-06 0.67152807 2.1204038e-05)
(3.2971249e-05 0.67146176 2.1326917e-05)
(1.046551e-05 0.6715189 2.1407631e-05)
(5.3811502e-05 0.67145098 2.1304637e-05)
(-2.2020978e-05 0.67149651 2.2245072e-05)
(-0.00010614712 0.66778949 2.1161022e-05)
(0.00015816684 -0.81143381 -4.763596e-05)
(-5.5030462e-05 -0.81604883 -4.8607434e-05)