/*--------------------------------*- C++ -*----------------------------------*\
  =========                 |
  \\      /  F ield         | OpenFOAM: The Open Source CFD Toolbox
   \\    /   O peration     | Website:  https://openfoam.org
    \\  /    A nd           | Version:  8
     \\/     M anipulation  |
\*---------------------------------------------------------------------------*/
FoamFile
{
    version     2.0;
    format      ascii;
    class       volScalarField;
    location    "0.500023";
    object      alphat;
}
// * * * * * * * * * * * * * * * * * * * * * * * * * * * * * * * * * * * * * //

dimensions      [1 -1 -1 0 0 0 0];

internalField   nonuniform List<scalar> 
6800
(
0.0881748
0.933034
2.15704
3.44425
4.72907
5.98765
7.21063
8.39327
9.53523
10.6374
0.0876462
0.927002
2.13944
3.41212
4.67927
5.91769
7.1171
8.27255
9.38108
10.4398
0.0870813
0.920261
2.12012
3.37708
4.6256
5.84278
7.0182
8.14692
9.22597
10.2535
0.0864938
0.912966
2.09949
3.34007
4.5696
5.76547
6.91742
8.0208
9.07307
10.0732
0.0859027
0.905282
2.07805
3.30207
4.51279
5.68787
6.81732
7.89675
8.924
9.89854
0.0853274
0.897451
2.0564
3.26408
4.4567
5.61199
6.7202
7.77717
8.78101
9.73144
0.0847898
0.889774
2.0353
3.22737
4.40299
5.53989
6.6285
7.66481
8.64708
9.57527
0.0843099
0.88261
2.0156
3.19324
4.35335
5.47372
6.54476
7.56263
8.52566
9.43398
0.0839051
0.876372
1.99826
3.16286
4.30967
5.41555
6.47168
7.47358
8.42025
9.31148
0.0835902
0.871487
1.98396
3.1378
4.27291
5.36778
6.41114
7.40066
8.33357
9.21142
0.0900595
0.964603
2.23976
3.58973
4.94967
6.29584
7.61631
8.90479
10.1577
11.3733
0.0901261
0.963796
2.23802
3.58728
4.94633
6.29128
7.61023
8.89689
10.1478
11.361
0.0901517
0.961757
2.23437
3.58205
4.93904
6.28134
7.59697
8.87973
10.1262
11.3347
0.0901279
0.959388
2.22942
3.5744
4.92803
6.26598
7.5764
8.85317
10.093
11.2942
0.090045
0.956805
2.22335
3.5645
4.9132
6.24513
7.54852
8.81732
10.0482
11.2396
0.0899018
0.953984
2.21615
3.55217
4.89445
6.21876
7.51342
8.77234
9.99223
11.1715
0.0896852
0.950835
2.20766
3.53716
4.87152
6.18671
7.47104
8.71847
9.9257
11.091
0.0894177
0.947286
2.19786
3.51934
4.84418
6.1486
7.42111
8.6559
9.8497
11.0003
0.0890704
0.943261
2.18651
3.49827
4.81189
6.10359
7.36275
8.58397
9.76484
10.903
0.0886547
0.938684
2.17302
3.47354
4.77366
6.0505
7.29355
8.49938
9.66767
10.8022
13.0502
15.0543
16.9473
18.7337
20.4199
22.0127
23.5187
24.9444
26.2955
27.5776
28.7954
29.9534
31.0558
32.1062
33.1072
34.0617
34.9722
35.841
36.6701
37.4613
38.2163
38.9365
39.6233
40.278
40.9016
41.4953
42.06
42.5965
43.1058
43.5885
44.0455
44.4775
44.8851
45.2693
45.6304
45.9689
46.2853
46.5804
46.8545
47.1082
47.3421
47.5567
47.7524
47.9297
48.0892
48.231
48.356
48.4648
48.5577
48.6353
48.6981
48.7467
48.7815
48.803
48.8118
48.8084
48.7934
48.7672
48.7304
48.6837
48.6275
48.5624
48.4889
48.4078
48.3195
48.2247
48.1239
48.0179
47.9071
47.7922
47.6738
47.5526
47.4292
47.3043
47.1784
47.0521
46.9262
46.8011
46.6776
46.5561
46.4373
46.3218
46.2099
46.1024
45.9995
45.9018
45.8097
45.7236
45.6437
45.5704
45.5038
45.4443
45.3919
45.3468
45.3089
45.2784
45.2552
45.2389
45.2305
45.2335
13.0293
15.0236
16.9095
18.6912
20.3743
21.9652
23.4704
24.8958
26.2473
27.5301
28.749
29.9083
31.0121
32.0641
33.0666
34.0228
34.935
35.8055
36.6362
37.4291
38.1857
38.9076
39.596
40.2523
40.8774
41.4726
42.0387
42.5766
43.0872
43.5712
44.0295
44.4627
44.8715
45.2567
45.6189
45.9584
46.2759
46.5718
46.8468
47.1014
47.3361
47.5514
47.7478
47.9258
48.0859
48.2283
48.3538
48.4631
48.5565
48.6345
48.6977
48.7466
48.7817
48.8035
48.8126
48.8094
48.7945
48.7685
48.7319
48.6852
48.6291
48.564
48.4906
48.4094
48.3211
48.2262
48.1254
48.0192
47.9083
47.7933
47.6748
47.5534
47.4298
47.3047
47.1786
47.0521
46.9259
46.8007
46.6769
46.5552
46.4362
46.3204
46.2084
46.1006
45.9975
45.8996
45.8073
45.721
45.6409
45.5674
45.5008
45.4411
45.3886
45.3434
45.3055
45.2749
45.2515
45.2353
45.2278
45.2279
12.9854
14.96
16.8318
18.6038
20.2805
21.8676
23.3709
24.7959
26.148
27.4323
28.6532
29.815
30.9216
31.9766
32.9824
33.9418
34.8574
35.7312
36.5654
37.3616
38.1216
38.8467
39.5384
40.1977
40.826
41.4241
41.9931
42.5339
43.0472
43.5339
43.9948
44.4304
44.8416
45.2291
45.5934
45.9351
46.2545
46.5524
46.8293
47.0856
47.322
47.5389
47.7368
47.9162
48.0776
48.2213
48.348
48.4583
48.5528
48.6318
48.6958
48.7456
48.7814
48.8039
48.8135
48.8109
48.7965
48.7709
48.7346
48.6882
48.6323
48.5674
48.4941
48.4131
48.3248
48.2299
48.129
48.0227
47.9117
47.7965
47.6778
47.5562
47.4324
47.307
47.1806
47.0538
46.9273
46.8017
46.6776
46.5555
46.4362
46.32
46.2076
46.0995
45.9961
45.8978
45.8052
45.7186
45.6383
45.5645
45.4976
45.4378
45.3851
45.3397
45.3016
45.2709
45.2475
45.2312
45.2239
45.2235
12.9188
14.8637
16.7143
18.4715
20.1386
21.7199
23.2202
24.6444
25.9974
27.2838
28.5078
29.6733
30.7841
31.8436
32.8541
33.8185
34.7391
35.618
36.4572
37.2585
38.0235
38.7536
39.4501
40.1142
40.7471
41.3497
41.9231
42.4682
42.9856
43.4764
43.941
44.3804
44.7952
45.1862
45.5538
45.8987
46.2212
46.5221
46.8017
47.0607
47.2996
47.5189
47.7192
47.9008
48.0643
48.2099
48.3384
48.4505
48.5465
48.6269
48.6924
48.7434
48.7803
48.8039
48.8145
48.8127
48.7991
48.7741
48.7385
48.6926
48.6371
48.5726
48.4995
48.4187
48.3305
48.2357
48.1348
48.0284
47.9172
47.8019
47.683
47.5611
47.437
47.3112
47.1844
47.0572
46.9302
46.8042
46.6796
46.557
46.4372
46.3205
46.2076
46.099
45.9952
45.8965
45.8034
45.7164
45.6357
45.5616
45.4944
45.4342
45.3813
45.3356
45.2974
45.2666
45.243
45.2266
45.2193
45.2188
12.8296
14.7351
16.5571
18.2945
19.9486
21.5219
23.0181
24.4412
25.7953
27.0844
28.3124
29.4828
30.5991
31.6646
32.6815
33.6524
34.5797
35.4654
36.3114
37.1195
37.8911
38.6278
39.3308
40.0012
40.6403
41.249
41.8283
42.3791
42.9021
43.3982
43.8681
44.3124
44.732
45.1276
45.4998
45.849
46.1756
46.4804
46.7639
47.0265
47.2689
47.4914
47.6948
47.8793
48.0456
48.1939
48.3249
48.4392
48.5374
48.6199
48.6872
48.7399
48.7785
48.8035
48.8154
48.8148
48.8023
48.7783
48.7435
48.6983
48.6434
48.5794
48.5068
48.4262
48.3382
48.2435
48.1426
48.0362
47.9249
47.8094
47.6902
47.568
47.4435
47.3173
47.19
47.0623
46.9348
46.8081
46.6829
46.5598
46.4393
46.3221
46.2085
46.0993
45.9948
45.8956
45.802
45.7144
45.6332
45.5586
45.491
45.4305
45.3772
45.3313
45.2928
45.2618
45.2381
45.2216
45.2142
45.2137
12.7189
14.5748
16.3609
18.0733
19.7107
21.2738
22.7647
24.1862
25.5415
26.8339
28.0667
29.2431
30.3663
31.4392
32.464
33.4432
34.3788
35.273
36.1275
36.944
37.724
38.4689
39.18
39.8584
40.5053
41.1216
41.7083
42.2662
42.7962
43.299
43.7754
44.2261
44.6518
45.0532
45.431
45.7856
46.1175
46.4272
46.7155
46.9826
47.2293
47.456
47.6633
47.8515
48.0214
48.173
48.3072
48.4245
48.5254
48.6104
48.6801
48.7351
48.7757
48.8025
48.8162
48.8171
48.806
48.7832
48.7495
48.7052
48.6512
48.5878
48.5157
48.4356
48.3479
48.2534
48.1526
48.0462
47.9348
47.819
47.6995
47.577
47.452
47.3253
47.1974
47.0691
46.941
46.8136
46.6877
46.5638
46.4426
46.3246
46.2103
46.1003
45.9951
45.8952
45.8009
45.7127
45.6308
45.5557
45.4876
45.4266
45.3729
45.3266
45.2879
45.2566
45.2327
45.2161
45.2086
45.208
12.5884
14.3843
16.1267
17.8085
19.4255
20.9759
22.4601
23.8793
25.2358
26.5319
27.7704
28.9539
30.0854
31.1671
32.2014
33.1903
34.136
35.0403
35.905
36.7316
37.5217
38.2765
38.9973
39.6853
40.3415
40.9669
41.5625
42.1291
42.6674
43.1784
43.6627
44.1209
44.5539
44.9624
45.3469
45.7081
46.0463
46.3621
46.6561
46.9288
47.1807
47.4124
47.6244
47.8172
47.9914
48.1471
48.285
48.4059
48.5101
48.5983
48.671
48.7286
48.7717
48.8008
48.8166
48.8194
48.81
48.7888
48.7563
48.7133
48.6602
48.5977
48.5264
48.4468
48.3595
48.2652
48.1646
48.0582
47.9467
47.8307
47.7109
47.5879
47.4625
47.3352
47.2067
47.0777
46.9488
46.8207
46.6939
46.5692
46.4471
46.3281
46.213
46.1021
45.996
45.8952
45.8002
45.7112
45.6286
45.5528
45.4841
45.4225
45.3683
45.3217
45.2825
45.251
45.2269
45.2101
45.2024
45.2019
12.4417
14.1657
15.8564
17.5017
19.0941
20.6291
22.1048
23.5209
24.8784
26.1786
27.4234
28.6151
29.7559
30.8479
31.8931
32.8934
33.8507
34.7668
35.6433
36.4818
37.2836
38.0499
38.7821
39.4813
40.1484
40.7845
41.3905
41.9671
42.5153
43.0358
43.5293
43.9965
44.4381
44.8547
45.2472
45.616
45.9616
46.2845
46.5853
46.8644
47.1226
47.3602
47.5778
47.7759
47.9551
48.1157
48.2581
48.3832
48.4914
48.5833
48.6594
48.7202
48.7663
48.7981
48.8164
48.8215
48.8141
48.7947
48.764
48.7224
48.6705
48.6091
48.5386
48.4596
48.3729
48.279
48.1786
48.0722
47.9606
47.8445
47.7243
47.601
47.475
47.347
47.2178
47.088
46.9583
46.8292
46.7015
46.5758
46.4527
46.3328
46.2166
46.1047
45.9976
45.8959
45.7998
45.71
45.6266
45.55
45.4805
45.4183
45.3636
45.3164
45.2768
45.2449
45.2206
45.2036
45.1958
45.1952
12.2852
13.9226
15.5522
17.1545
18.7177
20.2341
21.6993
23.1113
24.4692
25.7736
27.0254
28.2261
29.3774
30.481
31.5385
32.5517
33.5223
34.4519
35.3419
36.1938
37.009
37.7886
38.5338
39.2457
39.9253
40.5736
41.1915
41.7798
42.3392
42.8706
43.3747
43.8521
44.3035
44.7297
45.1312
45.5089
45.8629
46.194
46.5025
46.7892
47.0544
47.2988
47.5229
47.7272
47.9122
48.0783
48.226
48.3559
48.4688
48.5649
48.645
48.7096
48.7591
48.7942
48.8153
48.8231
48.8181
48.8009
48.7721
48.7322
48.6818
48.6216
48.5521
48.4741
48.388
48.2945
48.1944
48.0882
47.9766
47.8602
47.7398
47.6159
47.4893
47.3607
47.2308
47.1001
46.9694
46.8394
46.7106
46.5838
46.4595
46.3385
46.2211
46.1081
45.9999
45.8971
45.8
45.7091
45.6247
45.5473
45.477
45.414
45.3586
45.3108
45.2708
45.2385
45.2138
45.1966
45.1886
45.188
12.1329
13.6627
15.2192
16.7706
18.2988
19.7926
21.2448
22.6509
24.0086
25.317
26.5761
27.7864
28.9493
30.0656
31.1368
32.1644
33.1498
34.0944
34.9996
35.8666
36.6968
37.4913
38.2512
38.9775
39.6713
40.3334
40.9647
41.566
42.1381
42.6819
43.1979
43.6869
44.1495
44.5864
44.9982
45.3858
45.7495
46.0898
46.4072
46.7023
46.9756
47.2277
47.4591
47.6704
47.862
48.0345
48.1881
48.3236
48.4417
48.5428
48.6275
48.6963
48.7497
48.7885
48.813
48.8238
48.8216
48.8069
48.7803
48.7424
48.6937
48.635
48.5668
48.4897
48.4044
48.3116
48.2118
48.1058
47.9942
47.8777
47.7569
47.6326
47.5055
47.3762
47.2454
47.1138
46.982
46.8509
46.721
46.593
46.4675
46.3452
46.2266
46.1123
46.0028
45.8987
45.8005
45.7084
45.623
45.5446
45.4733
45.4095
45.3534
45.305
45.2644
45.2316
45.2066
45.1891
45.1808
45.1803
12.4511
13.892
15.37
16.8551
18.3285
19.7778
21.1943
22.5722
23.908
25.1996
26.4462
27.6477
28.8045
29.9171
30.9866
32.014
33.0005
33.9472
34.8554
35.7261
36.5604
37.3595
38.1242
38.8557
39.5547
40.2221
40.8588
41.4656
42.0432
42.5923
43.1137
43.6079
44.0756
44.5174
44.9341
45.3264
45.6947
46.0394
46.3611
46.6603
46.9376
47.1935
47.4285
47.6432
47.8381
48.0138
48.1703
48.3086
48.4293
48.5328
48.6198
48.6907
48.7461
48.7867
48.8128
48.8252
48.8243
48.8108
48.7853
48.7483
48.7004
48.6424
48.5747
48.4981
48.4131
48.3205
48.2208
48.1148
48.0031
47.8863
47.7653
47.6406
47.5131
47.3832
47.2519
47.1196
46.9873
46.8554
46.7248
46.596
46.4697
46.3466
46.2272
46.1121
46.0019
45.897
45.798
45.7053
45.6192
45.5401
45.4682
45.4039
45.3473
45.2984
45.2574
45.2244
45.1991
45.1814
45.1727
45.1728
13.1957
14.5676
15.97
17.3821
18.7888
20.1784
21.5422
22.874
24.1697
25.4265
26.6431
27.8187
28.9529
30.0462
31.0989
32.1119
33.0859
34.0219
34.9207
35.7834
36.6108
37.4038
38.1633
38.8902
39.5853
40.2494
40.8831
41.4873
42.0626
42.6098
43.1294
43.6221
44.0885
44.5292
44.9448
45.3361
45.7036
46.0476
46.3686
46.6673
46.944
47.1994
47.434
47.6483
47.8428
48.0181
48.1743
48.3123
48.4327
48.5359
48.6226
48.6932
48.7484
48.7886
48.8145
48.8266
48.8255
48.8117
48.7859
48.7487
48.7006
48.6423
48.5744
48.4975
48.4122
48.3193
48.2194
48.1131
48.0012
47.8842
47.7629
47.638
47.5102
47.3801
47.2485
47.116
46.9834
46.8513
46.7204
46.5914
46.4649
46.3416
46.222
46.1067
45.9963
45.8913
45.7921
45.6992
45.6129
45.5337
45.4617
45.3973
45.3405
45.2916
45.2505
45.2174
45.1921
45.1743
45.1655
45.1657
13.9281
15.2273
16.5583
17.902
19.2455
20.5779
21.8908
23.1777
24.434
25.6565
26.8432
27.9928
29.1045
30.1782
31.214
32.2123
33.1736
34.0986
34.9879
35.8423
36.6626
37.4494
38.2036
38.9258
39.6168
40.2773
40.908
41.5095
42.0825
42.6276
43.1454
43.6365
44.1015
44.541
44.9556
45.3459
45.7125
46.0558
46.3761
46.6742
46.9504
47.2053
47.4394
47.6533
47.8474
48.0223
48.1782
48.3159
48.4359
48.5389
48.6252
48.6956
48.7505
48.7905
48.8162
48.828
48.8267
48.8127
48.7866
48.7491
48.7008
48.6423
48.5741
48.497
48.4115
48.3184
48.2182
48.1117
47.9995
47.8823
47.7608
47.6356
47.5076
47.3773
47.2454
47.1127
46.9799
46.8476
46.7165
46.5873
46.4606
46.337
46.2173
46.1018
45.9912
45.886
45.7866
45.6936
45.6072
45.5278
45.4557
45.3912
45.3343
45.2853
45.2441
45.2109
45.1855
45.1677
45.1589
45.1591
14.6398
15.8678
17.1305
18.4097
19.6936
20.9717
22.2359
23.4794
24.6976
25.8865
27.0438
28.1676
29.2569
30.3112
31.3301
32.3137
33.2623
34.1762
35.0559
35.902
36.715
37.4955
38.2442
38.9617
39.6486
40.3055
40.9331
41.5318
42.1024
42.6454
43.1614
43.6509
44.1145
44.5527
44.9662
45.3556
45.7213
46.0638
46.3834
46.6809
46.9565
47.2109
47.4446
47.658
47.8518
48.0264
48.1819
48.3193
48.439
48.5417
48.6278
48.6979
48.7526
48.7923
48.8177
48.8294
48.8278
48.8135
48.7873
48.7496
48.701
48.6423
48.5739
48.4965
48.4109
48.3175
48.2171
48.1104
47.998
47.8806
47.7588
47.6335
47.5052
47.3747
47.2426
47.1097
46.9767
46.8442
46.7129
46.5835
46.4566
46.3329
46.2129
46.0973
45.9865
45.8811
45.7816
45.6884
45.6019
45.5224
45.4502
45.3855
45.3286
45.2794
45.2382
45.2049
45.1795
45.1617
45.1528
45.1529
15.3241
16.4843
17.6823
18.901
20.1288
21.3557
22.5737
23.7759
24.9572
26.1136
27.2423
28.341
29.4084
30.4435
31.4457
32.4147
33.3507
34.2536
35.1237
35.9615
36.7673
37.5415
38.2847
38.9975
39.6802
40.3335
40.9579
41.5539
42.1221
42.663
43.1771
43.665
44.1272
44.5641
44.9765
45.3649
45.7298
46.0715
46.3905
46.6873
46.9624
47.2163
47.4495
47.6626
47.8559
48.0302
48.1854
48.3225
48.4419
48.5443
48.6302
48.7
48.7545
48.794
48.8192
48.8306
48.8288
48.8144
48.7879
48.75
48.7012
48.6423
48.5737
48.4962
48.4103
48.3167
48.2162
48.1092
47.9966
47.879
47.7571
47.6315
47.503
47.3723
47.2401
47.107
46.9738
46.8411
46.7096
46.58
46.453
46.3291
46.2089
46.0931
45.9822
45.8767
45.7771
45.6837
45.5971
45.5174
45.4451
45.3804
45.3233
45.2741
45.2328
45.1995
45.174
45.1562
45.1472
45.1472
15.9748
17.0725
18.2102
19.3725
20.5481
21.727
22.9013
24.0643
25.2105
26.3357
27.4368
28.5113
29.5573
30.5737
31.5596
32.5144
33.4379
34.33
35.1907
36.0203
36.8189
37.5869
38.3247
39.0327
39.7113
40.361
40.9822
41.5755
42.1413
42.6801
43.1924
43.6787
44.1395
44.5752
44.9864
45.3739
45.7379
46.0788
46.3972
46.6934
46.968
47.2214
47.4542
47.6668
47.8598
48.0337
48.1887
48.3254
48.4446
48.5467
48.6324
48.702
48.7562
48.7955
48.8205
48.8317
48.8297
48.8151
48.7884
48.7504
48.7014
48.6423
48.5735
48.4958
48.4097
48.316
48.2152
48.1081
47.9953
47.8776
47.7554
47.6297
47.5011
47.3702
47.2378
47.1045
46.9711
46.8383
46.7066
46.5769
46.4497
46.3256
46.2053
46.0894
45.9783
45.8727
45.7729
45.6794
45.5927
45.5129
45.4405
45.3757
45.3185
45.2693
45.2279
45.1945
45.169
45.1511
45.1421
45.1421
16.5885
17.6287
18.7111
19.8213
20.9483
22.0826
23.2161
24.3421
25.4551
26.5508
27.6255
28.6768
29.7023
30.7007
31.6708
32.6118
33.5232
34.4047
35.2562
36.0777
36.8693
37.6312
38.3637
39.067
39.7416
40.3878
41.0059
41.5965
42.16
42.6967
43.2072
43.6919
44.1512
44.5857
44.9959
45.3824
45.7456
46.0858
46.4035
46.6991
46.9732
47.2261
47.4585
47.6708
47.8634
48.037
48.1916
48.3281
48.447
48.5489
48.6343
48.7038
48.7578
48.7969
48.8217
48.8327
48.8305
48.8158
48.7889
48.7507
48.7016
48.6423
48.5733
48.4955
48.4092
48.3153
48.2144
48.1072
47.9942
47.8763
47.754
47.6281
47.4993
47.3683
47.2357
47.1023
46.9687
46.8357
46.704
46.5741
46.4467
46.3225
46.2021
46.086
45.9748
45.8691
45.7692
45.6756
45.5887
45.5089
45.4364
45.3715
45.3143
45.2649
45.2235
45.19
45.1645
45.1466
45.1376
45.1375
17.1618
18.15
19.1822
20.2448
21.3272
22.4201
23.5157
24.6072
25.6892
26.7569
27.8069
28.836
29.8421
30.8233
31.7782
32.7059
33.6057
34.477
35.3196
36.1333
36.9181
37.6741
38.4014
39.1002
39.7708
40.4136
41.0287
41.6167
42.1778
42.7126
43.2213
43.7045
44.1624
44.5957
45.0049
45.3904
45.7528
46.0923
46.4094
46.7044
46.978
47.2305
47.4625
47.6744
47.8667
48.04
48.1943
48.3306
48.4492
48.5509
48.6361
48.7054
48.7592
48.7981
48.8227
48.8336
48.8313
48.8163
48.7894
48.7509
48.7017
48.6422
48.5732
48.4951
48.4088
48.3147
48.2137
48.1063
47.9932
47.8751
47.7527
47.6267
47.4977
47.3665
47.2338
47.1003
46.9666
46.8335
46.7016
46.5716
46.4441
46.3198
46.1992
46.083
45.9717
45.8659
45.7659
45.6722
45.5852
45.5053
45.4327
45.3677
45.3104
45.261
45.2196
45.1861
45.1605
45.1426
45.1335
45.1333
17.6931
18.6347
19.6214
20.6407
21.6824
22.7374
23.7981
24.8578
25.9108
26.9526
27.9793
28.9877
29.9753
30.9403
31.8809
32.7959
33.6846
34.5462
35.3803
36.1865
36.9648
37.7151
38.4374
39.1319
39.7987
40.4381
41.0504
41.6358
42.1948
42.7276
43.2346
43.7163
44.173
44.6051
45.0133
45.3979
45.7595
46.0984
46.4148
46.7093
46.9824
47.2345
47.4661
47.6776
47.8696
48.0427
48.1967
48.3327
48.4512
48.5527
48.6377
48.7067
48.7604
48.7992
48.8237
48.8344
48.8319
48.8168
48.7897
48.7512
48.7018
48.6422
48.573
48.4949
48.4084
48.3142
48.213
48.1055
47.9923
47.8741
47.7516
47.6254
47.4963
47.3651
47.2322
47.0986
46.9648
46.8315
46.6995
46.5694
46.4418
46.3174
46.1967
46.0804
45.969
45.8631
45.763
45.6692
45.5822
45.5022
45.4295
45.3644
45.3071
45.2577
45.2161
45.1826
45.157
45.1391
45.13
45.1297
18.181
19.0811
20.0271
21.0075
22.0123
23.0329
24.0617
25.0921
26.1186
27.1363
28.1414
29.1305
30.101
31.0507
31.9778
32.881
33.7592
34.6116
35.4377
36.2369
37.009
37.7538
38.4714
39.1618
39.825
40.4613
41.0708
41.6538
42.2107
42.7416
43.247
43.7273
44.1828
44.6138
45.021
45.4047
45.7657
46.1038
46.4197
46.7137
46.9863
47.238
47.4693
47.6805
47.8722
48.045
48.1988
48.3346
48.4529
48.5542
48.639
48.7079
48.7614
48.8001
48.8244
48.835
48.8324
48.8172
48.79
48.7513
48.7018
48.6421
48.5729
48.4946
48.408
48.3137
48.2125
48.1048
47.9915
47.8732
47.7506
47.6243
47.4952
47.3638
47.2309
47.0971
46.9632
46.8299
46.6978
46.5675
46.4399
46.3153
46.1946
46.0782
45.9668
45.8607
45.7605
45.6667
45.5796
45.4995
45.4268
45.3616
45.3043
45.2547
45.2132
45.1796
45.154
45.1361
45.1269
45.1265
18.6248
19.4881
20.398
21.3436
22.3153
23.3049
24.3048
25.3087
26.3109
27.3067
28.292
29.2633
30.218
31.1536
32.0682
32.9604
33.8289
34.6727
35.4912
36.2838
37.0501
37.7899
38.5031
39.1896
39.8494
40.4827
41.0896
41.6704
42.2253
42.7545
43.2584
43.7374
44.1917
44.6217
45.028
45.4109
45.7712
46.1087
46.4241
46.7176
46.9898
47.2411
47.472
47.683
47.8744
48.047
48.2006
48.3362
48.4543
48.5554
48.6401
48.7089
48.7623
48.8008
48.825
48.8355
48.8328
48.8175
48.7902
48.7514
48.7019
48.6421
48.5727
48.4944
48.4077
48.3133
48.212
48.1043
47.9909
47.8725
47.7498
47.6234
47.4942
47.3627
47.2297
47.0959
46.9619
46.8285
46.6963
46.566
46.4383
46.3137
46.1929
46.0764
45.9649
45.8587
45.7585
45.6646
45.5774
45.4973
45.4245
45.3593
45.3019
45.2523
45.2107
45.1771
45.1515
45.1336
45.1244
45.1239
19.0237
19.8551
20.7333
21.648
22.5904
23.5522
24.5264
25.5064
26.4868
27.4627
28.43
29.3852
30.3254
31.2482
32.1514
33.0334
33.893
34.729
35.5405
36.327
37.088
37.8231
38.5322
39.215
39.8717
40.5023
41.1068
41.6855
42.2385
42.7661
43.2687
43.7464
44.1996
44.6287
45.0342
45.4164
45.776
46.113
46.4278
46.7209
46.9928
47.2438
47.4744
47.6851
47.8763
48.0486
48.202
48.3374
48.4554
48.5564
48.641
48.7096
48.7629
48.8013
48.8254
48.8358
48.8331
48.8177
48.7903
48.7515
48.7018
48.642
48.5725
48.4941
48.4074
48.313
48.2116
48.1038
47.9903
47.8719
47.7491
47.6227
47.4934
47.3619
47.2288
47.0949
46.9609
46.8274
46.6952
46.5648
46.437
46.3123
46.1915
46.075
45.9634
45.8572
45.7569
45.663
45.5757
45.4955
45.4227
45.3575
45.3
45.2504
45.2088
45.1751
45.1495
45.1316
45.1223
45.1217
19.3778
20.1814
21.032
21.9198
22.8364
23.7739
24.7252
25.6841
26.6451
27.6033
28.5545
29.4953
30.4226
31.3337
32.2266
33.0995
33.951
34.7798
35.585
36.366
37.1221
37.853
38.5583
39.2379
39.8917
40.5198
41.1221
41.6989
42.2502
42.7764
43.2776
43.7542
44.2065
44.6348
45.0395
45.421
45.78
46.1165
46.431
46.7237
46.9952
47.2459
47.4762
47.6867
47.8777
48.0498
48.2031
48.3384
48.4562
48.5571
48.6416
48.7101
48.7633
48.8017
48.8257
48.836
48.8332
48.8178
48.7903
48.7515
48.7018
48.6419
48.5724
48.4939
48.4071
48.3127
48.2112
48.1034
47.9899
47.8714
47.7486
47.6222
47.4928
47.3612
47.2281
47.0942
46.9601
46.8266
46.6943
46.5639
46.4361
46.3114
46.1905
46.0739
45.9623
45.856
45.7557
45.6617
45.5745
45.4942
45.4214
45.3561
45.2986
45.2489
45.2073
45.1736
45.148
45.1301
45.1208
45.12
19.6867
20.4668
21.2937
22.1584
23.0527
23.969
24.9005
25.841
26.785
27.7276
28.6648
29.5928
30.5086
31.4095
32.2933
33.1581
34.0023
34.8248
35.6245
36.4005
37.1522
37.8793
38.5812
39.2579
39.9092
40.535
41.1354
41.7104
42.2603
42.7851
43.2853
43.7609
44.2123
44.6398
45.0439
45.4248
45.7833
46.1194
46.4334
46.7258
46.997
47.2474
47.4776
47.6878
47.8786
48.0507
48.2038
48.339
48.4567
48.5575
48.6419
48.7104
48.7635
48.8018
48.8258
48.8361
48.8332
48.8177
48.7903
48.7514
48.7016
48.6417
48.5722
48.4937
48.4069
48.3124
48.2109
48.1031
47.9896
47.8711
47.7482
47.6218
47.4924
47.3608
47.2277
47.0937
46.9596
46.8261
46.6938
46.5634
46.4355
46.3108
46.1898
46.0732
45.9616
45.8553
45.755
45.6609
45.5736
45.4934
45.4205
45.3552
45.2976
45.2479
45.2063
45.1726
45.1469
45.129
45.1197
45.1188
19.9508
20.7111
21.5181
22.3632
23.2386
24.1369
25.0515
25.9762
26.9057
27.835
28.7601
29.6771
30.583
31.4751
32.3509
33.2087
34.0467
34.8636
35.6584
36.4301
37.1781
37.9018
38.6008
39.275
39.924
40.5478
41.1465
41.7201
42.2686
42.7924
43.2915
43.7662
44.2169
44.6438
45.0473
45.4277
45.7857
46.1214
46.4351
46.7273
46.9982
47.2485
47.4784
47.6885
47.8792
48.0511
48.2042
48.3392
48.4569
48.5576
48.6419
48.7104
48.7635
48.8017
48.8257
48.836
48.8331
48.8176
48.7901
48.7512
48.7015
48.6415
48.572
48.4935
48.4067
48.3123
48.2108
48.1029
47.9894
47.8709
47.748
47.6216
47.4922
47.3606
47.2275
47.0935
46.9594
46.8259
46.6936
46.5631
46.4352
46.3105
46.1896
46.073
45.9613
45.855
45.7546
45.6606
45.5733
45.493
45.4201
45.3547
45.2971
45.2474
45.2057
45.172
45.1463
45.1284
45.119
45.1181
20.1701
20.9142
21.7048
22.5339
23.3937
24.2772
25.1777
26.0894
27.0067
27.9249
28.8398
29.7477
30.6453
31.5299
32.3991
33.2509
34.0836
34.8959
35.6865
36.4546
37.1994
37.9203
38.6169
39.2889
39.936
40.5582
41.1555
41.7278
42.2752
42.798
43.2963
43.7703
44.2204
44.6467
45.0497
45.4298
45.7875
46.1229
46.4363
46.7282
46.999
47.2491
47.4789
47.6888
47.8794
48.0512
48.2042
48.3393
48.4569
48.5576
48.6419
48.7103
48.7634
48.8016
48.8256
48.8359
48.833
48.8175
48.79
48.7511
48.7014
48.6415
48.572
48.4935
48.4067
48.3122
48.2108
48.1029
47.9894
47.8709
47.7481
47.6217
47.4923
47.3607
47.2276
47.0937
46.9596
46.826
46.6937
46.5633
46.4354
46.3107
46.1897
46.0731
45.9614
45.8552
45.7548
45.6607
45.5734
45.4931
45.4201
45.3548
45.2972
45.2474
45.2057
45.172
45.1462
45.1284
45.1189
45.1178
20.3448
21.0762
21.854
22.6703
23.5177
24.3894
25.2787
26.1799
27.0876
27.9969
28.9036
29.8041
30.695
31.5736
32.4374
33.2844
34.1129
34.9214
35.7087
36.4738
37.216
37.9347
38.6293
39.2995
39.9451
40.566
41.162
41.7333
42.2799
42.8019
43.2996
43.773
44.2226
44.6485
45.0511
45.4308
45.7882
46.1234
46.4366
46.7284
46.999
47.249
47.4787
47.6886
47.8791
48.0509
48.2038
48.3388
48.4564
48.5571
48.6414
48.7099
48.7629
48.8012
48.8252
48.8355
48.8326
48.8172
48.7897
48.7509
48.7012
48.6413
48.5718
48.4934
48.4066
48.3122
48.2108
48.103
47.9895
47.871
47.7483
47.6219
47.4925
47.361
47.2279
47.094
46.9599
46.8264
46.6941
46.5637
46.4359
46.3112
46.1902
46.0737
45.962
45.8557
45.7553
45.6613
45.5739
45.4936
45.4207
45.3553
45.2977
45.2479
45.2061
45.1724
45.1466
45.1287
45.1192
45.1179
20.4754
21.1974
21.9655
22.7723
23.6105
24.4732
25.3542
26.2475
27.1477
28.0503
28.9508
29.8456
30.7314
31.6054
32.465
33.3083
34.1335
34.9391
35.7238
36.4866
37.2268
37.9436
38.6367
39.3055
39.9499
40.5697
41.1649
41.7354
42.2813
42.8027
43.2998
43.7728
44.2219
44.6475
45.0498
45.4293
45.7865
46.1215
46.4346
46.7262
46.9967
47.2466
47.4762
47.6861
47.8766
48.0483
48.2013
48.3363
48.4539
48.5546
48.639
48.7074
48.7605
48.7989
48.8229
48.8333
48.8304
48.8151
48.7877
48.7489
48.6993
48.6394
48.57
48.4917
48.405
48.3107
48.2093
48.1016
47.9882
47.8699
47.7472
47.6209
47.4916
47.3602
47.2272
47.0933
46.9594
46.8259
46.6937
46.5634
46.4356
46.311
46.1902
46.0737
45.9621
45.8559
45.7555
45.6615
45.5742
45.494
45.4211
45.3557
45.2981
45.2484
45.2066
45.1729
45.1471
45.1293
45.1197
45.1183
20.562
21.2777
22.0394
22.8398
23.6717
24.5285
25.4037
26.2916
27.1868
28.0847
28.9809
29.8717
30.754
31.6247
32.4814
33.3221
34.1449
34.9484
35.7312
36.4924
37.2311
37.9466
38.6385
39.3063
39.9498
40.5688
41.1633
41.7332
42.2785
42.7995
43.2962
43.7688
44.2177
44.643
45.0451
45.4243
45.7814
46.1162
46.4292
46.7207
46.9912
47.241
47.4706
47.6805
47.871
48.0427
48.1957
48.3308
48.4484
48.5492
48.6335
48.7021
48.7553
48.7937
48.8178
48.8282
48.8255
48.8103
48.783
48.7443
48.6948
48.6351
48.5658
48.4876
48.4011
48.3069
48.2057
48.0981
47.9849
47.8666
47.7441
47.6179
47.4889
47.3575
47.2247
47.091
46.9572
46.824
46.6919
46.5618
46.4341
46.3097
46.1889
46.0726
45.9611
45.8551
45.7549
45.661
45.5739
45.4937
45.4209
45.3557
45.2982
45.2486
45.2069
45.1733
45.1476
45.1298
45.1203
45.1189
20.602
21.3147
22.0735
22.871
23.7002
24.5543
25.4271
26.3128
27.2061
28.1022
28.9968
29.8863
30.7674
31.6371
32.493
33.333
34.1552
34.9582
35.7407
36.5016
37.2401
37.9556
38.6474
39.3152
39.9587
40.5778
41.1724
41.7424
42.2879
42.8089
43.3058
43.7786
44.2276
44.6532
45.0555
45.4349
45.7921
46.1271
46.4403
46.7319
47.0026
47.2525
47.4823
47.6923
47.8829
48.0548
48.2078
48.343
48.4607
48.5615
48.646
48.7146
48.7678
48.8062
48.8304
48.8408
48.8381
48.8228
48.7955
48.7568
48.7073
48.6475
48.5782
48.4999
48.4133
48.319
48.2176
48.11
47.9966
47.8782
47.7556
47.6292
47.5
47.3685
47.2355
47.1016
46.9676
46.8342
46.7019
46.5715
46.4436
46.3189
46.198
46.0814
45.9696
45.8633
45.7628
45.6686
45.5811
45.5007
45.4275
45.3619
45.304
45.254
45.2119
45.1778
45.1515
45.1332
45.1228
45.1204
10.0299
10.1411
10.2763
10.4319
10.6034
10.7863
10.9766
11.1716
11.3718
11.5859
10.7972
10.9138
11.0548
11.2165
11.3945
11.584
11.78
11.9784
12.1761
12.3729
11.512
11.6343
11.7818
11.9508
12.137
12.3353
12.5406
12.7477
12.9521
13.1485
12.1766
12.3045
12.4585
12.6353
12.8307
13.0395
13.2563
13.4759
13.6924
13.8993
12.7924
12.9257
13.0863
13.2712
13.4761
13.6963
13.9263
14.1605
14.3932
14.6165
13.3616
13.4998
13.6668
13.8597
14.0745
14.3065
14.5504
14.8007
15.0515
15.2952
13.8855
14.0283
14.2015
14.4022
14.6267
14.8706
15.1287
15.3958
15.666
15.9317
14.3659
14.513
14.6918
14.9
15.1339
15.3894
15.6617
15.9455
16.2355
16.5244
14.804
14.955
15.1392
15.3543
15.5972
15.8638
16.1497
16.45
16.7594
17.0714
15.2015
15.3557
15.5448
15.7663
16.0175
16.2946
16.5934
16.9094
17.2375
17.5718
15.5591
15.7164
15.9097
16.1371
16.3959
16.6827
16.9935
17.3241
17.6699
18.0252
15.8781
16.038
16.235
16.4676
16.7332
17.0288
17.3506
17.6947
18.0568
18.4318
16.1594
16.3213
16.5216
16.7587
17.0303
17.3336
17.6652
18.0216
18.3986
18.7917
16.4037
16.5673
16.7702
17.011
17.2877
17.5978
17.9381
18.3053
18.6956
19.105
16.6116
16.7766
16.9815
17.2253
17.5062
17.8219
18.1696
18.5462
18.9483
19.3721
16.7838
16.9495
17.1559
17.402
17.6862
18.0064
18.3602
18.7447
19.1569
19.5934
16.9204
17.0867
17.294
17.5416
17.8281
18.1518
18.5103
18.9013
19.3219
19.769
17.0221
17.1885
17.3961
17.6445
17.9325
18.2584
18.6204
19.0163
19.4435
19.8995
17.0891
17.2552
17.4627
17.7112
17.9996
18.3267
18.6909
19.0902
19.5225
19.9855
17.1184
17.2839
17.4907
17.7385
18.0265
18.3537
18.7188
19.1201
19.5559
20.0241
9.50278
8.58181
7.61374
6.59254
5.51805
4.3918
3.22407
2.03673
0.895914
0.0849702
9.38893
8.49228
7.53967
6.53106
5.46732
4.3518
3.19487
2.01881
0.888744
0.0846136
9.29004
8.4077
7.46827
6.47172
5.41906
4.31428
3.16785
2.00249
0.882308
0.0842611
9.20662
8.33392
7.40476
6.41849
5.3759
4.28105
3.14441
1.98855
0.876941
0.0839287
9.13985
8.27428
7.35265
6.37445
5.34017
4.25369
3.12547
1.97775
0.87291
0.0836374
9.09191
8.23137
7.31495
6.34212
5.31378
4.23362
3.11176
1.97032
0.87047
0.0834057
9.06556
8.20786
7.294
6.32388
5.29842
4.22188
3.1038
1.96603
0.869059
0.0832453
9.06303
8.20542
7.29155
6.32119
5.29575
4.21929
3.10202
1.96452
0.867256
0.083203
9.08621
8.22541
7.3085
6.33515
5.30671
4.22716
3.10663
1.9668
0.866832
0.0832456
9.13557
8.26844
7.34493
6.36565
5.33094
4.24494
3.11874
1.97352
0.868333
0.0833745
9.99083
9.04241
8.03659
6.97192
5.84794
4.66686
3.43687
2.17786
0.958052
0.086429
9.98128
9.03353
8.02844
6.96461
5.84145
4.66123
3.4322
2.17429
0.955918
0.0864767
9.96036
9.01423
8.01081
6.94874
5.82746
4.64925
3.42245
2.16721
0.952326
0.0865334
9.92805
8.98455
7.98381
6.92453
5.80619
4.63116
3.40795
2.157
0.94738
0.0865402
9.88482
8.94503
7.94802
6.89255
5.7782
4.60752
3.38922
2.14414
0.941463
0.0864802
9.83181
8.89677
7.90442
6.85366
5.74428
4.57903
3.36696
2.12908
0.934745
0.0863545
9.77101
8.84152
7.85442
6.80903
5.70541
4.54662
3.3417
2.11234
0.927369
0.0861703
9.70575
8.78169
7.79979
6.76
5.6627
4.51093
3.31443
2.094
0.919611
0.0859282
9.64112
8.72003
7.74219
6.70759
5.61684
4.47295
3.28493
2.07507
0.911669
0.0856416
9.58362
8.65746
7.68129
6.65216
5.56833
4.433
3.25482
2.05599
0.903731
0.0853232
0.00494186
0.00485626
0.00478617
0.00472694
0.00467644
0.00463143
0.0045925
0.0045562
0.00452466
0.00449445
0.00446762
0.00444238
0.00441825
0.00439753
0.00437472
0.00435814
0.00433595
0.00432283
0.00430131
0.00429059
0.00427026
0.00426083
0.00424226
0.00423325
0.00421691
0.00420749
0.00419428
0.00418277
0.00417489
0.0041583
0.00415862
0.00413473
0.00414347
0.00411532
0.00412517
0.00410307
0.00410373
0.00409747
0.00407936
0.0040984
0.00404396
0.00408716
0.00406341
0.00420132
0.00410333
0.00441563
0.0280136
0.657082
2.30573
3.70187
5.01092
6.25474
7.44094
8.57316
9.6536
10.6839
11.6655
12.5995
13.4872
14.3295
15.1276
15.8822
16.5943
17.2647
17.8939
18.4827
19.0316
19.541
20.0113
20.4429
20.8359
21.1904
21.5067
21.7845
22.0237
22.2242
22.3857
22.5075
22.5893