/*--------------------------------*- C++ -*----------------------------------*\
  =========                 |
  \\      /  F ield         | OpenFOAM: The Open Source CFD Toolbox
   \\    /   O peration     | Website:  https://openfoam.org
    \\  /    A nd           | Version:  8
     \\/     M anipulation  |
\*---------------------------------------------------------------------------*/
FoamFile
{
    version     2.0;
    format      ascii;
    class       volScalarField;
    location    "0.500023";
    object      epsilon;
}
// * * * * * * * * * * * * * * * * * * * * * * * * * * * * * * * * * * * * * //

dimensions      [0 2 -3 0 0 0 0];

internalField   nonuniform List<scalar> 
6800
(
274923
109401
73502.7
58410.2
49988.3
44586.2
40820.6
38049.4
35925.3
34241.4
269842
106928
71810.2
57072.9
48862.9
43601.8
39940.9
37252.8
35204.2
33602.8
264500
104427
70109.2
55729.9
47729.1
42606.9
39047.1
36437.6
34454.2
32908.5
259033
101951
68431.9
54402.2
46602.2
41611.8
38146
35607.2
33678.9
32176
253629
99558.1
66808
53109.2
45496.5
40627.4
37246.6
34770.3
32889.2
31422.2
248439
97296.2
65263.9
51867.8
44424.5
39663.9
36358.1
33936.3
32095.6
30658.9
243648
95209.4
63821.1
50692.3
43396.8
38730.2
35488.8
33113.2
31306.6
29895.1
239404
93331.7
62496.7
49593.7
42421.9
37833.5
34645.6
32307.9
30528.8
29137.5
235834
91684.3
61301.5
48579.9
41504.6
36979.6
33833.5
31525.9
29767.9
28392
233040
90274.3
60236.1
47651.5
40652.2
36171.2
33058.6
30771.9
29030
27663.9
294621
122614
83383
66509.4
56929.4
50700.8
46316.8
43065.9
40564.8
38587.4
295225
122500
83238.9
66373.1
56806
50589.8
46216.8
42975.3
40482.4
38512.3
295374
122172
82901.5
66067.6
56533.8
50346.2
45997.1
42775.8
40300.1
38345.1
295003
121544
82353.7
65591.2
56115
49973.4
45661.4
42470.7
40020.8
38087.9
294014
120604
81594.5
64947.8
55555.3
49477.2
45215.3
42065
39648.8
37744.5
292422
119361
80632.7
64147.2
54864.2
48866.5
44666.5
41565.7
39190.1
37320
290109
117834
79487.2
63204.9
54055.1
48153.2
44025.5
40981.6
38652.1
36820.3
287314
116045
78174.6
62137
53143.4
47350.8
43304.4
40323
38043.3
36253
283776
114009
76714.1
60964
52146.7
46476.1
42517.6
39602.7
37374.4
35625.2
279624
111770
75142.6
59710.2
51087.7
45547.4
41683.4
38837.1
36658.7
34942.6
36366.9
34392.8
32990.2
31975.7
31235.7
30695.8
30305.2
30028
29838.1
29716.1
29646.9
29619.1
29623.3
29651.9
29699.7
29761.6
29833.6
29912.3
29994.9
30078.9
30162.5
30243.7
30321.2
30393.7
30460
30519.3
30570.7
30613.7
30647.5
30671.8
30686.1
30690.2
30683.7
30666.2
30637.9
30598.7
30548.5
30487.3
30415.3
30332.3
30238.6
30134.3
30019.6
29894.6
29759.5
29614.6
29460.1
29296.4
29123.6
28942.1
28752.2
28554.2
28348.6
28135.6
27915.7
27689.1
27456.4
27217.8
26973.9
26724.9
26471.5
26213.9
25952.6
25688.1
25420.8
25151.2
24879.7
24606.9
24333.2
24059
23785
23511.5
23239.2
22968.5
22699.9
22434.1
22171.5
21912.7
21658.4
21408.9
21165
20927.3
20696.2
20472.6
20256.8
20049.7
19851.8
19663.8
19486.2
19319.8
19165.3
19023.2
18894.2
18778.9
18678.1
18592.4
18522.3
18468.6
18431.9
18412.8
36316.1
34365.5
32976.4
31969.8
31234.7
30697.8
30309.2
30033.3
29844.4
29723
29654.5
29627.1
29631.8
29660.8
29709
29771.4
29843.8
29922.9
30006
30090.5
30174.5
30256.2
30334.1
30407
30473.8
30533.5
30585.3
30628.6
30662.9
30687.5
30702.2
30706.5
30700.3
30683.1
30655
30616
30566
30505
30433.1
30350.3
30256.7
30152.4
30037.7
29912.7
29777.6
29632.7
29478.1
29314.2
29141.3
28959.7
28769.6
28571.5
28365.6
28152.4
27932.2
27705.4
27472.4
27233.5
26989.2
26740
26486.2
26228.2
25966.5
25701.6
25434
25163.9
24892
24618.8
24344.6
24070
23795.5
23521.6
23248.8
22977.6
22708.6
22442.3
22179.3
21920.1
21665.3
21415.4
21171.1
20932.9
20701.4
20477.3
20261.2
20053.7
19855.4
19667
19489.2
19322.5
19167.6
19025.2
18895.9
18780.5
18679.5
18593.5
18523.4
18469.6
18432.8
18413.6
36197.8
34295
32933.2
31943
31217.9
30687.4
30302.9
30029.9
29843
29723.2
29655.9
29629.6
29635.3
29665.3
29714.4
29777.7
29851.1
29931.2
30015.2
30100.7
30185.6
30268.3
30347.2
30421.1
30488.8
30549.4
30602.2
30646.4
30681.5
30707
30722.5
30727.6
30722.1
30705.6
30678.2
30639.8
30590.3
30529.8
30458.3
30375.9
30282.7
30178.7
30064.3
29939.5
29804.5
29659.7
29505.2
29341.3
29168.4
28986.7
28796.5
28598.2
28392.1
28178.6
27958.1
27731
27497.6
27258.3
27013.6
26763.9
26509.6
26251.1
25988.9
25723.4
25455.1
25184.4
24911.9
24637.9
24363.1
24087.8
23812.6
23537.9
23264.4
22992.5
22722.8
22455.7
22192
21932
21676.4
21425.8
21180.8
20941.9
20709.7
20484.9
20268.1
20060
19861.1
19672.1
19493.6
19326.4
19171
19028.1
18898.5
18782.6
18681.3
18595.1
18524.6
18470.7
18433.8
18414.5
36012.5
34180.8
32860
31894.3
31184.3
30663.4
30285.3
30016.6
29832.9
29715.4
29650
29625.5
29632.6
29664.1
29714.8
29779.5
29854.3
29935.9
30021.4
30108.4
30194.9
30279.1
30359.5
30434.9
30504.1
30566.3
30620.5
30666.1
30702.6
30729.4
30746.2
30752.6
30748.3
30733
30706.6
30669.2
30620.6
30561
30490.3
30408.6
30316
30212.7
30098.7
29974.3
29839.7
29695.2
29540.9
29377.2
29204.3
29022.6
28832.3
28633.9
28427.6
28213.9
27993.1
27765.6
27531.7
27292
27046.7
26796.4
26541.4
26282.3
26019.3
25753.1
25484
25212.5
24939.1
24664.3
24388.5
24112.2
23836.1
23560.5
23285.9
23013
22742.3
22474.2
22209.4
21948.4
21691.8
21440.2
21194.1
20954.2
20721.1
20495.3
20277.6
20068.5
19868.7
19678.9
19499.6
19331.6
19175.5
19032
18901.7
18785.3
18683.5
18596.9
18526.1
18471.9
18434.8
18415.5
35761.6
34022.5
32755.6
31822.3
31132.4
30624.4
30254.8
29992
29812.4
29698.1
29635.3
29613
29622.2
29655.7
29708.3
29775
29851.8
29935.4
30023
30112
30200.6
30286.9
30369.5
30446.9
30518.3
30582.5
30638.7
30686.4
30724.8
30753.5
30772.1
30780.2
30777.6
30763.9
30739.1
30703.1
30655.9
30597.5
30528
30447.4
30355.7
30253.3
30140.1
30016.4
29882.4
29738.3
29584.4
29421
29248.4
29066.7
28876.5
28678
28471.6
28257.6
28036.5
27808.6
27574.3
27334
27088.1
26837.1
26581.4
26321.4
26057.6
25790.5
25520.4
25247.9
24973.4
24697.5
24420.6
24143.2
23865.8
23588.9
23313.2
23039
22766.9
22497.6
22231.5
21969.2
21711.3
21458.3
21211
20969.8
20735.4
20508.4
20289.5
20079.3
19878.4
19687.4
19507.2
19338.2
19181.2
19036.8
18905.7
18788.6
18686.2
18599
18527.9
18473.3
18436
18416.5
35446.9
33819.8
32618.8
31725.5
31060.6
30568.6
30209.5
29953.9
29779.6
29669.3
29609.7
29590.2
29602
29638.1
29693.1
29762.3
29841.6
29927.8
30017.9
30109.7
30200.9
30289.9
30375.2
30455.4
30529.4
30596.2
30655.1
30705.3
30746.3
30777.4
30798.4
30808.9
30808.5
30797
30774.1
30740.1
30694.7
30638
30570.1
30490.9
30400.6
30299.4
30187.3
30064.6
29931.5
29788.1
29634.9
29472
29299.7
29118.3
28928.2
28729.8
28523.3
28309.2
28087.7
27859.4
27624.7
27383.8
27137.3
26885.5
26629
26368.1
26103.3
25835.1
25563.9
25290.3
25014.6
24737.3
24459.1
24180.3
23901.5
23623.2
23345.9
23070.2
22796.6
22525.7
22258.1
21994.2
21734.7
21480.2
21231.3
20988.6
20752.7
20524.3
20303.9
20092.2
19890
19697.7
19516.2
19346
19187.9
19042.5
18910.5
18792.5
18689.3
18601.5
18529.8
18474.9
18437.3
18417.7
35070.9
33572.7
32448.5
31602.2
30966.8
30493.8
30147.3
29900.4
29732.2
29626.7
29571
29554.8
29569.7
29608.8
29666.8
29739
29821.4
29910.6
30003.9
30098.9
30193.4
30285.7
30374.3
30457.8
30535.2
30605.3
30667.5
30720.9
30765
30799.3
30823.3
30836.6
30839
30830.3
30810
30778.4
30735.3
30680.8
30614.9
30537.7
30449.2
30349.5
30238.9
30117.6
29985.6
29843.3
29690.9
29528.8
29357.1
29176.2
28986.5
28788.2
28581.8
28367.5
28145.9
27917.3
27682.1
27440.7
27193.5
26941
26683.5
26421.7
26155.9
25886.5
25614.1
25339.1
25062
24783.3
24503.6
24223.2
23942.8
23662.9
23383.9
23106.5
22831.1
22558.4
22289
22023.3
21762
21505.7
21255
21010.5
20772.9
20542.7
20320.6
20107.3
19903.4
19709.6
19526.6
19355.1
19195.6
19049
18915.9
18797
18692.9
18604.3
18532
18476.6
18438.6
18418.9
34637.2
33281.6
32243.6
31450.9
30849.3
30398.1
30066.1
29829.1
29668.1
29567.9
29516.6
29504.3
29522.7
29565.3
29626.8
29702.5
29788.4
29881.3
29978.3
30077.1
30175.5
30271.8
30364.3
30451.9
30533.2
30607.3
30673.4
30730.8
30778.7
30816.7
30844.3
30861.2
30867.1
30861.6
30844.6
30816
30775.8
30724.1
30660.7
30585.9
30499.6
30402.1
30293.4
30173.7
30043.3
29902.4
29751.3
29590.1
29419.3
29239.2
29050
28852.1
28645.9
28431.8
28210.1
27981.2
27745.6
27503.7
27255.9
27002.6
26744.3
26481.5
26214.6
25944
25670.3
25393.9
25115.3
24835.1
24553.6
24271.6
23989.4
23707.6
23426.8
23147.4
22870.1
22595.4
22324
22056.3
21792.9
21534.6
21281.9
21035.3
20795.7
20563.5
20339.6
20124.4
19918.7
19723.2
19538.5
19365.4
19204.4
19056.4
18922
18801.9
18696.9
18607.5
18534.4
18478.4
18440.1
18420.2
34150
32947.6
32003.7
31270
30706.1
30279.4
29963.7
29737.8
29584.7
29490.7
29444.2
29436.2
29458.5
29505
29570.4
29650
29740
29837.1
29938.4
30041.6
30144.5
30245.3
30342.5
30434.7
30520.7
30599.5
30670.3
30732.2
30784.7
30827.1
30859.1
30880.2
30890.2
30888.8
30875.6
30850.7
30814
30765.6
30705.4
30633.5
30550
30455
30348.7
30231.3
30102.9
29963.8
29814.2
29654.5
29484.9
29305.8
29117.4
28920.2
28714.4
28500.6
28279
28050.1
27814.3
27572
27323.6
27069.7
26810.5
26546.7
26278.7
26006.9
25731.8
25454
25173.8
24891.9
24608.8
24324.9
24040.8
23757
23474.1
23192.7
22913.3
22636.4
22362.7
22092.8
21827.2
21566.7
21311.7
21062.9
20821.1
20586.8
20360.7
20143.4
19935.7
19738.2
19551.7
19376.8
19214.2
19064.7
18928.8
18807.5
18701.3
18610.9
18537.1
18480.4
18441.7
18421.6
33615.4
32572.2
31728.2
31058.4
30535.7
30135.9
29838
29624.4
29480
29392.5
29351.4
29348
29374.6
29425.3
29494.9
29578.9
29673.4
29775.1
29881.3
29989.5
30097.5
30203.5
30306
30403.5
30494.9
30579.1
30655.3
30722.5
30780.2
30827.8
30864.9
30891
30905.8
30909.1
30900.6
30880
30847.5
30803
30746.6
30678.3
30598.2
30506.4
30403
30288.3
30162.4
30025.5
29878
29720.1
29552.2
29374.4
29187.2
28990.9
28785.9
28572.6
28351.4
28122.6
27886.8
27644.2
27395.5
27141
26881.1
26616.4
26347.3
26074.3
25797.9
25518.6
25236.9
24953.3
24668.3
24382.5
24096.4
23810.6
23525.5
23241.9
22960.2
22681
22405
22132.6
21864.7
21601.7
21344.3
21093.1
20848.9
20612.2
20383.7
20164.2
19954.3
19754.7
19566.2
19389.3
19224.9
19073.7
18936.3
18813.5
18706.1
18614.6
18539.9
18482.6
18443.5
18423.1
32584.8
31800.4
31130.9
30587.4
30158.3
29828.7
29584.3
29411.9
29299.7
29237.8
29217.4
29230.7
29271.4
29334.1
29414
29507
29609.4
29718.4
29831.1
29945.2
30058.8
30170.1
30277.4
30379.6
30475.4
30563.8
30644
30715.1
30776.5
30827.6
30868.1
30897.4
30915.3
30921.6
30915.9
30898
30868
30826
30771.8
30705.6
30627.4
30537.5
30435.8
30322.6
30198.1
30062.6
29916.2
29759.4
29592.3
29415.3
29228.7
29033
28828.4
28615.3
28394.2
28165.5
27929.6
27686.9
27437.9
27183
26922.6
26657.4
26387.6
26113.9
25836.7
25556.5
25273.9
24989.3
24703.3
24416.3
24129.1
23842
23555.7
23270.8
22987.8
22707.3
22429.8
22156.1
21886.8
21622.4
21363.6
21111.1
20865.4
20627.4
20397.6
20176.8
19965.6
19764.8
19575.1
19397.1
19231.7
19079.5
18941.2
18817.6
18709.4
18617.4
18542.2
18484.5
18445.1
18424.6
31407.4
30840.8
30359.4
29967.5
29658.7
29424.6
29256.1
29144.3
29080.9
29058.4
29069.8
29109.2
29171.5
29252
29346.7
29452
29564.8
29682.4
29802.5
29922.8
30041.7
30157.5
30268.7
30374.2
30472.9
30563.7
30646
30718.9
30781.8
30834.3
30875.9
30906.3
30925
30932
30926.9
30909.6
30880
30838.3
30784.5
30718.5
30640.5
30550.7
30449.1
30335.9
30211.5
30075.9
29929.5
29772.6
29605.4
29428.2
29241.5
29045.6
28840.8
28627.6
28406.3
28177.3
27941.2
27698.2
27448.9
27193.8
26933.2
26667.6
26397.6
26123.6
25846.1
25565.6
25282.6
24997.7
24711.4
24424.1
24136.6
23849.2
23562.6
23277.3
22994
22713.2
22435.5
22161.5
21891.8
21627.1
21368
21115.2
20869.3
20631
20401
20180
19968.6
19767.5
19577.6
19399.4
19233.8
19081.4
18943
18819.3
18711
18618.9
18543.6
18485.9
18446.4
18425.9
30381.9
29991.7
29661.8
29396.1
29190.5
29040.5
28940.3
28884.1
28866
28880.5
28922.4
28987.1
29070.3
29168.2
29277.5
29395
29518.1
29644.4
29771.8
29898.5
30022.7
30143
30258.2
30367
30468.6
30561.9
30646.3
30721
30785.6
30839.4
30882.2
30913.5
30933.2
30940.9
30936.5
30919.7
30890.6
30849.2
30795.7
30730
30652.2
30562.5
30461
30347.9
30223.5
30087.9
29941.5
29784.5
29617.2
29440
29253.1
29057.1
28852.1
28638.7
28417.2
28188.1
27951.7
27708.5
27459
27203.6
26942.7
26676.9
26406.6
26132.3
25854.6
25573.8
25290.6
25005.4
24718.7
24431.2
24143.4
23855.7
23568.8
23283.3
22999.7
22718.6
22440.6
22166.3
21896.4
21631.4
21372.1
21119
20872.9
20634.4
20404.1
20182.8
19971.2
19770
19579.9
19401.5
19235.7
19083.2
18944.7
18820.8
18712.4
18620.2
18544.9
18487.1
18447.6
18427.1
29485.3
29238.6
29033
28872.6
28755.3
28678.7
28639.3
28633.6
28657.1
28706.2
28777
28865.7
28969
29083.8
29207.3
29336.7
29470
29604.9
29739.6
29872.5
30002.1
30127
30246
30358.2
30462.6
30558.5
30645
30721.6
30787.7
30843
30886.9
30919.3
30939.8
30948.3
30944.5
30928.3
30899.7
30858.7
30805.5
30740
30662.5
30572.9
30471.6
30358.6
30234.2
30098.6
29952.2
29795.1
29627.8
29450.5
29263.6
29067.4
28862.3
28648.7
28427.1
28197.8
27961.2
27717.8
27468.1
27212.5
26951.4
26685.3
26414.8
26140.3
25862.3
25581.2
25297.8
25012.3
24725.4
24437.6
24149.5
23861.6
23574.5
23288.7
23004.8
22723.5
22445.2
22170.7
21900.5
21635.3
21375.8
21122.5
20876.1
20637.4
20406.9
20185.4
19973.6
19772.2
19581.9
19403.4
19237.5
19084.8
18946.1
18822.2
18713.7
18621.4
18546
18488.2
18448.7
18428.1
28701
28571
28468.1
28395.8
28353.7
28340.8
28355.2
28394.6
28456.3
28537.4
28635
28746.4
28868.9
28999.8
29136.9
29278
29421.1
29564.4
29706.3
29845.3
29980.1
30109.5
30232.5
30348
30455.3
30553.6
30642.3
30720.7
30788.5
30845.1
30890.3
30923.7
30945.1
30954.3
30951.2
30935.6
30907.4
30866.8
30813.9
30748.8
30671.4
30582.1
30480.8
30367.9
30243.6
30108.1
29961.7
29804.6
29637.2
29459.8
29272.8
29076.5
28871.4
28657.7
28435.9
28206.4
27969.7
27726.1
27476.2
27220.4
26959.1
26692.9
26422.1
26147.4
25869.2
25587.9
25304.2
25018.5
24731.4
24443.4
24155.1
23866.9
23579.5
23293.5
23009.4
22727.8
22449.4
22174.6
21904.2
21638.8
21379.1
21125.6
20879
20640.1
20409.4
20187.7
19975.8
19774.2
19583.7
19405.1
19239
19086.2
18947.4
18823.4
18714.8
18622.5
18547
18489.2
18449.6
18429.1
28016.1
27980.5
27962
27963.5
27985.1
28027.3
28089
28168.8
28264.9
28375.3
28497.8
28630.4
28770.8
28917
29067.2
29219.4
29372
29523.4
29672.3
29817.3
29957.2
30091.1
30217.8
30336.6
30446.7
30547.5
30638.3
30718.6
30787.9
30845.9
30892.2
30926.7
30949
30959
30956.5
30941.5
30913.8
30873.6
30821.1
30756.2
30679.1
30589.9
30488.8
30376
30251.8
30116.3
29969.9
29812.8
29645.4
29468
29281
29084.6
28879.3
28665.5
28443.6
28214
27977.1
27733.5
27483.4
27227.4
26965.9
26699.5
26428.6
26153.7
25875.2
25593.8
25309.9
25024
24736.7
24448.5
24159.9
23871.6
23584
23297.8
23013.5
22731.7
22453
22178.1
21907.5
21641.9
21382
21128.3
20881.5
20642.4
20411.6
20189.8
19977.7
19775.9
19585.3
19406.6
19240.4
19087.5
18948.6
18824.5
18715.8
18623.4
18547.9
18490
18450.4
18429.9
27418.4
27459.5
27510.2
27573
27648.9
27738.6
27841.6
27957.1
28084.1
28221
28366.4
28518.5
28675.7
28836.3
28998.7
29161.5
29323.2
29482.4
29638
29788.8
29933.7
30071.8
30202.2
30324.3
30437.1
30540.3
30633.1
30715.2
30786.1
30845.4
30893
30928.4
30951.6
30962.4
30960.6
30946.1
30918.9
30879.1
30826.9
30762.3
30685.4
30596.4
30495.5
30382.9
30258.7
30123.3
29977
29819.9
29652.5
29475.1
29288
29091.5
28886.2
28672.3
28450.3
28220.6
27983.6
27739.8
27489.6
27233.5
26971.9
26705.3
26434.2
26159.2
25880.6
25599
25314.9
25028.8
24741.3
24452.9
24164.2
23875.7
23587.9
23301.5
23017
22735.1
22456.2
22181.1
21910.4
21644.6
21384.5
21130.7
20883.8
20644.5
20413.5
20191.6
19979.3
19777.5
19586.7
19407.9
19241.5
19088.5
18949.6
18825.4
18716.7
18624.2
18548.6
18490.7
18451.1
18430.6
26898.4
27001.1
27108.3
27222.1
27343.9
27474.3
27613.2
27760.2
27914.7
28075.5
28241.6
28411.6
28584.3
28758.3
28932.2
29105
29275.2
29441.9
29603.8
29760.1
29909.8
30052
30186
30311.1
30426.6
30532.1
30626.9
30710.7
30783.1
30843.8
30892.5
30928.9
30953
30964.5
30963.3
30949.4
30922.7
30883.3
30831.5
30767.2
30690.5
30601.8
30501
30388.5
30264.4
30129.1
29982.8
29825.8
29658.4
29481
29293.8
29097.4
28892
28678.1
28456
28226.2
27989.1
27745.2
27494.9
27238.7
26977
26710.3
26439
26163.8
25885.1
25603.4
25319.1
25032.9
24745.3
24456.8
24167.9
23879.2
23591.3
23304.7
23020.1
22738
22459
22183.7
21912.8
21646.9
21386.7
21132.7
20885.7
20646.3
20415.2
20193.1
19980.7
19778.7
19587.9
19408.9
19242.5
19089.4
18950.4
18826.1
18717.4
18624.8
18549.2
18491.3
18451.7
18431.1
26446.3
26598.7
26752.1
26908.4
27068.7
27233.8
27403.8
27578.4
27757.2
27939.4
28124.1
28310.5
28497.3
28683.6
28868.3
29050.2
29228.5
29402.1
29570.1
29731.6
29885.7
30031.9
30169.3
30297.3
30415.4
30523.1
30619.8
30705.3
30779.2
30841.1
30890.9
30928.3
30953.1
30965.4
30964.9
30951.5
30925.2
30886.3
30834.8
30770.8
30694.4
30605.8
30505.3
30392.9
30269
30133.7
29987.5
29830.5
29663.2
29485.7
29298.6
29102.1
28896.7
28682.7
28460.6
28230.8
27993.7
27749.7
27499.3
27242.9
26981.1
26714.3
26443
26167.7
25888.9
25607
25322.7
25036.3
24748.6
24459.9
24170.9
23882.1
23594.1
23307.4
23022.6
22740.4
22461.3
22185.9
21914.9
21648.9
21388.5
21134.4
20887.2
20647.7
20416.5
20194.3
19981.9
19779.8
19588.9
19409.8
19243.3
19090.2
18951.1
18826.8
18717.9
18625.3
18549.7
18491.8
18452.2
18431.6
26054.1
26246.5
26437.6
26629.1
26821.9
27016.6
27213.3
27411.9
27612
27813.1
28014.6
28215.5
28415.2
28612.8
28807.2
28997.8
29183.5
29363.5
29537.1
29703.4
29861.9
30011.7
30152.3
30283.1
30403.6
30513.3
30611.9
30699
30774.2
30837.4
30888.2
30926.5
30952.2
30965.2
30965.2
30952.4
30926.6
30888.1
30836.9
30773.2
30697
30608.7
30508.3
30396.1
30272.3
30137.2
29991
29834.1
29666.8
29489.4
29302.3
29105.8
28900.4
28686.4
28464.3
28234.4
27997.2
27753.2
27502.7
27246.3
26984.5
26717.6
26446.2
26170.8
25891.9
25609.9
25325.5
25039.1
24751.2
24462.5
24173.3
23884.4
23596.3
23309.5
23024.7
22742.3
22463.1
22187.6
21916.5
21650.4
21389.9
21135.7
20888.5
20648.9
20417.6
20195.3
19982.8
19780.6
19589.7
19410.5
19244
19090.8
18951.6
18827.2
18718.4
18625.8
18550.1
18492.1
18452.5
18432
25714.9
25939.5
26161.5
26382.1
26602
26821.7
27041.3
27260.6
27479.3
27697.1
27913.3
28127.4
28338.6
28546.3
28749.6
28947.9
29140.4
29326.4
29505.2
29676
29838.4
29991.6
30135.2
30268.6
30391.3
30503.1
30603.4
30691.9
30768.5
30832.7
30884.5
30923.7
30950.2
30963.8
30964.5
30952.2
30926.8
30888.6
30837.8
30774.4
30698.5
30610.4
30510.2
30398.1
30274.4
30139.4
29993.4
29836.5
29669.3
29491.9
29304.9
29108.4
28903
28689
28466.9
28237
27999.8
27755.7
27505.3
27248.8
26986.9
26720
26448.6
26173.1
25894.1
25612.1
25327.6
25041.1
24753.2
24464.4
24175.2
23886.2
23598
23311.1
23026.2
22743.8
22464.5
22189
21917.8
21651.6
21391
21136.7
20889.4
20649.8
20418.4
20196.1
19983.5
19781.3
19590.2
19411
19244.4
19091.2
18952
18827.6
18718.7
18626
18550.4
18492.4
18452.8
18432.2
25423
25673.3
25920.4
26165
26407.6
26648.3
26887.3
27124.3
27359.2
27591.4
27820.6
28046.2
28267.7
28484.4
28695.8
28901.1
29099.7
29291.1
29474.5
29649.5
29815.5
29971.8
30118.1
30253.9
30378.8
30492.3
30594.2
30684.1
30761.9
30827.2
30880
30919.9
30947.1
30961.4
30962.6
30950.8
30925.8
30888
30837.5
30774.4
30698.7
30610.8
30510.8
30398.9
30275.4
30140.5
29994.6
29837.8
29670.7
29493.4
29306.4
29110
28904.6
28690.6
28468.5
28238.6
28001.4
27757.4
27506.9
27250.4
26988.5
26721.6
26450.1
26174.6
25895.6
25613.5
25329
25042.5
24754.5
24465.6
24176.4
23887.4
23599.1
23312.2
23027.3
22744.8
22465.4
22189.8
21918.6
21652.4
21391.8
21137.4
20890.1
20650.4
20419
20196.6
19983.9
19781.7
19590.6
19411.4
19244.7
19091.5
18952.2
18827.8
18718.9
18626.2
18550.5
18492.5
18452.9
18432.4
25173.2
25444.2
25711.7
25975.9
26237.2
26495.6
26750.9
27003
27251.6
27496.3
27736.7
27972.4
28202.9
28427.6
28646
28857.5
29061.6
29257.8
29445.5
29624.2
29793.3
29952.5
30101.3
30239.3
30366
30481.2
30584.5
30675.8
30754.6
30820.9
30874.5
30915.2
30943.1
30957.9
30959.6
30948.3
30923.7
30886.3
30836.1
30773.2
30697.8
30610.1
30510.3
30398.6
30275.2
30140.5
29994.6
29838
29670.9
29493.7
29306.8
29110.5
28905.1
28691.2
28469.1
28239.3
28002.1
27758.1
27507.6
27251.2
26989.3
26722.3
26450.8
26175.3
25896.3
25614.3
25329.7
25043.2
24755.2
24466.3
24177.1
23888
23599.8
23312.8
23027.8
22745.3
22465.9
22190.3
21919.1
21652.8
21392.1
21137.8
20890.4
20650.7
20419.3
20196.8
19984.2
19781.9
19590.8
19411.5
19244.9
19091.6
18952.3
18827.9
18718.9
18626.3
18550.6
18492.6
18453
18432.4
24961.4
25249
25532.8
25813.1
26089.7
26362.6
26631.6
26896.3
27156.5
27411.8
27661.8
27906.1
28144.3
28375.9
28600.5
28817.5
29026.4
29226.8
29418.2
29600.1
29772.2
29933.9
30084.9
30224.7
30353.2
30469.8
30574.5
30666.8
30746.7
30813.9
30868.2
30909.6
30938.1
30953.4
30955.6
30944.7
30920.5
30883.4
30833.5
30770.9
30695.8
30608.3
30508.7
30397.1
30273.9
30139.3
29993.6
29837.1
29670.1
29493
29306.2
29109.9
28904.7
28690.8
28468.8
28239
28001.9
27757.9
27507.4
27251
26989.1
26722.2
26450.8
26175.3
25896.3
25614.3
25329.7
25043.2
24755.2
24466.4
24177.1
23888.1
23599.8
23312.9
23027.9
22745.4
22466
22190.4
21919.1
21652.8
21392.2
21137.8
20890.5
20650.7
20419.3
20196.9
19984.2
19781.9
19590.8
19411.5
19244.9
19091.5
18952.3
18827.8
18718.9
18626.2
18550.5
18492.5
18452.9
18432.4
24784.1
25084.7
25381.7
25674.9
25963.9
26248.7
26528.8
26803.9
27073.8
27337.9
27596
27847.6
28092.3
28329.8
28559.5
28781.1
28994.2
29198.2
29392.8
29577.6
29752.1
29916
30068.9
30210.4
30340.3
30458.3
30564.1
30657.4
30738.2
30806.1
30861.2
30903.2
30932.1
30948
30950.6
30940.1
30916.3
30879.5
30829.8
30767.5
30692.6
30605.3
30505.9
30394.5
30271.5
30137
29991.4
29835.1
29668.2
29491.2
29304.5
29108.3
28903.1
28689.4
28467.4
28237.7
28000.7
27756.7
27506.4
27250
26988.2
26721.3
26449.9
26174.5
25895.6
25613.6
25329.1
25042.6
24754.6
24465.8
24176.6
23887.6
23599.3
23312.4
23027.4
22745
22465.6
22190
21918.8
21652.5
21391.9
21137.6
20890.2
20650.4
20419
20196.6
19983.9
19781.7
19590.6
19411.3
19244.7
19091.4
18952.1
18827.6
18718.7
18626.1
18550.4
18492.4
18452.8
18432.3
24638.4
24949.3
25256.6
25559.9
25858.9
26153.1
26442.2
26725.7
27003.3
27274.6
27539.2
27796.7
28046.9
28289.2
28523.2
28748.7
28965.2
29172.2
29369.5
29556.6
29733.2
29899
30053.5
30196.4
30327.6
30446.7
30553.4
30647.6
30729.1
30797.7
30853.4
30895.9
30925.4
30941.6
30944.6
30934.4
30910.9
30874.4
30825.1
30763
30688.3
30601.2
30502
30390.8
30267.9
30133.6
29988.2
29831.9
29665.2
29488.3
29301.7
29105.7
28900.6
28687
28465.1
28235.5
27998.6
27754.7
27504.4
27248.2
26986.4
26719.6
26448.3
26173
25894.1
25612.1
25327.7
25041.3
24753.4
24464.6
24175.5
23886.5
23598.3
23311.5
23026.5
22744.1
22464.8
22189.3
21918
21651.8
21391.2
21136.9
20889.6
20649.9
20418.5
20196.1
19983.5
19781.3
19590.2
19410.9
19244.3
19091
18951.8
18827.4
18718.4
18625.8
18550.1
18492.2
18452.6
18432
24522
24840.8
25156
25467.1
25773.7
26075.2
26371.2
26661.2
26944.9
27221.8
27491.5
27753.8
28008.1
28254.3
28491.8
28720.3
28939.5
29149
29348.4
29537.4
29715.7
29882.9
30038.7
30182.8
30315
30435
30542.5
30637.4
30719.5
30788.7
30844.9
30887.9
30917.7
30934.3
30937.7
30927.8
30904.6
30868.4
30819.2
30757.3
30682.9
30596
30496.9
30385.9
30263.2
30129.1
29983.8
29827.7
29661.1
29484.4
29297.9
29102
28897.1
28683.6
28461.8
28232.3
27995.5
27751.8
27501.6
27245.5
26983.8
26717.1
26445.9
26170.6
25891.8
25610
25325.7
25039.3
24751.6
24462.8
24173.8
23884.9
23596.8
23310
23025.2
22742.8
22463.6
22188.1
21916.9
21650.8
21390.3
21136
20888.7
20649.1
20417.8
20195.4
19982.8
19780.6
19589.6
19410.4
19243.8
19090.6
18951.4
18826.9
18718.1
18625.4
18549.8
18491.8
18452.2
18431.7
24433.1
24757.8
25078.8
25395.6
25707.7
26014.5
26315.5
26610.3
26898.4
27179.5
27453
27718.7
27976.2
28225.1
28465.2
28696
28917.2
29128.5
29329.6
29520
29699.6
29867.9
30024.7
30169.7
30302.6
30423.3
30531.4
30626.9
30709.5
30779.2
30835.7
30879.1
30909.2
30926.1
30929.8
30920.2
30897.3
30861.2
30812.3
30750.6
30676.4
30589.7
30490.8
30380
30257.4
30123.5
29978.4
29822.4
29656
29479.4
29293.1
29097.3
28892.6
28679.2
28457.6
28228.2
27991.5
27747.9
27497.9
27241.9
26980.4
26713.8
26442.7
26167.6
25888.9
25607.2
25323
25036.7
24749.1
24460.5
24171.5
23882.7
23594.7
23308.1
23023.3
22741
22461.9
22186.5
21915.4
21649.4
21388.9
21134.8
20887.6
20648
20416.7
20194.5
19981.9
19779.8
19588.8
19409.7
19243.2
19089.9
18950.8
18826.4
18717.6
18625
18549.3
18491.4
18451.8
18431.3
24370.6
24699.2
25024
25344.6
25660.3
25970.5
26274.9
26572.8
26863.8
27147.5
27423.5
27691.5
27951.1
28201.9
28443.6
28675.9
28898.5
29111
29313.1
29504.5
29684.9
29853.9
30011.4
30157
30290.5
30411.6
30520.2
30616.1
30699.1
30769
30825.9
30869.5
30899.9
30917.1
30921
30911.6
30888.9
30853.1
30804.3
30742.9
30668.8
30582.3
30483.6
30372.9
30250.5
30116.7
29971.8
29816
29649.8
29473.4
29287.2
29091.6
28887
28673.8
28452.4
28223.2
27986.6
27743.2
27493.3
27237.4
26976.1
26709.7
26438.7
26163.7
25885.2
25603.6
25319.6
25033.5
24745.9
24457.5
24168.7
23880
23592.1
23305.6
23020.9
22738.8
22459.8
22184.5
21913.6
21647.6
21387.3
21133.2
20886.1
20646.6
20415.5
20193.3
19980.8
19778.8
19587.9
19408.8
19242.3
19089.2
18950.1
18825.7
18716.9
18624.4
18548.8
18490.9
18451.3
18430.8
24333.6
24664.3
24991.1
25313.6
25631.1
25943.1
26249.1
26548.5
26840.9
27125.9
27403.2
27672.2
27932.8
28184.5
28427
28660.1
28883.3
29096.4
29299
29490.9
29671.7
29841.1
29999
30144.9
30278.7
30400.1
30508.9
30605
30688.2
30758.4
30815.4
30859.3
30889.9
30907.2
30911.2
30902.1
30879.5
30843.9
30795.3
30734
30660.1
30573.8
30475.2
30364.8
30242.6
30108.9
29964.2
29808.6
29642.5
29466.3
29280.3
29084.9
28880.5
28667.4
28446.2
28217.2
27980.8
27737.5
27487.8
27232.2
26971
26704.7
26434
26159.2
25880.8
25599.4
25315.5
25029.6
24742.2
24453.9
24165.2
23876.7
23589
23302.6
23018.1
22736.1
22457.3
22182.1
21911.3
21645.5
21385.3
21131.3
20884.3
20645
20413.9
20191.9
19979.5
19777.5
19586.7
19407.7
19241.3
19088.3
18949.2
18825
18716.2
18623.7
18548.1
18490.2
18450.7
18430.2
26565.8
27267.1
27981.9
28705
29431
30154.2
30867.2
31558.9
32210
32781.7
25658
26318.5
26988.5
27663.4
28338.8
29010.3
29673
30320.5
30943.3
31523.5
24909
25534.1
26165.2
26797.7
27428.1
28052.7
28668.1
29270.1
29853.5
30409.5
24283.8
24878.3
25475.4
26070.9
26661.5
27244.2
27816.3
28374.9
28917
29437.1
23757.5
24325.3
24892.7
25455.7
26011.4
26556.9
27090.2
27609.1
28111.3
28593.7
23311.1
23855.6
24396.9
24931.6
25456.5
25969.4
26468.3
26951.5
27417.5
27863.7
22930.5
23454.4
23973
24482.7
24980.7
25464.9
25933.6
26385.3
26818.8
27232.4
22604.5
23110.4
23608.9
24096.7
24571.2
25030.3
25472.6
25896.8
26301.8
26686.3
22324.6
22814.5
23295.3
23764
24217.8
24655.1
25074.5
25474.8
25855.2
26214.6
22083.7
22559.6
23024.9
23476.7
23912.6
24330.9
24730.4
25110.2
25469.7
25807.9
21876.6
22340
22791.7
23228.8
23649
24050.9
24433.3
24795.6
25137.3
25457.9
21698.7
22151.2
22590.9
23015.1
23421.7
23809.4
24177.3
24524.8
24851.7
25157.6
21546.5
21989.3
22418.5
22831.6
23226.5
23602.1
23957.6
24292.7
24607.3
24901.4
21417.1
21851.5
22271.6
22674.9
23059.8
23425.2
23770.3
24095.1
24399.8
24684.5
21308.2
21735.2
22147.4
22542.5
22918.9
23275.7
23612.3
23928.8
24225.5
24503
21218
21638.5
22043.9
22432.1
22801.5
23151.2
23480.9
23790.9
24081.6
24353.7
21144.9
21559.9
21959.6
22342
22705.7
23049.8
23374.3
23679.4
23965.8
24234.4
21087.8
21498.2
21893.2
22271
22630.2
22970.2
23290.9
23592.7
23876.3
24142.9
21045.9
21452.5
21843.8
22218
22574.1
22911.3
23229.6
23529.5
23812
24078.1
21018.5
21422.1
21810.7
22182.5
22536.6
22872.3
23189.7
23489.3
23772
24039.2
22287
23726.3
25533.6
27884.9
31076.3
35676.8
42903.8
56039.8
87766.4
242114
22658.6
24068.3
25853.7
28183.5
31351.4
35916.4
43083.3
56086.2
87421.1
239393
23057.3
24451
26219.2
28529.5
31673.9
36204
43309.3
56176.6
87109.7
236730
23491
24873.8
26628.7
28923
32045.8
36542.8
43589
56323.4
86863.5
234243
23964.9
25339.1
27083.7
29364.6
32469.2
36937.5
43929.4
56540.3
86713.8
232101
24481.8
25848.9
27585.4
29856.3
32946.6
37391.4
44338.6
56843.4
86691.2
230457
25042
26403.7
28134.4
30398.6
33479.8
37909.6
44826.1
57256.9
86876.6
229371
25644
27002.3
28730.3
30992
34069.7
38493.9
45400.2
57810.3
87394.3
229270
26284.7
27642.2
29370.6
31634.3
34714.9
39145.4
46065
58492.8
88140.7
229821
26960.1
28319.3
30052.7
32323
35416.2
39866.6
46813.2
59297.5
89095.9
231078
20864.6
22361.3
24240.9
26680.8
29988
34745.2
42217.7
55838.4
88975.3
252772
20899.9
22394.8
24272.8
26711.2
30017.3
34774.7
42250.3
55885.3
89081.3
253235
20958.5
22449.5
24323.6
26758.1
30060.7
34815.4
42291.3
55937.4
89192.2
253791
21040.3
22525.3
24393.5
26821.8
30118.1
34866.6
42337.6
55983.7
89258
253975
21145.2
22622.5
24482.8
26902.8
30190
34928.2
42387.1
56015.9
89252.8
253608
21272.9
22741.2
24592.1
27002
30277.4
35001.1
42439
56032.3
89161
252699
21422.9
22881.5
24722.4
27120.9
30382.4
35086.9
42497.1
56032.5
88992.6
251330
21593.9
23043.9
24875.3
27262.3
30508.2
35191
42562.4
56029.2
88754.1
249477
21783.5
23229.5
25054.3
27430.8
30660.8
35317.8
42650.1
56021.1
88454.6
247270
21990.8
23445.4
25268.2
27634.3
30848
35477.2
42759
56017.7
88120.6
244841
790.228
593.231
459.937
365.994
297.546
246.241
206.894
176.075
151.539
131.683
115.417
101.923
90.6117
81.0504
72.8782
65.8704
59.7807
54.4975
49.8442
45.7633
42.1336
38.9143
36.0332
33.4477
31.1249
29.018
27.1173
25.3807
23.8029
22.3592
21.0308
19.8235
18.688
17.6767
16.6917
15.8451
14.9754
14.2672
13.5016
12.8819
12.2636
11.6957
11.0707
10.3493
9.91089
9.21075
10.5745
31.1097
102.883
228.136
390.127
583.218
802.54
1043.87
1303.52
1578.34
1865.55
2162.79
2468.01
2779.45
3095.58
3415.1
3736.88
4059.95
4383.48
4706.74
5029.1
5350.02
5669.05
5985.8
6299.94
6611.21
6919.41
7224.41
7526.13
7824.59
8119.85
8412.08
8701.55
8988.61
9273.79
9557.73
9841.28
10125.5
10411.7
10701.7
10997.4
11301.4
11617.2
11948.9
12301.9
12683.2
13102
13570.7
14106.3
14732.5
15483.3
16409.7
17591.7
19162.6
790.137
593.069
459.751
365.81
297.368
246.078
206.743
175.937
151.414
131.568
115.313
101.828
90.5247
80.9701
72.8047
65.8025
59.718
54.4396
49.7901
45.7135
42.0865
38.8712
35.9919
33.4102
31.0885
28.9849
27.0854
25.3509
23.7753
22.3317
21.007
19.7983
18.6669
17.6544
16.6724
15.8254
14.9582
14.2498
13.4861
12.8702
12.2456
11.6997
11.0517
10.3597
9.90902
9.21942
10.8121
32.8195
107.295
234.496
398.329
593.099
813.936