/*--------------------------------*- C++ -*----------------------------------*\
  =========                 |
  \\      /  F ield         | OpenFOAM: The Open Source CFD Toolbox
   \\    /   O peration     | Website:  https://openfoam.org
    \\  /    A nd           | Version:  8
     \\/     M anipulation  |
\*---------------------------------------------------------------------------*/
FoamFile
{
    version     2.0;
    format      ascii;
    class       volScalarField;
    location    "0.500023";
    object      k;
}
// * * * * * * * * * * * * * * * * * * * * * * * * * * * * * * * * * * * * * //

dimensions      [0 2 -2 0 0 0 0];

internalField   nonuniform List<scalar> 
6800
(
669.622
1373.8
1711.77
1927.88
2089.54
2220.28
2331.12
2427.98
2514.5
2592.93
661.319
1353.56
1684.76
1896.47
2054.65
2182.41
2290.48
2384.69
2468.51
2544.2
652.536
1332.55
1656.89
1864.08
2018.67
2143.32
2248.55
2340.08
2421.37
2494.72
643.489
1311.24
1628.72
1831.34
1982.28
2103.76
2206.09
2294.91
2373.66
2444.59
634.489
1290.11
1600.81
1798.86
1946.12
2064.39
2163.77
2249.84
2325.95
2394.35
625.789
1269.68
1573.72
1767.22
1910.81
2025.83
2122.24
2205.49
2278.91
2344.7
617.712
1250.45
1548.04
1737.02
1876.94
1988.71
2082.11
2162.53
2233.22
2296.35
610.518
1232.93
1524.29
1708.8
1845.05
1953.57
2043.98
2121.57
2189.55
2250.04
604.441
1217.56
1502.99
1683.02
1815.65
1920.94
2008.41
2083.2
2148.52
2206.42
599.673
1204.68
1484.41
1660.11
1789.1
1891.31
1975.85
2047.96
2110.67
2166.09
701.405
1480.56
1859.88
2102.43
2283.68
2430.3
2554.62
2663.38
2760.63
2848.96
702.362
1479.21
1857.51
2099.5
2280.37
2426.7
2550.78
2659.33
2756.4
2844.58
702.595
1475.58
1852.14
2093.04
2273.12
2418.83
2542.38
2650.48
2747.14
2834.97
701.998
1469.85
1843.82
2083.11
2262.01
2406.75
2529.49
2636.89
2732.93
2820.2
700.415
1462.02
1832.63
2069.81
2247.12
2390.58
2512.26
2618.72
2713.93
2800.42
697.867
1452.14
1818.64
2053.23
2228.6
2370.52
2490.9
2596.22
2690.38
2775.87
694.164
1440.23
1801.97
2033.53
2206.66
2346.8
2465.69
2569.68
2662.62
2746.93
689.676
1426.37
1782.81
2010.92
2181.53
2319.68
2436.9
2539.45
2631.08
2714.13
683.977
1410.57
1761.24
1985.58
2153.45
2289.4
2404.8
2505.82
2596.19
2678.17
677.261
1393.02
1737.44
1957.8
2122.66
2256.18
2369.51
2468.82
2557.94
2639.64
2962.62
3094.44
3215.69
3328.73
3435.13
3535.95
3631.95
3723.7
3811.6
3895.95
3976.98
4054.86
4129.73
4201.7
4270.83
4337.2
4400.85
4461.83
4520.15
4575.86
4628.97
4679.5
4727.47
4772.9
4815.8
4856.18
4894.07
4929.48
4962.43
4992.95
5021.04
5046.74
5070.06
5091.04
5109.71
5126.09
5140.21
5152.12
5161.84
5169.41
5174.87
5178.26
5179.63
5179.01
5176.45
5171.99
5165.69
5157.6
5147.78
5136.27
5123.14
5108.44
5092.22
5074.56
5055.49
5035.1
5013.44
4990.57
4966.57
4941.49
4915.41
4888.39
4860.51
4831.83
4802.42
4772.37
4741.74
4710.61
4679.06
4647.17
4615.01
4582.67
4550.22
4517.76
4485.36
4453.11
4421.09
4389.4
4358.12
4327.34
4297.15
4267.64
4238.91
4211.03
4184.11
4158.23
4133.49
4109.98
4087.78
4067
4047.7
4029.99
4013.95
3999.65
3987.19
3976.63
3968.06
3961.54
3957.14
3954.93
2958.11
3089.99
3211.37
3324.59
3431.17
3532.19
3628.4
3720.35
3808.45
3893
3974.22
4052.3
4127.36
4199.51
4268.83
4335.38
4399.21
4460.35
4518.85
4574.72
4627.99
4678.68
4726.8
4772.37
4815.41
4855.93
4893.96
4929.49
4962.57
4993.19
5021.4
5047.2
5070.63
5091.71
5110.46
5126.93
5141.13
5153.11
5162.9
5170.54
5176.06
5179.5
5180.92
5180.35
5177.83
5173.4
5167.13
5159.07
5149.27
5137.78
5124.66
5109.97
5093.76
5076.09
5057.02
5036.62
5014.95
4992.07
4968.05
4942.95
4916.85
4889.8
4861.89
4833.17
4803.74
4773.65
4742.98
4711.81
4680.22
4648.28
4616.08
4583.69
4551.19
4518.68
4486.23
4453.92
4421.86
4390.12
4358.78
4327.95
4297.71
4268.15
4239.36
4211.44
4184.47
4158.54
4133.76
4110.2
4087.97
4067.14
4047.81
4030.06
4013.99
3999.67
3987.18
3976.6
3968.01
3961.48
3957.08
3954.86
2948.18
3080.15
3201.78
3315.3
3422.24
3523.63
3620.22
3712.56
3801.04
3885.98
3967.58
4046.04
4121.47
4193.99
4263.67
4330.58
4394.75
4456.24
4515.07
4571.27
4624.86
4675.86
4724.29
4770.15
4813.48
4854.28
4892.57
4928.37
4961.7
4992.57
5021
5047.03
5070.67
5091.95
5110.91
5127.55
5141.93
5154.08
5164.02
5171.8
5177.46
5181.04
5182.57
5182.11
5179.69
5175.35
5169.16
5161.17
5151.44
5140
5126.93
5112.27
5096.09
5078.45
5059.4
5039.01
5017.34
4994.45
4970.42
4945.3
4919.17
4892.09
4864.14
4835.39
4805.9
4775.76
4745.04
4713.81
4682.15
4650.15
4617.87
4585.41
4552.84
4520.25
4487.71
4455.33
4423.18
4391.35
4359.93
4329.02
4298.69
4269.04
4240.17
4212.16
4185.11
4159.11
4134.25
4110.62
4088.31
4067.42
4048.03
4030.23
4014.1
3999.73
3987.2
3976.59
3967.97
3961.42
3957
3954.78
2932.9
3064.93
3186.86
3300.81
3408.25
3510.17
3607.32
3700.23
3789.28
3874.78
3956.95
4035.97
4111.96
4185.02
4255.24
4322.67
4387.37
4449.37
4508.71
4565.4
4619.47
4670.94
4719.83
4766.14
4809.9
4851.13
4889.83
4926.02
4959.73
4990.97
5019.77
5046.14
5070.11
5091.7
5110.96
5127.89
5142.55
5154.95
5165.14
5173.15
5179.02
5182.8
5184.52
5184.23
5181.97
5177.78
5171.73
5163.86
5154.23
5142.89
5129.9
5115.32
5099.2
5081.6
5062.58
5042.22
5020.56
4997.68
4973.64
4948.51
4922.35
4895.24
4867.25
4838.45
4808.91
4778.7
4747.91
4716.6
4684.86
4652.76
4620.39
4587.83
4555.16
4522.46
4489.82
4457.32
4425.05
4393.11
4361.57
4330.54
4300.09
4270.33
4241.34
4213.21
4186.05
4159.93
4134.96
4111.23
4088.83
4067.84
4048.36
4030.48
4014.28
3999.84
3987.26
3976.59
3967.94
3961.35
3956.91
3954.68
2912.33
3044.34
3166.58
3281.05
3389.1
3491.71
3589.58
3683.22
3773.02
3859.27
3942.19
4021.94
4098.66
4172.45
4243.38
4311.52
4376.92
4439.6
4499.61
4556.96
4611.67
4663.77
4713.27
4760.19
4804.54
4846.33
4885.58
4922.31
4956.54
4988.28
5017.56
5044.39
5068.81
5090.84
5110.5
5127.83
5142.85
5155.61
5166.13
5174.46
5180.63
5184.69
5186.68
5186.63
5184.6
5180.62
5174.75
5167.05
5157.58
5146.38
5133.51
5119.03
5103
5085.48
5066.52
5046.2
5024.57
5001.71
4977.67
4952.53
4926.36
4899.21
4871.18
4842.32
4812.71
4782.43
4751.55
4720.15
4688.31
4656.1
4623.62
4590.93
4558.13
4525.29
4492.51
4459.88
4427.46
4395.37
4363.69
4332.5
4301.9
4271.99
4242.85
4214.57
4187.26
4161.01
4135.9
4112.04
4089.51
4068.4
4048.81
4030.82
4014.53
4000.01
3987.34
3976.62
3967.91
3961.28
3956.82
3954.57
2886.68
3018.43
3140.92
3255.93
3364.69
3468.11
3566.85
3661.38
3752.1
3839.26
3923.1
4003.77
4081.4
4156.09
4227.91
4296.93
4363.19
4426.73
4487.58
4545.75
4601.28
4654.17
4704.44
4752.12
4797.2
4839.71
4879.66
4917.07
4951.95
4984.33
5014.22
5041.65
5066.63
5089.21
5109.39
5127.22
5142.72
5155.93
5166.89
5175.62
5182.18
5186.6
5188.92
5189.19
5187.45
5183.75
5178.13
5170.66
5161.39
5150.38
5137.67
5123.34
5107.43
5090.01
5071.14
5050.89
5029.32
5006.48
4982.46
4957.32
4931.13
4903.96
4875.88
4846.96
4817.28
4786.92
4755.94
4724.43
4692.47
4660.14
4627.52
4594.69
4561.73
4528.74
4495.8
4462.99
4430.4
4398.13
4366.27
4334.9
4304.12
4274.02
4244.7
4216.25
4188.76
4162.33
4137.06
4113.04
4090.35
4069.1
4049.37
4031.26
4014.84
4000.22
3987.46
3976.66
3967.88
3961.21
3956.72
3954.45
2856.26
2987.34
3109.9
3225.41
3334.93
3439.25
3538.96
3634.54
3726.32
3814.56
3899.49
3981.24
4059.96
4135.72
4208.61
4278.69
4345.99
4410.55
4472.4
4531.57
4588.07
4641.91
4693.12
4741.71
4787.68
4831.06
4871.86
4910.09
4945.77
4978.92
5009.56
5037.7
5063.38
5086.62
5107.45
5125.89
5141.98
5155.75
5167.23
5176.47
5183.5
5188.37
5191.11
5191.77
5190.41
5187.04
5181.74
5174.56
5165.55
5154.77
5142.28
5128.13
5112.39
5095.11
5076.36
5056.2
5034.7
5011.92
4987.94
4962.81
4936.61
4909.41
4881.29
4852.32
4822.56
4792.11
4761.03
4729.4
4697.31
4664.84
4632.06
4599.07
4565.94
4532.77
4499.63
4466.63
4433.84
4401.37
4369.29
4337.72
4306.72
4276.41
4246.88
4218.22
4190.53
4163.9
4138.43
4114.22
4091.35
4069.93
4050.04
4031.77
4015.22
4000.48
3987.61
3976.72
3967.87
3961.14
3956.6
3954.32
2821.63
2951.33
3073.63
3189.5
3299.74
3405
3505.8
3602.53
3695.51
3784.98
3871.15
3954.16
4034.12
4111.12
4185.25
4256.54
4325.05
4390.81
4453.84
4514.17
4571.8
4626.77
4679.07
4728.73
4775.75
4820.15
4861.95
4901.15
4937.77
4971.83
5003.35
5032.35
5058.85
5082.88
5104.47
5123.64
5140.43
5154.87
5166.99
5176.83
5184.43
5189.84
5193.09
5194.23
5193.31
5190.36
5185.44
5178.61
5169.93
5159.44
5147.21
5133.3
5117.76
5100.67
5082.07
5062.04
5040.64
5017.94
4994.01
4968.91
4942.72
4915.51
4887.35
4858.32
4828.5
4797.95
4766.76
4735.01
4702.78
4670.15
4637.21
4604.04
4570.72
4537.34
4504
4470.78
4437.77
4405.06
4372.76
4340.94
4309.71
4279.16
4249.38
4220.49
4192.56
4165.7
4140.01
4115.58
4092.51
4070.89
4050.81
4032.38
4015.67
4000.78
3987.79
3976.79
3967.86
3961.06
3956.48
3954.18
2783.73
2910.86
3032.32
3148.27
3259.13
3365.32
3467.23
3565.2
3659.5
3750.34
3837.89
3922.29
4003.66
4082.07
4157.59
4230.27
4300.16
4367.27
4431.65
4493.3
4552.23
4608.48
4662.04
4712.93
4761.16
4806.73
4849.67
4889.99
4927.7
4962.82
4995.36
5025.35
5052.81
5077.76
5100.24
5120.26
5137.86
5153.08
5165.95
5176.5
5184.77
5190.81
5194.66
5196.37
5195.97
5193.53
5189.07
5182.66
5174.36
5164.23
5152.33
5138.7
5123.42
5106.55
5088.15
5068.28
5047.02
5024.43
5000.57
4975.53
4949.36
4922.16
4893.98
4864.9
4835.01
4804.37
4773.08
4741.2
4708.83
4676.04
4642.92
4609.55
4576.03
4542.43
4508.86
4475.4
4442.15
4409.19
4376.62
4344.54
4313.05
4282.23
4252.19
4223.03
4194.85
4167.73
4141.79
4117.12
4093.82
4071.98
4051.69
4033.07
4016.18
4001.13
3988.01
3976.88
3967.85
3960.98
3956.35
3954.02
2744.28
2866.84
2986.51
3102.05
3213.27
3320.28
3423.29
3522.54
3618.22
3710.52
3799.57
3885.51
3968.42
4048.38
4125.45
4199.67
4271.09
4339.72
4405.6
4468.73
4529.13
4586.81
4641.79
4694.06
4743.65
4790.56
4834.8
4876.38
4915.32
4951.64
4985.35
5016.46
5045.02
5071.02
5094.51
5115.51
5134.05
5150.17
5163.89
5175.26
5184.31
5191.09
5195.64
5198
5198.22
5196.36
5192.43
5186.53
5178.69
5168.98
5157.46
5144.19
5129.22
5112.62
5094.46
5074.8
5053.71
5031.26
5007.52
4982.56
4956.44
4929.26
4901.07
4871.97
4842.02
4811.3
4779.9
4747.9
4715.38
4682.42
4649.12
4615.55
4581.81
4547.99
4514.18
4480.47
4446.95
4413.72
4380.87
4348.51
4316.72
4285.62
4255.29
4225.84
4197.37
4169.98
4143.76
4118.83
4095.27
4073.18
4052.67
4033.83
4016.75
4001.53
3988.25
3976.99
3967.85
3960.9
3956.21
3953.85
2736.08
2855.64
2972.27
3085.59
3195.36
3301.52
3404.11
3503.26
3599.07
3691.66
3781.14
3867.59
3951.08
4031.67
4109.41
4184.33
4256.47
4325.83
4392.44
4456.31
4517.45
4575.86
4631.57
4684.56
4734.86
4782.46
4827.38
4869.64
4909.23
4946.18
4980.51
5012.22
5041.36
5067.92
5091.95
5113.47
5132.51
5149.11
5163.29
5175.09
5184.56
5191.73
5196.64
5199.35
5199.9
5198.34
5194.7
5189.06
5181.46
5171.97
5160.65
5147.55
5132.75
5116.29
5098.25
5078.69
5057.69
5035.3
5011.61
4986.68
4960.58
4933.39
4905.2
4876.06
4846.07
4815.3
4783.83
4751.75
4719.13
4686.08
4652.66
4618.97
4585.1
4551.15
4517.19
4483.33
4449.65
4416.26
4383.25
4350.72
4318.77
4287.5
4257
4227.39
4198.75
4171.2
4144.82
4119.73
4096.03
4073.8
4053.16
4034.2
4017.01
4001.68
3988.31
3976.98
3967.77
3960.77
3956.05
3953.68
2765.05
2879.58
2991.77
3101.4
3208.2
3312.01
3412.76
3510.44
3605.1
3696.79
3785.54
3871.42
3954.45
4034.67
4112.12
4186.8
4258.75
4327.96
4394.44
4458.22
4519.28
4577.63
4633.28
4686.24
4736.51
4784.09
4828.99
4871.23
4910.81
4947.75
4982.07
5013.78
5042.9
5069.47
5093.49
5115
5134.04
5150.62
5164.79
5176.58
5186.04
5193.19
5198.1
5200.79
5201.32
5199.75
5196.09
5190.42
5182.81
5173.3
5161.95
5148.83
5133.99
5117.51
5099.44
5079.85
5058.81
5036.4
5012.67
4987.7
4961.57
4934.35
4906.12
4876.95
4846.92
4816.11
4784.6
4752.48
4719.83
4686.73
4653.28
4619.55
4585.65
4551.65
4517.65
4483.75
4450.04
4416.61
4383.57
4351
4319.02
4287.71
4257.18
4227.53
4198.86
4171.27
4144.87
4119.75
4096.02
4073.77
4053.11
4034.12
4016.91
4001.57
3988.18
3976.84
3967.62
3960.62
3955.89
3953.51
2793.8
2903.01
3010.93
3117.06
3221.02
3322.55
3421.47
3517.71
3611.21
3701.96
3789.98
3875.26
3957.81
4037.65
4114.79
4189.22
4260.96
4330.01
4396.37
4460.03
4521.01
4579.3
4634.9
4687.81
4738.04
4785.59
4830.48
4872.7
4912.27
4949.2
4983.5
5015.21
5044.32
5070.88
5094.89
5116.4
5135.42
5152
5166.16
5177.95
5187.39
5194.54
5199.43
5202.11
5202.62
5201.03
5197.36
5191.67
5184.03
5174.5
5163.13
5149.99
5135.13
5118.62
5100.52
5080.91
5059.84
5037.4
5013.64
4988.64
4962.48
4935.23
4906.96
4877.75
4847.69
4816.85
4785.31
4753.15
4720.46
4687.33
4653.84
4620.08
4586.14
4552.11
4518.07
4484.14
4450.39
4416.93
4383.85
4351.25
4319.23
4287.89
4257.33
4227.65
4198.95
4171.34
4144.91
4119.77
4096.01
4073.74
4053.06
4034.05
4016.82
4001.46
3988.06
3976.71
3967.49
3960.47
3955.74
3953.36
2821.49
2925.73
3029.62
3132.45
3233.7
3333.03
3430.17
3524.97
3617.31
3707.14
3794.4
3879.07
3961.14
4040.58
4117.4
4191.57
4263.1
4331.98
4398.2
4461.76
4522.64
4580.86
4636.4
4689.27
4739.46
4786.98
4831.84
4874.04
4913.59
4950.51
4984.81
5016.5
5045.61
5072.16
5096.17
5117.66
5136.68
5153.25
5167.4
5179.18
5188.61
5195.75
5200.63
5203.29
5203.8
5202.19
5198.5
5192.8
5185.14
5175.59
5164.2
5151.03
5136.15
5119.62
5101.5
5081.86
5060.77
5038.3
5014.51
4989.49
4963.3
4936.02
4907.72
4878.48
4848.39
4817.51
4785.94
4753.76
4721.04
4687.87
4654.35
4620.56
4586.58
4552.52
4518.45
4484.49
4450.71
4417.21
4384.11
4351.48
4319.43
4288.06
4257.47
4227.76
4199.04
4171.4
4144.94
4119.78
4096
4073.71
4053
4033.98
4016.74
4001.36
3987.95
3976.59
3967.35
3960.33
3955.6
3953.22
2847.79
2947.54
3047.7
3147.42
3246.11
3343.33
3438.75
3532.15
3623.35
3712.25
3798.76
3882.82
3964.39
4043.44
4119.92
4193.83
4265.15
4333.85
4399.93
4463.37
4524.16
4582.3
4637.78
4690.6
4740.75
4788.24
4833.08
4875.26
4914.79
4951.7
4985.98
5017.66
5046.76
5073.3
5097.31
5118.8
5137.81
5154.37
5168.52
5180.28
5189.71
5196.83
5201.7
5204.36
5204.85
5203.23
5199.52
5193.81
5186.13
5176.57
5165.16
5151.97
5137.07
5120.52
5102.38
5082.72
5061.6
5039.11
5015.3
4990.25
4964.03
4936.73
4908.4
4879.14
4849.02
4818.11
4786.51
4754.3
4721.55
4688.36
4654.81
4620.98
4586.98
4552.89
4518.79
4484.8
4450.99
4417.47
4384.33
4351.68
4319.6
4288.2
4257.59
4227.86
4199.11
4171.45
4144.97
4119.78
4095.98
4073.67
4052.95
4033.91
4016.66
4001.27
3987.85
3976.47
3967.23
3960.21
3955.47
3953.09
2872.51
2968.27
3065.02
3161.87
3258.16
3353.37
3447.14
3539.18
3629.27
3717.26
3803.02
3886.48
3967.55
4046.19
4122.35
4195.99
4267.09
4335.61
4401.55
4464.87
4525.57
4583.63
4639.05
4691.81
4741.92
4789.38
4834.19
4876.34
4915.86
4952.75
4987.02
5018.7
5047.79
5074.32
5098.32
5119.8
5138.8
5155.36
5169.5
5181.26
5190.67
5197.79
5202.65
5205.3
5205.78
5204.15
5200.43
5194.7
5187.01
5177.43
5166.01
5152.8
5137.89
5121.31
5103.16
5083.48
5062.34
5039.82
5015.99
4990.92
4964.68
4937.35
4909
4879.72
4849.57
4818.64
4787.02
4754.78
4722
4688.79
4655.21
4621.36
4587.33
4553.21
4519.09
4485.07
4451.24
4417.69
4384.53
4351.85
4319.75
4288.33
4257.69
4227.94
4199.17
4171.49
4144.99
4119.78
4095.97
4073.64
4052.9
4033.85
4016.58
4001.18
3987.75
3976.37
3967.12
3960.09
3955.35
3952.97
2895.58
2987.79
3081.46
3175.67
3269.72
3363.05
3455.25
3545.98
3635
3722.1
3807.14
3890
3970.59
4048.82
4124.66
4198.03
4268.91
4337.25
4403.04
4466.24
4526.84
4584.83
4640.18
4692.89
4742.96
4790.39
4835.16
4877.3
4916.8
4953.67
4987.93
5019.6
5048.68
5075.2
5099.19
5120.67
5139.67
5156.22
5170.35
5182.1
5191.51
5198.62
5203.47
5206.11
5206.58
5204.94
5201.21
5195.47
5187.77
5178.18
5166.74
5153.53
5138.59
5122.01
5103.83
5084.14
5062.98
5040.45
5016.6
4991.51
4965.25
4937.9
4909.53
4880.22
4850.06
4819.11
4787.46
4755.2
4722.4
4689.16
4655.56
4621.69
4587.64
4553.49
4519.35
4485.31
4451.45
4417.89
4384.7
4352
4319.88
4288.44
4257.78
4228.01
4199.22
4171.52
4145
4119.78
4095.95
4073.61
4052.86
4033.79
4016.51
4001.1
3987.66
3976.27
3967.02
3959.98
3955.24
3952.86
2916.94
3006.03
3096.93
3188.73
3280.71
3372.29
3463.01
3552.51
3640.49
3726.74
3811.08
3893.35
3973.46
4051.31
4126.82
4199.93
4270.59
4338.76
4404.4
4467.48
4527.99
4585.89
4641.18
4693.84
4743.87
4791.26
4836.01
4878.12
4917.6
4954.46
4988.71
5020.36
5049.44
5075.95
5099.94
5121.41
5140.4
5156.94
5171.07
5182.82
5192.22
5199.33
5204.17
5206.8
5207.27
5205.62
5201.88
5196.13
5188.42
5178.82
5167.37
5154.14
5139.2
5122.6
5104.41
5084.7
5063.53
5040.98
5017.12
4992.01
4965.74
4938.37
4909.98
4880.66
4850.47
4819.5
4787.84
4755.55
4722.74
4689.48
4655.86
4621.97
4587.9
4553.73
4519.57
4485.51
4451.64
4418.05
4384.85
4352.13
4319.99
4288.53
4257.85
4228.06
4199.26
4171.54
4145.01
4119.77
4095.93
4073.57
4052.81
4033.74
4016.44
4001.03
3987.58
3976.18
3966.92
3959.88
3955.14
3952.76
2936.58
3022.92
3111.34
3200.96
3291.05
3381
3470.34
3558.68
3645.69
3731.13
3814.79
3896.51
3976.16
4053.62
4128.82
4201.67
4272.12
4340.12
4405.61
4468.58
4528.99
4586.82
4642.04
4694.65
4744.64
4791.99
4836.71
4878.8
4918.27
4955.11
4989.35
5020.99
5050.06
5076.57
5100.55
5122.01
5141
5157.54
5171.66
5183.41
5192.81
5199.91
5204.75
5207.37
5207.83
5206.18
5202.43
5196.67
5188.96
5179.34
5167.89
5154.65
5139.7
5123.09
5104.89
5085.17
5063.99
5041.43
5017.55
4992.43
4966.14
4938.76
4910.36
4881.01
4850.81
4819.83
4788.15
4755.85
4723.02
4689.74
4656.11
4622.2
4588.11
4553.93
4519.76
4485.68
4451.79
4418.18
4384.97
4352.23
4320.07
4288.6
4257.91
4228.11
4199.29
4171.56
4145.02
4119.77
4095.91
4073.54
4052.77
4033.68
4016.38
4000.96
3987.5
3976.1
3966.84
3959.8
3955.05
3952.67
2954.47
3038.4
3124.63
3212.29
3300.66
3389.13
3477.2
3564.45
3650.55
3735.22
3818.24
3899.43
3978.64
4055.74
4130.64
4203.24
4273.49
4341.31
4406.68
4469.53
4529.85
4587.6
4642.76
4695.32
4745.27
4792.59
4837.28
4879.35
4918.8
4955.63
4989.85
5021.49
5050.55
5077.05
5101.02
5122.49
5141.47
5158.01
5172.13
5183.87
5193.26
5200.36
5205.2
5207.82
5208.27
5206.61
5202.87
5197.1
5189.38
5179.76
5168.3
5155.06
5140.09
5123.48
5105.27
5085.54
5064.35
5041.78
5017.89
4992.76
4966.46
4939.07
4910.65
4881.3
4851.09
4820.09
4788.4
4756.09
4723.24
4689.96
4656.31
4622.39
4588.28
4554.09
4519.9
4485.81
4451.91
4418.29
4385.06
4352.31
4320.14
4288.66
4257.96
4228.14
4199.31
4171.57
4145.01
4119.75
4095.89
4073.51
4052.73
4033.64
4016.33
4000.9
3987.44
3976.03
3966.77
3959.72
3954.98
3952.59
2970.62
3052.46
3136.75
3222.66
3309.48
3396.6
3483.5
3569.76
3655.01
3738.97
3821.4
3902.09
3980.88
4057.64
4132.25
4204.62
4274.68
4342.34
4407.57
4470.32
4530.55
4588.23
4643.33
4695.84
4745.75
4793.04
4837.71
4879.76
4919.18
4956
4990.22
5021.84
5050.9
5077.39
5101.36
5122.82
5141.81
5158.34
5172.46
5184.2
5193.59
5200.69
5205.52
5208.14
5208.59
5206.93
5203.18
5197.41
5189.69
5180.07
5168.6
5155.35
5140.39
5123.76
5105.55
5085.81
5064.62
5042.04
5018.15
4993.01
4966.7
4939.3
4910.88
4881.52
4851.29
4820.29
4788.59
4756.27
4723.41
4690.11
4656.45
4622.52
4588.41
4554.21
4520.01
4485.91
4451.99
4418.37
4385.13
4352.37
4320.19
4288.7
4257.99
4228.16
4199.32
4171.57
4145.01
4119.74
4095.87
4073.49
4052.7
4033.6
4016.28
4000.85
3987.38
3975.97
3966.71
3959.66
3954.91
3952.53
2985.03
3065.06
3147.65
3232.02
3317.47
3403.37
3489.22
3574.57
3659.05
3742.36
3824.23
3904.46
3982.87
4059.31
4133.65
4205.8
4275.67
4343.19
4408.3
4470.95
4531.09
4588.7
4643.75
4696.21
4746.08
4793.34
4837.99
4880.02
4919.43
4956.24
4990.44
5022.06
5051.11
5077.6
5101.57
5123.03
5142.01
5158.54
5172.66
5184.4
5193.79
5200.89
5205.72
5208.34
5208.79
5207.13
5203.38
5197.61
5189.89
5180.26
5168.79
5155.54
5140.57
5123.95
5105.73
5085.99
5064.8
5042.21
5018.31
4993.17
4966.86
4939.45
4911.03
4881.66
4851.43
4820.42
4788.71
4756.39
4723.53
4690.22
4656.55
4622.62
4588.5
4554.29
4520.08
4485.97
4452.05
4418.42
4385.17
4352.4
4320.22
4288.72
4258
4228.17
4199.32
4171.57
4145
4119.73
4095.85
4073.46
4052.67
4033.56
4016.24
4000.81
3987.34
3975.93
3966.66
3959.61
3954.86
3952.48
2997.71
3076.17
3157.3
3240.33
3324.56
3409.39
3494.3
3578.83
3662.62
3745.34
3826.71
3906.52
3984.58
4060.72
4134.82
4206.77
4276.47
4343.85
4408.84
4471.4
4531.46
4589.01
4644.01
4696.43
4746.27
4793.5
4838.12
4880.13
4919.53
4956.33
4990.53
5022.14
5051.18
5077.67
5101.64
5123.09
5142.08
5158.61
5172.73
5184.47
5193.86
5200.96
5205.8
5208.42
5208.87
5207.21
5203.46
5197.69
5189.97
5180.35
5168.88
5155.63
5140.66
5124.04
5105.82
5086.08
5064.88
5042.3
5018.4
4993.25
4966.94
4939.53
4911.1
4881.73
4851.5
4820.49
4788.78
4756.45
4723.58
4690.27
4656.6
4622.66
4588.54
4554.33
4520.12
4486
4452.08
4418.44
4385.19
4352.42
4320.23
4288.73
4258
4228.17
4199.32
4171.56
4144.99
4119.71
4095.83
4073.44
4052.64
4033.53
4016.21
4000.77
3987.3
3975.89
3966.62
3959.57
3954.82
3952.44
3008.65
3085.8
3165.67
3247.54
3330.72
3414.62
3498.7
3582.52
3665.69
3747.88
3828.81
3908.24
3985.98
4061.86
4135.74
4207.51
4277.06
4344.31
4409.2
4471.67
4531.67
4589.16
4644.11
4696.49
4746.29
4793.5
4838.1
4880.1
4919.49
4956.27
4990.47
5022.07
5051.11
5077.61
5101.57
5123.03
5142.01
5158.54
5172.66
5184.41
5193.81
5200.91
5205.75
5208.37
5208.83
5207.17
5203.42
5197.66
5189.94
5180.32
5168.86
5155.61
5140.64
5124.02
5105.81
5086.07
5064.87
5042.29
5018.39
4993.25
4966.94
4939.53
4911.1
4881.73
4851.5
4820.49
4788.78
4756.45
4723.58
4690.27
4656.6
4622.66
4588.54
4554.33
4520.11
4486
4452.07
4418.44
4385.18
4352.41
4320.22
4288.72
4257.99
4228.15
4199.3
4171.54
4144.97
4119.69
4095.81
4073.42
4052.62
4033.51
4016.19
4000.75
3987.28
3975.86
3966.59
3959.55
3954.8
3952.42
3017.87
3093.92
3172.75
3253.63
3335.92
3419.02
3502.39
3585.6
3668.23
3749.96
3830.5
3909.61
3987.07
4062.72
4136.4
4208.01
4277.43
4344.57
4409.36
4471.76
4531.69
4589.13
4644.04
4696.39
4746.17
4793.35
4837.94
4879.92
4919.3
4956.08
4990.26
5021.87
5050.91
5077.4
5101.36
5122.82
5141.81
5158.35
5172.47
5184.22
5193.62
5200.73
5205.57
5208.2
5208.66
5207.01
5203.27
5197.52
5189.8
5180.18
5168.73
5155.49
5140.52
5123.91
5105.7
5085.96
5064.77
5042.2
5018.3
4993.16
4966.85
4939.45
4911.03
4881.66
4851.44
4820.43
4788.72
4756.39
4723.53
4690.22
4656.56
4622.62
4588.5
4554.29
4520.08
4485.96
4452.04
4418.4
4385.15
4352.38
4320.19
4288.69
4257.97
4228.13
4199.28
4171.52
4144.95
4119.67
4095.79
4073.4
4052.6
4033.49
4016.17
4000.73
3987.26
3975.85
3966.58
3959.53
3954.78
3952.41
3025.37
3100.53
3178.5
3258.58
3340.13
3422.56
3505.35
3588.03
3670.22
3751.56
3831.77
3910.6
3987.83
4063.27
4136.8
4208.26
4277.56
4344.61
4409.33
4471.65
4531.53
4588.93
4643.8
4696.12
4745.88
4793.05
4837.62
4879.59
4918.96
4955.74
4989.92
5021.52
5050.56
5077.05
5101.02
5122.48
5141.47
5158.02
5172.15
5183.9
5193.31
5200.42
5205.27
5207.91
5208.38
5206.74
5203
5197.25
5189.55
5179.94
5168.49
5155.26
5140.3
5123.69
5105.49
5085.77
5064.58
5042.01
5018.13
4993
4966.69
4939.3
4910.88
4881.52
4851.3
4820.3
4788.6
4756.28
4723.42
4690.12
4656.46
4622.53
4588.41
4554.21
4520
4485.89
4451.98
4418.34
4385.1
4352.33
4320.15
4288.65
4257.93
4228.1
4199.25
4171.49
4144.93
4119.65
4095.77
4073.38
4052.59
4033.48
4016.17
4000.73
3987.26
3975.85
3966.58
3959.53
3954.79
3952.41
3031.16
3105.62
3182.92
3262.37
3343.34
3425.23
3507.54
3589.81
3671.64
3752.67
3832.61
3911.2
3988.24
4063.52
4136.91
4208.26
4277.46
4344.43
4409.08
4471.36
4531.19
4588.55
4643.4
4695.7
4745.43
4792.59
4837.15
4879.11
4918.48
4955.25
4989.43
5021.03
5050.08
5076.57
5100.54
5122.01
5141
5157.55
5171.69
5183.45
5192.87
5199.99
5204.85
5207.5
5207.98
5206.34
5202.62
5196.88
5189.18
5179.58
5168.15
5154.92
5139.98
5123.38
5105.19
5085.47
5064.3
5041.74
5017.87
4992.75
4966.46
4939.07
4910.66
4881.31
4851.1
4820.11
4788.42
4756.1
4723.26
4689.97
4656.32
4622.39
4588.29
4554.09
4519.89
4485.79
4451.88
4418.26
4385.02
4352.26
4320.09
4288.59
4257.88
4228.05
4199.21
4171.46
4144.9
4119.63
4095.76
4073.37
4052.58
4033.48
4016.17
4000.73
3987.26
3975.86
3966.59
3959.54
3954.8
3952.42
3035.24
3109.21
3186.01
3264.99
3345.51
3427.01
3508.96
3590.91
3672.46
3753.25
3832.99
3911.41
3988.29
4063.45
4136.73
4207.99
4277.12
4344.03
4408.63
4470.86
4530.67
4588
4642.82
4695.1
4744.83
4791.97
4836.52
4878.48
4917.85
4954.61
4988.8
5020.4
5049.45
5075.95
5099.92
5121.4
5140.4
5156.96
5171.1
5182.87
5192.3
5199.43
5204.3
5206.96
5207.45
5205.83
5202.12
5196.39
5188.71
5179.12
5167.69
5154.49
5139.56
5122.97
5104.79
5085.09
5063.93
5041.38
5017.52
4992.41
4966.14
4938.76
4910.37
4881.03
4850.84
4819.86
4788.18
4755.88
4723.04
4689.76
4656.12
4622.21
4588.12
4553.93
4519.75
4485.66
4451.76
4418.15
4384.92
4352.17
4320
4288.52
4257.82
4228
4199.17
4171.43
4144.87
4119.61
4095.74
4073.36
4052.58
4033.49
4016.18
4000.74
3987.28
3975.88
3966.61
3959.57
3954.83
3952.45
3037.63
3111.27
3187.75
3266.42
3346.65
3427.88
3509.59
3591.33
3672.69
3753.31
3832.91
3911.2
3987.98
4063.06
4136.26
4207.46
4276.54
4343.41
4407.97
4470.18
4529.96
4587.27
4642.07
4694.34
4744.06
4791.19
4835.74
4877.7
4917.06
4953.83
4988.02
5019.63
5048.68
5075.18
5099.17
5120.65
5139.66
5156.23
5170.39
5182.17
5191.61
5198.75
5203.63
5206.3
5206.8
5205.2
5201.5
5195.79
5188.12
5178.55
5167.14
5153.94
5139.03
5122.46
5104.3
5084.61
5063.47
5040.94
5017.09
4992
4965.74
4938.38
4910
4880.68
4850.5
4819.54
4787.87
4755.59
4722.77
4689.51
4655.88
4621.99
4587.91
4553.74
4519.57
4485.49
4451.61
4418.01
4384.79
4352.06
4319.9
4288.43
4257.74
4227.94
4199.12
4171.38
4144.84
4119.59
4095.73
4073.36
4052.58
4033.5
4016.19
4000.77
3987.31
3975.91
3966.65
3959.61
3954.87
3952.5
3038.33
3111.82
3188.14
3266.65
3346.73
3427.83
3509.42
3591.04
3672.3
3752.84
3832.36
3910.59
3987.32
4062.34
4135.5
4206.67
4275.72
4342.56
4407.11
4469.29
4529.05
4586.36
4641.15
4693.42
4743.13
4790.26
4834.81
4876.77
4916.13
4952.91
4987.1
5018.71
5047.77
5074.28
5098.28
5119.77
5138.79
5155.37
5169.54
5181.33
5190.78
5197.94
5202.84
5205.52
5206.04
5204.45
5200.77
5195.07
5187.42
5177.87
5166.47
5153.3
5138.4
5121.85
5103.71
5084.04
5062.91
5040.4
5016.57
4991.5
4965.26
4937.92
4909.56
4880.26
4850.1
4819.15
4787.51
4755.24
4722.45
4689.2
4655.59
4621.71
4587.65
4553.5
4519.35
4485.29
4451.42
4417.84
4384.64
4351.92
4319.78
4288.33
4257.65
4227.86
4199.05
4171.33
4144.8
4119.56
4095.71
4073.36
4052.59
4033.51
4016.21
4000.8
3987.35
3975.95
3966.69
3959.66
3954.92
3952.55
2214.82
2256.33
2301.03
2348.34
2397.58
2448.02
2498.92
2549.53
2599.19
2647.41
2258.27
2299.54
2343.76
2390.38
2438.77
2488.24
2538.06
2587.51
2635.89
2682.61
2297.44
2338.48
2382.28
2428.32
2476.03
2524.74
2573.78
2622.43
2670
2715.83
2332.9
2373.7
2417.11
2462.66
2509.8
2557.93
2606.38
2654.5
2701.57
2746.98
2365.04
2405.6
2448.66
2493.78
2540.45
2588.11
2636.14
2683.9
2730.74
2776.02
2394.19
2434.5
2477.24
2521.98
2568.26
2615.55
2663.28
2710.83
2757.6
2802.98
2420.61
2460.68
2503.1
2547.51
2593.46
2640.45
2687.96
2735.42
2782.25
2827.87
2444.5
2484.33
2526.47
2570.57
2616.22
2662.97
2710.33
2757.77
2804.75
2850.73
2466.04
2505.62
2547.48
2591.3
2636.7
2683.25
2730.51
2777.99
2825.19
2871.6
2485.36
2524.7
2566.3
2609.85
2655.01
2701.4
2748.59
2796.15
2843.61
2890.5
2502.58
2541.67
2583.01
2626.31
2671.26
2717.51
2764.66
2812.33
2860.07
2907.47
2517.78
2556.63
2597.72
2640.78
2685.53
2731.65
2778.79
2826.57
2874.61
2922.53
2531.04
2569.66
2610.49
2653.33
2697.89
2743.89
2791.01
2838.92
2887.27
2935.71
2542.42
2580.8
2621.39
2664
2708.38
2754.27
2801.38
2849.42
2898.08
2947.03
2551.97
2590.11
2630.47
2672.85
2717.05
2762.84
2809.94
2858.11
2907.06
2956.51
2559.72
2597.63
2637.75
2679.91
2723.94
2769.61
2816.71
2865
2914.24
2964.17
2565.7
2603.38
2643.26
2685.21
2729.06
2774.63
2821.72
2870.12
2919.63
2970.02
2569.92
2607.37
2647.02
2688.76
2732.44
2777.9
2824.97
2873.48
2923.24
2974.08
2572.39
2609.61
2649.04
2690.57
2734.08
2779.43
2826.48
2875.09
2925.1
2976.36
2573.1
2610.11
2649.31
2690.64
2733.98
2779.22
2826.26
2874.96
2925.2
2976.87
1976.06
1937.48
1893.03
1840.68
1777.62
1699.05
1596.25
1449.83
1203.24
615.476
1980.27
1940.99
1895.41
1841.75
1777.18
1696.95
1592.36
1444.12
1196.19
610.828
1986.86
1946.41
1899.55
1844.47
1778.33
1696.35
1589.8
1439.52
1189.86
606.257
1996.21
1954.34
1906.03
1849.39
1781.53
1697.68
1589.04
1436.46
1184.68
601.967
2008.71
1965.29
1915.32
1856.95
1787.24
1701.34
1590.45
1435.38
1181.05
598.256
2024.73
1979.65
1927.9
1867.59
1795.83
1707.71
1594.37
1436.59
1179.35
595.385
2044.64
1997.79
1944.1
1881.7
1807.65
1717.12
1601.1
1440.31
1179.76
593.48
2068.67
2019.92
1964.18
1899.53
1823.04
1729.8
1610.91
1446.78
1182.14
593.262
2096.96
2046.15
1988.23
1921.23
1842.14
1746.04
1623.93
1456.23
1186.98
594.185
2129.48
2076.46
2016.2
1946.73
1864.95
1765.82
1640.34
1468.81
1194.52
596.322
1961.89
1931.88
1895.9
1852.21
1797.99
1728.45
1634.53
1495.84
1251.77
633.516
1962.58
1932.35
1896.17
1852.28
1797.87
1728.14
1634.06
1495.24
1251.14
634.29
1963.22
1932.6
1896.03
1851.77
1797
1726.93
1632.54
1493.53
1249.61
635.222
1963.77
1932.6
1895.5
1850.7
1795.41
1724.84
1629.99
1490.67
1246.89
635.528
1964.26
1932.41
1894.63
1849.16
1793.19
1721.95
1626.49
1486.71
1243.05
634.911
1964.75
1932.13
1893.56
1847.27
1790.47
1718.41
1622.17
1481.77
1238.08
633.385
1965.41
1931.93
1892.45
1845.23
1787.46
1714.42
1617.22
1476.02
1232.14
631.083
1966.46
1932.05
1891.57
1843.28
1784.4
1710.2
1611.88
1469.64
1225.46
627.962
1968.3
1932.84
1891.21
1841.7
1781.55
1706.05
1606.39
1462.98
1218.24
624.233
1971.54
1934.67
1891.66
1840.77
1779.19
1702.23
1601.09
1456.28
1210.77
620.115
8.5586
7.35094
6.42574
5.69648
5.10873
4.62503
4.22156
3.87903
3.58613
3.33174
3.10984
2.91411
2.74017
2.58546
2.44526
2.32029
2.20478
2.10189
2.00512
1.91886
1.8368
1.76325
1.69299
1.62936
1.5687
1.51295
1.46023
1.41073
1.36485
1.32015
1.28035
1.23944
1.20465
1.16759
1.1359
1.10372
1.07304
1.04653
1.01577
0.994454
0.963786
0.946179
0.91783
0.902314
0.872598
0.872592
2.3549
19.562
66.6408
125.741
191.305
261.322
334.342
409.279
485.302
561.759
638.138
714.03
789.108
863.107
935.815
1007.06
1076.69
1144.6
1210.69
1274.87
1337.08
1397.26
1455.34
1511.3
1565.08
1616.64
1665.96
1713
1757.73
1800.12
1840.13
1877.76
1912.96
1945.7
1975.98
2003.74
2028.97
2051.64
2071.7
2089.13
2103.88
2115.91
2125.14
2131.52
2134.96
2135.35
2132.6
2126.42
2116.63
2102.94
2084.94
2062.01
2033.28
1997.33
8.55807
7.34989
6.42431
5.69494
5.10705
4.62339
4.21987
3.8774
3.58451
3.33017
3.10832
2.91262
2.73875
2.58405
2.44394
2.31897
2.20354
2.10066
2.00394
1.91772
1.83566
1.7622
1.69189
1.62842
1.5676
1.51212