/*--------------------------------*- C++ -*----------------------------------*\
  =========                 |
  \\      /  F ield         | OpenFOAM: The Open Source CFD Toolbox
   \\    /   O peration     | Website:  https://openfoam.org
    \\  /    A nd           | Version:  8
     \\/     M anipulation  |
\*---------------------------------------------------------------------------*/
FoamFile
{
    version     2.0;
    format      ascii;
    class       volScalarField;
    location    "0.500023";
    object      nut;
}
// * * * * * * * * * * * * * * * * * * * * * * * * * * * * * * * * * * * * * //

dimensions      [0 2 -1 0 0 0 0];

internalField   nonuniform List<scalar> 
6800
(
0.146788
1.55263
3.58782
5.72683
7.86094
9.95077
11.981
13.944
15.8397
17.6714
0.145866
1.54208
3.55738
5.67158
7.77566
9.83132
11.8217
13.7387
15.5783
17.3368
0.144886
1.53038
3.52414
5.61156
7.68402
9.70373
11.6536
13.5255
15.3152
17.0208
0.14387
1.51779
3.48879
5.54836
7.58865
9.57234
11.4826
13.3118
15.0564
16.7156
0.142854
1.5046
3.45216
5.48364
7.49212
9.44072
11.313
13.102
14.8044
16.4204
0.141867
1.49119
3.41528
5.4191
7.397
9.31225
11.1488
12.9
14.5631
16.1384
0.140945
1.47808
3.3794
5.35684
7.30609
9.19038
10.994
12.7106
14.3374
15.8752
0.140122
1.46586
3.34596
5.29905
7.22218
9.07871
10.8529
12.5386
14.1332
15.6376
0.139426
1.45521
3.31654
5.24766
7.14844
8.9807
10.73
12.3891
13.9564
15.432
0.13888
1.44684
3.29224
5.20526
7.08645
8.90032
10.6284
12.2669
13.8113
15.2645
0.150286
1.60899
3.73366
5.98138
8.24473
10.4845
12.6811
14.8244
16.9087
18.9308
0.150388
1.60756
3.73059
5.977
8.23874
10.4764
12.6703
14.8105
16.8912
18.9095
0.150411
1.60397
3.72414
5.96771
8.22585
10.4589
12.6472
14.7806
16.8538
18.8639
0.150344
1.59975
3.71532
5.95414
8.20643
10.4319
12.6113
14.7345
16.7964
18.7939
0.150171
1.5951
3.70451
5.93659
8.18031
10.3955
12.5628
14.6724
16.719
18.6998
0.149892
1.59
3.69167
5.91478
8.14741
10.3495
12.5018
14.5946
16.6224
18.5824
0.149488
1.5843
3.67657
5.88834
8.10728
10.2937
12.4283
14.5015
16.5077
18.4438
0.148996
1.5779
3.6592
5.85709
8.05964
10.2276
12.342
14.3936
16.3769
18.2877
0.148371
1.57069
3.63918
5.8203
8.0036
10.1498
12.2414
14.2698
16.2308
18.1201
0.147632
1.56255
3.61558
5.77736
7.93757
10.0584
12.1226
14.1246
16.0637
17.9464
21.7214
25.0576
28.2103
31.1875
33.9998
36.6585
39.1748
41.5591
43.8213
45.9703
48.0141
49.96
51.8147
53.5845
55.2733
56.886
58.4266
59.8988
61.3059
62.6507
63.9359
65.1639
66.3368
67.4565
68.525
69.5437
70.5143
71.438
72.3163
73.1504
73.9413
74.6903
75.3984
76.0669
76.6965
77.288
77.8422
78.36
78.8423
79.29
79.7037
80.0845
80.4331
80.7502
81.0366
81.2928
81.5201
81.7193
81.8913
82.0369
82.157
82.2524
82.3239
82.3725
82.399
82.4043
82.3893
82.355
82.3023
82.2321
82.1455
82.0432
81.9265
81.7961
81.6533
81.4989
81.334
81.1597
80.9771
80.7871
80.5909
80.3895
80.184
79.9755
79.7651
79.5538
79.3427
79.1328
78.9252
78.7209
78.5209
78.326
78.1373
77.9555
77.7815
77.616
77.4598
77.3134
77.1774
77.0524
76.9387
76.8366
76.7465
76.6684
76.6025
76.5488
76.5073
76.4778
76.4601
76.4541
21.6856
25.0053
28.1463
31.1156
33.9227
36.5783
39.093
41.4769
43.7397
45.8899
47.9354
49.8834
51.7404
53.5127
55.2042
56.8196
58.363
59.838
61.2479
62.5955
63.8834
65.1141
66.2897
67.4121
68.4831
69.5044
70.4774
71.4035
72.2841
73.1203
73.9134
74.6644
75.3744
76.0449
76.6763
77.2695
77.8254
78.3448
78.8286
79.2777
79.6929
80.0749
80.4247
80.743
81.0304
81.2876
81.5159
81.716
81.8888
82.0352
82.1559
82.2519
82.324
82.373
82.4
82.4057
82.391
82.357
82.3045
82.2345
82.1479
82.0458
81.9291
81.7987
81.6558
81.5013
81.3363
81.1619
80.979
80.7888
80.5923
80.3906
80.1848
79.976
79.7653
79.5536
79.3422
79.1319
78.924
78.7193
78.5189
78.3236
78.1345
77.9524
77.778
77.6122
77.4556
77.309
77.1727
77.0474
76.9335
76.8312
76.7409
76.6626
76.5966
76.5428
76.5012
76.4716
76.4539
76.4479
21.6108
24.8975
28.015
30.968
33.7644
36.4135
38.925
41.3081
43.5718
45.7243
47.7731
49.7251
51.5868
53.3641
55.0608
56.6816
58.2306
59.7112
61.1267
62.4799
63.7734
65.0096
66.1906
67.3183
68.3944
69.4207
70.3986
71.3295
72.2147
73.0555
73.8529
74.608
75.3222
75.9965
76.6317
77.2285
77.7879
78.3106
78.7976
79.2497
79.6677
80.0525
80.4049
80.7256
81.0154
81.2748
81.5051
81.7071
81.8817
82.0297
82.152
82.2493
82.3227
82.3729
82.4009
82.4076
82.3938
82.3605
82.3086
82.2391
82.153
82.0512
81.9347
81.8045
81.6617
81.5072
81.3422
81.1676
80.9845
80.7941
80.5973
80.3952
80.189
79.9798
79.7685
79.5563
79.3443
79.1336
78.925
78.7197
78.5187
78.3229
78.1332
77.9504
77.7755
77.6091
77.4521
77.3049
77.1682
77.0424
76.9281
76.8255
76.7348
76.6563
76.5901
76.5361
76.4943
76.4647
76.447
76.4409
21.4972
24.7345
27.8164
30.7448
33.525
36.1642
38.6706
41.0523
43.3173
45.4731
47.5269
49.4849
51.3535
53.1381
54.8427
56.4717
58.0289
59.518
60.9419
62.3035
63.6054
64.8498
66.0389
67.1745
68.2585
69.2924
70.2777
71.2158
72.108
72.9555
73.7595
74.521
75.2412
75.9214
76.5624
77.1647
77.7293
78.2571
78.7489
79.2056
79.628
80.017
80.3733
80.6978
80.9912
81.2539
81.4874
81.6924
81.8697
82.0203
82.145
82.2445
82.3199
82.372
82.4017
82.4099
82.3974
82.3653
82.3145
82.2459
82.1606
82.0594
81.9434
81.8136
81.671
81.5166
81.3516
81.1769
80.9937
80.8029
80.6057
80.4033
80.1965
79.9867
79.7748
79.562
79.3492
79.1377
78.9283
78.7223
78.5204
78.3238
78.1332
77.9497
77.774
77.6069
77.449
77.3012
77.1638
77.0375
76.9226
76.8195
76.7284
76.6496
76.583
76.5288
76.4868
76.457
76.4392
76.4332
21.3456
24.5167
27.5511
30.4464
33.2046
35.8304
38.3298
40.7093
42.9759
45.1361
47.1962
49.1622
51.0399
52.8343
54.5493
56.1891
57.7575
59.2577
60.6929
62.0657
63.3787
64.6341
65.834
66.9803
68.0747
69.1187
70.1139
71.0617
71.9633
72.8199
73.6327
74.4027
75.1312
75.8192
76.4678
77.0775
77.6492
78.1838
78.6821
79.145
79.5733
79.9679
80.3297
80.6592
80.9575
81.2248
81.4625
81.6715
81.8527
82.0068
82.1347
82.2373
82.3155
82.3701
82.4021
82.4124
82.4019
82.3715
82.3221
82.2548
82.1706
82.0703
81.955
81.8258
81.6836
81.5295
81.3645
81.1898
81.0064
80.8153
80.6177
80.4147
80.2074
79.9969
79.7842
79.5705
79.3568
79.1443
78.934
78.7269
78.524
78.3263
78.1348
77.9502
77.7735
77.6054
77.4466
77.2979
77.1597
77.0326
76.917
76.8133
76.7216
76.6423
76.5753
76.5208
76.4786
76.4487
76.4308
76.4247
21.1574
24.2456
27.22
30.0734
32.8038
35.4123
37.9025
40.2791
42.5473
44.7127
46.7807
48.7564
50.6454
52.452
54.18
55.8333
57.4155
58.9297
60.3789
61.7658
63.0927
64.3619
65.5753
66.7349
67.8423
68.8991
69.9067
70.8666
71.78
72.648
73.4718
74.2525
74.9913
75.6893
76.3475
76.9664
77.547
78.0901
78.5966
79.0674
79.5032
79.9049
80.2734
80.6094
80.9139
81.187
81.4302
81.6443
81.8302
81.9887
82.1208
82.2273
82.309
82.367
82.402
82.415
82.4069
82.3787
82.3313
82.2656
82.1828
82.0838
81.9695
81.841
81.6994
81.5457
81.3809
81.2062
81.0226
80.8313
80.6332
80.4296
80.2216
80.0102
79.7966
79.5819
79.3672
79.1536
78.9421
78.7337
78.5296
78.3306
78.1378
77.952
77.774
77.6048
77.4449
77.295
77.1558
77.0278
76.9113
76.8068
76.7145
76.6346
76.5671
76.5122
76.4697
76.4395
76.4215
76.4153
20.9359
23.9235
26.8251
29.6274
32.3235
34.9106
37.3892
39.7617
42.0315
44.2028
46.2798
48.2672
50.1694
51.9906
53.734
55.4035
57.0022
58.5332
59.9993
61.4029
62.7465
64.0322
65.262
66.4375
67.5606
68.6327
69.6553
70.6297
71.5572
72.439
73.2761
74.0698
74.821
75.5309
76.2006
76.8308
77.4221
77.9756
78.492
78.9722
79.417
79.8274
80.2041
80.5479
80.8598
81.14
81.3898
81.6101
81.8018
81.9658
82.103
82.2142
82.3003
82.3622
82.4009
82.4172
82.4122
82.3867
82.3417
82.2782
82.1972
82.0996
81.9866
81.8592
81.7183
81.5651
81.4007
81.2261
81.0424
80.8507
80.6522
80.448
80.2392
80.0269
79.8122
79.5964
79.3804
79.1654
78.9525
78.7428
78.5372
78.3367
78.1424
77.9551
77.7757
77.605
77.4438
77.2927
77.1523
77.0231
76.9056
76.8002
76.707
76.6264
76.5583
76.5029
76.46
76.4296
76.4114
76.4052
20.6872
23.5545
26.3695
29.1108
31.7656
34.3266
36.7908
39.1577
41.4287
43.6063
45.6936
47.6941
49.6117
51.4495
53.2109
54.899
56.5169
58.0674
59.5531
60.9763
62.3394
63.6443
64.893
66.0872
67.2286
68.3186
69.3586
70.3501
71.2941
72.192
73.0448
73.8535
74.6193
75.3432
76.0264
76.6697
77.2737
77.8392
78.3673
78.8586
79.3141
79.7346
80.121
80.474
80.7946
81.0832
81.3407
81.5684
81.767
81.9375
82.0807
82.1975
82.2888
82.3555
82.3986
82.4189
82.4174
82.3952
82.3531
82.2921
82.2133
82.1177
82.0063
81.8801
81.7402
81.5877
81.4237
81.2493
81.0655
80.8736
80.6746
80.4697
80.26
80.0467
79.8309
79.6138
79.3964
79.1799
78.9655
78.7541
78.5468
78.3446
78.1486
77.9596
77.7786
77.6063
77.4435
77.2909
77.149
77.0186
76.8999
76.7933
76.6992
76.6178
76.549
76.493
76.4497
76.4189
76.4005
76.3942
20.4223
23.1452
25.8578
28.5272
31.1329
33.6626
36.1089
38.4683
40.7397
42.9238
45.0222
47.0372
48.9718
50.8285
52.6101
54.3194
55.9591
57.5317
59.0397
60.4853
61.8705
63.1974
64.4678
65.6833
66.8456
67.956
69.016
70.0269
70.9899
71.9062
72.7768
73.6029
74.3854
75.1254
75.8241
76.4824
77.1009
77.6804
78.2218
78.7259
79.1937
79.6259
80.0234
80.387
80.7176
81.016
81.2825
81.5186
81.7252
81.9032
82.0534
82.1767
82.274
82.3463
82.3945
82.4195
82.4223
82.4039
82.3652
82.3072
82.2311
82.1377
82.0282
81.9035
81.7649
81.6133
81.4499
81.2757
81.092
80.8998
80.7004
80.4948
80.2842
80.0698
79.8527
79.6342
79.4152
79.1971
78.9809
78.7677
78.5585
78.3545
78.1565
77.9656
77.7827
77.6085
77.4439
77.2896
77.1462
77.0142
76.8942
76.7864
76.6911
76.6087
76.5391
76.4824
76.4386
76.4074
76.3888
76.3824
20.1632
22.7092
25.3002
27.8845
30.432
32.9237
35.3477
37.6968
39.9673
42.1575
44.2673
46.2978
48.251
50.1284
51.9323
53.665
55.3289
56.9262
58.4591
59.9296
61.3397
62.6912
63.9858
65.2253
66.411
67.5444
68.6268
69.6596
70.6439
71.5809
72.4717
73.3172
74.1186
74.8768
75.5929
76.2682
76.903
77.4982
78.0547
78.5733
79.0549
79.5004
79.9105
80.2861
80.6282
80.9375
81.2143
81.4601
81.6758
81.8623
82.0204
82.1512
82.2554
82.3341
82.3882
82.4186
82.4263
82.4123
82.3775
82.3231
82.25
82.1593
82.052
81.9292
81.7921
81.6416
81.4789
81.3052
81.1216
80.9293
80.7294
80.5231
80.3116
80.096
79.8776
79.6575
79.4369
79.217
78.9988
78.7836
78.5724
78.3662
78.1661
77.9731
77.7881
77.6119
77.4453
77.289
77.1438
77.0101
76.8885
76.7793
76.6828
76.5992
76.5287
76.4712
76.4267
76.3951
76.3761
76.3696
20.6768
23.079
25.5404
28.0141
30.4703
32.8878
35.2524
37.5547
39.7886
41.9508
44.0399
46.0557
47.9988
49.8701
51.6711
53.4036
55.0695
56.6704
58.2083
59.685
61.1022
62.4615
63.7645
65.0126
66.2073
67.3499
68.4417
69.4838
70.4775
71.4237
72.3236
73.1781
73.9883
74.7552
75.4796
76.1629
76.8057
77.4087
77.9726
78.4984
78.9868
79.4389
79.8553
80.2369
80.5846
80.8995
81.1815
81.4321
81.6524
81.8431
82.0053
82.1397
82.2474
82.3292
82.3862
82.4192
82.4293
82.4175
82.3846
82.3319
82.2602
82.1707
82.0644
81.9424
81.8058
81.6557
81.4933
81.3196
81.1359
80.9432
80.7429
80.536
80.3238
80.1074
79.8881
79.667
79.4453
79.2242
79.0049
78.7884
78.5759
78.3684
78.167
77.9727
77.7864
77.6089
77.4411
77.2837
77.1374
77.0027
76.8801
76.77
76.6727
76.5884
76.5173
76.4593
76.4144
76.3825
76.3633
76.3566
21.9087
24.1977
26.5341
28.8873
31.233
33.5517
35.8292
38.0551
40.2226
42.3272
44.3666
46.3395
48.2454
50.0846
51.8579
53.5665
55.2117
56.7949
58.3174
59.7808
61.1865
62.5358
63.8302
65.0708
66.259
67.396
68.4828
69.5207
70.5106
71.4535
72.3506
73.2026
74.0106
74.7755
75.4982
76.18
76.8214
77.4231
77.9859
78.5107
78.9983
79.4495
79.8652
80.2461
80.5932
80.9074
81.1889
81.439
81.6587
81.8489
82.0106
82.1445
82.2517
82.3331
82.3897
82.4223
82.4319
82.4196
82.3863
82.3331
82.261
82.1711
82.0643
81.9419
81.8049
81.6543
81.4915
81.3174
81.1332
80.9401
80.7394
80.5321
80.3194
80.1026
79.8829
79.6613
79.4393
79.2178
78.998
78.7811
78.5683
78.3604
78.1587
77.964
77.7774
77.5996
77.4315
77.2738
77.1273
76.9923
76.8695
76.7592
76.6617
76.5773
76.506
76.4479
76.4029
76.3709
76.3517
76.3449
23.1216
25.2894
27.5071
29.747
31.9881
34.2122
36.4054
38.557
40.6593
42.7072
44.6973
46.6271
48.4957
50.3026
52.048
53.7324
55.3567
56.9217
58.4286
59.8784
61.2723
62.6114
63.8969
65.1299
66.3114
67.4426
68.5243
69.5578
70.5438
71.4835
72.3776
73.227
74.0328
74.7956
75.5166
76.1967
76.8368
77.4372
77.999
78.5228
79.0094
79.4598
79.8747
80.255
80.6014
80.9151
81.1959
81.4455
81.6647
81.8544
82.0156
82.1491
82.2559
82.3368
82.3929
82.4251
82.4343
82.4216
82.3879
82.3343
82.2618
82.1715
82.0643
81.9415
81.804
81.6531
81.4898
81.3153
81.1307
80.9373
80.7361
80.5284
80.3154
80.0982
79.878
79.6561
79.4337
79.2118
78.9917
78.7745
78.5613
78.3531
78.151
77.9561
77.7691
77.591
77.4227
77.2648
77.1179
76.9828
76.8597
76.7492
76.6516
76.567
76.4956
76.4374
76.3923
76.3602
76.3409
76.3342
24.2993
26.3485
28.453
30.5861
32.7283
34.8627
36.9752
39.0551
41.0943
43.0867
45.028
46.9154
48.747
50.5218
52.2393
53.8995
55.5027
57.0495
58.5406
59.9767
61.3587
62.6875
63.964
65.1892
66.364
67.4892
68.5659
69.5949
70.577
71.5132
72.4043
73.2512
74.0546
74.8154
75.5346
76.2131
76.8518
77.451
78.0116
78.5344
79.0202
79.4697
79.8839
80.2634
80.6092
80.9223
81.2026
81.4516
81.6703
81.8596
82.0203
82.1534
82.2598
82.3403
82.396
82.4278
82.4366
82.4235
82.3895
82.3355
82.2626
82.1719
82.0643
81.9411
81.8033
81.652
81.4883
81.3135
81.1285
80.9347
80.7332
80.5251
80.3117
80.0941
79.8736
79.6514
79.4286
79.2064
78.9859
78.7684
78.5548
78.3464
78.144
77.9488
77.7615
77.5832
77.4146
77.2564
77.1094
76.974
76.8508
76.7401
76.6423
76.5576
76.4861
76.4277
76.3826
76.3504
76.3311
76.3243
25.4309
27.3676
29.3649
31.3978
33.4473
35.4968
37.5328
39.5444
41.5227
43.4613
45.3553
47.2013
48.9966
50.7398
52.4297
54.066
55.6483
57.177
58.6523
60.0748
61.4449
62.7633
64.0309
65.2483
66.4162
67.5356
68.6071
69.6315
70.6098
71.5425
72.4306
73.2748
74.0759
74.8347
75.5521
76.229
76.8663
77.4643
78.0237
78.5455
79.0304
79.4792
79.8926
80.2715
80.6166
80.9291
81.2089
81.4574
81.6757
81.8645
82.0248
82.1574
82.2634
82.3436
82.3989
82.4303
82.4388
82.4253
82.3909
82.3366
82.2633
82.1722
82.0644
81.9408
81.8027
81.651
81.487
81.3118
81.1265
80.9324
80.7305
80.5221
80.3083
80.0905
79.8697
79.6471
79.424
79.2015
78.9807
78.7629
78.549
78.3403
78.1377
77.9421
77.7547
77.5761
77.4073
77.2489
77.1016
76.9661
76.8427
76.7319
76.6339
76.5491
76.4774
76.419
76.3737
76.3415
76.3222
76.3154
26.5069
28.3395
30.2371
32.1765
34.1397
36.1098
38.0736
40.0202
41.9405
43.8276
45.6761
47.4819
49.2421
50.9544
52.6175
54.2302
55.7921
57.303
58.7627
60.1716
61.53
62.8382
64.0969
65.3065
66.4677
67.5812
68.6475
69.6675
70.6418
71.5712
72.4563
73.2978
74.0966
74.8533
75.569
76.2443
76.8802
77.4769
78.0353
78.5561
79.0401
79.4881
79.9008
80.2791
80.6236
80.9356
81.2148
81.4628
81.6806
81.869
82.0289
82.1612
82.2668
82.3466
82.4015
82.4326
82.4408
82.427
82.3922
82.3376
82.264
82.1726
82.0645
81.9406
81.8021
81.6502
81.4859
81.3103
81.1248
80.9303
80.7281
80.5194
80.3054
80.0872
79.8661
79.6432
79.4198
79.197
78.976
78.7579
78.5438
78.3348
78.1319
77.9362
77.7485
77.5697
77.4007
77.2421
77.0947
76.9589
76.8354
76.7244
76.6264
76.5414
76.4696
76.4111
76.3658
76.3336
76.3142
76.3074
27.5215
29.2584
31.0643
32.9177
34.8004
36.6966
38.5929
40.4784
42.3439
44.182
45.9871
47.7546
49.481
51.1636
52.8006
54.3906
55.9326
57.426
58.8706
60.2663
61.6131
62.9114
64.1613
65.3633
66.5178
67.6255
68.6869
69.7025
70.6729
71.5989
72.481
73.32
74.1165
74.8712
75.5851
76.2589
76.8934
77.489
78.0463
78.5662
79.0493
79.4965
79.9085
80.2861
80.6301
80.9415
81.2203
81.4679
81.6852
81.8732
82.0327
82.1646
82.2699
82.3494
82.404
82.4348
82.4426
82.4285
82.3935
82.3385
82.2647
82.173
82.0646
81.9404
81.8017
81.6494
81.4849
81.3091
81.1232
80.9285
80.726
80.517
80.3027
80.0843
79.8629
79.6398
79.4162
79.1931
78.9719
78.7535
78.5392
78.33
78.1269
77.9309
77.743
77.5641
77.3948
77.2361
77.0885
76.9526
76.8289
76.7179
76.6197
76.5346
76.4628
76.4042
76.3588
76.3265
76.3071
76.3002
28.4689
30.1195
31.8421
33.6167
35.4256
37.2534
39.0871
40.9156
42.7297
44.5218
46.2859
48.0169
49.7111
51.3654
52.9774
54.5455
56.0684
57.5451
58.975
60.3579
61.6936
62.9821
64.2235
65.4181
66.5662
67.6683
68.7247
69.736
70.7027
71.6255
72.5047
73.3412
74.1355
74.8882
75.6004
76.2727
76.9059
77.5003
78.0566
78.5755
79.0578
79.5043
79.9156
80.2926
80.6361
80.947
81.2253
81.4724
81.6894
81.877
82.0362
82.1678
82.2727
82.3519
82.4062
82.4367
82.4443
82.4299
82.3946
82.3394
82.2653
82.1734
82.0647
81.9403
81.8013
81.6488
81.484
81.308
81.1219
80.9269
80.7242
80.515
80.3004
80.0818
79.8602
79.6369
79.413
79.1897
78.9683
78.7497
78.5352
78.3258
78.1225
77.9263
77.7383
77.5591
77.3897
77.2309
77.0831
76.9471
76.8233
76.7121
76.6138
76.5287
76.4567
76.3981
76.3527
76.3203
76.3009
76.294
29.3468
30.9196
32.5671
34.2701
36.0116
37.7768
39.5527
41.3285
43.0949
44.8441
46.5698
48.2666
49.9305
51.5579
53.1463
54.6936
56.1982
57.6589
59.0749
60.4456
61.7706
63.0497
64.283
65.4705
66.6124
67.709
68.7607
69.7679
70.731
71.6506
72.5271
73.3612
74.1533
74.9042
75.6147
76.2855
76.9175
77.5107
78.066
78.5841
79.0656
79.5114
79.9221
80.2986
80.6415
80.9519
81.2298
81.4766
81.6931
81.8804
82.0393
82.1706
82.2752
82.3541
82.4082
82.4384
82.4458
82.4312
82.3957
82.3402
82.2659
82.1738
82.0648
81.9402
81.801
81.6483
81.4833
81.307
81.1207
80.9255
80.7227
80.5132
80.2985
80.0797
79.8579
79.6343
79.4103
79.1868
78.9652
78.7464
78.5317
78.3222
78.1187
77.9224
77.7342
77.5549
77.3854
77.2264
77.0785
76.9424
76.8185
76.7072
76.6088
76.5236
76.4516
76.3929
76.3474
76.315
76.2956
76.2887
30.1526
31.6565
33.2367
34.8751
36.5556
38.2638
39.9871
41.7146
43.437
45.1466
46.8366
48.5016
50.1372
51.7396
53.3058
54.8336
56.321
57.7666
59.1694
60.5285
61.8433
63.1136
64.3392
65.5199
66.6559
67.7474
68.7946
69.7979
70.7575
71.6741
72.548
73.3798
74.1699
74.919
75.6279
76.2973
76.9281
77.5203
78.0747
78.5919
79.0727
79.5178
79.928
80.3039
80.6463
80.9563
81.2338
81.4802
81.6965
81.8834
82.042
82.173
82.2774
82.3561
82.41
82.44
82.4471
82.4323
82.3966
82.3409
82.2664
82.1741
82.065
81.9402
81.8008
81.6479
81.4827
81.3063
81.1198
80.9245
80.7214
80.5118
80.2969
80.0779
79.8559
79.6323
79.408
79.1844
78.9626
78.7437
78.5289
78.3192
78.1156
77.9192
77.7308
77.5514
77.3818
77.2227
77.0747
76.9385
76.8145
76.7031
76.6047
76.5194
76.4473
76.3886
76.3431
76.3107
76.2912
76.2843
30.8854
32.3282
33.8485
35.4294
37.0551
38.712
40.3876
42.0712
43.7537
45.427
47.0843
48.7201
50.3296
51.9088
53.4545
54.9641
56.4356
57.8671
59.2575
60.6058
61.9112
63.1732
64.3915
65.5659
66.6964
67.783
68.826
69.8256
70.782
71.6958
72.5672
73.3968
74.185
74.9325
75.64
76.3081
76.9377
77.5289
78.0824
78.5989
79.079
79.5235
79.9331
80.3085
80.6505
80.9602
81.2373
81.4833
81.6993
81.886
82.0443
82.1751
82.2793
82.3578
82.4114
82.4413
82.4482
82.4332
82.3974
82.3416
82.2669
82.1744
82.0652
81.9402
81.8007
81.6477
81.4823
81.3057
81.1191
80.9236
80.7204
80.5107
80.2957
80.0765
79.8544
79.6306
79.4063
79.1825
78.9606
78.7416
78.5267
78.3168
78.1131
77.9166
77.7281
77.5486
77.3789
77.2197
77.0717
76.9354
76.8113
76.6999
76.6014
76.516
76.4439
76.3851
76.3396
76.3072
76.2877
76.2808
31.5439
32.9334
34.4012
35.9311
37.5083
39.1193
40.7523
42.3966
44.043
45.6835
47.3113
48.9205
50.5062
52.0642
53.5911
55.0841
56.5409
57.9596
59.3386
60.6769
61.9736
63.2279
64.4395
65.608
66.7334
67.8156
68.8546
69.8508
70.8042
71.7154
72.5845
73.4121
74.1986
74.9445
75.6507
76.3176
76.9462
77.5365
78.0892
78.6049
79.0844
79.5284
79.9375
80.3125
80.6541
80.9634
81.2402
81.486
81.7017
81.8882
82.0463
82.1769
82.2809
82.3591
82.4127
82.4423
82.4491
82.434
82.398
82.3421
82.2673
82.1747
82.0653
81.9403
81.8006
81.6475
81.482
81.3054
81.1186
80.923
80.7197
80.5099
80.2948
80.0755
79.8533
79.6294
79.405
79.1812
78.9591
78.74
78.525
78.3151
78.1113
77.9147
77.7262
77.5466
77.3768
77.2175
77.0694
76.9331
76.809
76.6975
76.5989
76.5135
76.4414
76.3826
76.337
76.3046
76.2851
76.2782
32.128
33.4714
34.8935
36.3789
37.9134
39.4841
41.0794
42.6888
44.3032
45.9145
47.5159
49.1013
50.6656
52.2046
53.7146
55.1926
56.6362
58.0431
59.4119
60.7411
62.0298
63.2772
64.4827
65.6459
66.7666
67.8447
68.8801
69.8732
70.8239
71.7327
72.5997
73.4255
74.2105
74.9551
75.66
76.3258
76.9534
77.5429
78.0949
78.61
79.089
79.5324
79.9411
80.3157
80.657
80.966
81.2425
81.4881
81.7036
81.8898
82.0478
82.1782
82.2821
82.3602
82.4136
82.4432
82.4499
82.4346
82.3985
82.3425
82.2677
82.175
82.0655
81.9404
81.8007
81.6475
81.4819
81.3051
81.1184
80.9227
80.7193
80.5094
80.2942
80.0749
79.8526
79.6287
79.4042
79.1803
78.9582
78.739
78.5239
78.314
78.1101
77.9135
77.7249
77.5453
77.3754
77.2161
77.068
76.9316
76.8074
76.6959
76.5973
76.5119
76.4398
76.3809
76.3354
76.3029
76.2834
76.2765
32.6376
33.9417
35.3245
36.7716
38.2692
39.805
41.3675
42.9465
44.5329
46.1186
47.6968
49.2612
50.8068
52.329
53.824
55.2888
56.7205
58.1171
59.4767
60.7979
62.0795
63.3206
64.5206
65.6791
66.7956
67.8701
68.9024
69.8926
70.8409
71.7476
72.6128
73.437
74.2205
74.9639
75.6677
76.3325
76.9593
77.5481
78.0995
78.6141
79.0926
79.5356
79.9439
80.3182
80.6592
80.9679
81.2442
81.4896
81.7049
81.8911
82.0488
82.1792
82.2829
82.361
82.4143
82.4437
82.4504
82.4351
82.3989
82.3429
82.2679
82.1752
82.0657
81.9405
81.8007
81.6475
81.4819
81.3051
81.1183
80.9226
80.7192
80.5092
80.294
80.0746
79.8524
79.6283
79.4038
79.1799
78.9578
78.7386
78.5235
78.3135
78.1096
77.9129
77.7243
77.5447
77.3748
77.2155
77.0673
76.9309
76.8067
76.6952
76.5966
76.5112
76.439
76.3802
76.3346
76.3021
76.2826
76.2757
33.0729
34.344
35.6938
37.1084
38.5748
40.0808
41.6154
43.1684
44.7309
46.2947
47.8529
49.3994
50.9287
52.4364
53.9185
55.3717
56.7932
58.1808
59.5324
60.8466
62.122
63.3577
64.553
65.7073
66.8202
67.8915
68.921
69.9089
70.8551
71.7599
72.6235
73.4463
74.2286
74.971
75.6739
76.3378
76.9639
77.5521
78.103
78.6171
79.0951
79.5378
79.9459
80.3199
80.6607
80.9692
81.2453
81.4906
81.7058
81.8918
82.0495
82.1797
82.2834
82.3614
82.4146
82.4441
82.4507
82.4354
82.3992
82.3431
82.2681
82.1754
82.0659
81.9407
81.8009
81.6476
81.482
81.3052
81.1184
80.9227
80.7193
80.5094
80.2941
80.0748
79.8525
79.6285
79.4039
79.18
78.9579
78.7387
78.5236
78.3136
78.1097
77.913
77.7244
77.5448
77.3749
77.2156
77.0674
76.931
76.8068
76.6953
76.5967
76.5113
76.4391
76.3803
76.3347
76.3022
76.2827
76.2758
33.4339
34.6781
36.0008
37.3888
38.8294
40.3109
41.8223
43.3538
44.8963
46.4418
47.9834
49.5148
51.0306
52.5261
53.9973
55.4408
56.8537
58.2337
59.5786
60.8868
62.1571
63.3883
64.5796
65.7304
66.8402
67.9088
68.936
69.9218
70.8663
71.7695
72.6318
73.4534
74.2347
74.9762
75.6783
76.3416
76.9671
77.5548
78.1052
78.619
79.0967
79.5391
79.9469
80.3208
80.6614
80.9698
81.2458
81.4909
81.706
81.892
82.0496
82.1798
82.2835
82.3615
82.4147
82.4441
82.4507
82.4354
82.3992
82.3432
82.2682
82.1755
82.066
81.9408
81.8011
81.6479
81.4823
81.3055
81.1187
80.9231
80.7197
80.5098
80.2946
80.0752
79.853
79.629
79.4045
79.1806
78.9586
78.7394
78.5243
78.3143
78.1105
77.9138
77.7252
77.5456
77.3758
77.2165
77.0683
76.9319
76.8078
76.6962
76.5977
76.5122
76.4401
76.3812
76.3357
76.3032
76.2837
76.2768
33.7213
34.9442
36.2455
37.6123
39.0325
40.4944
41.9874
43.5017
45.0283
46.5593
48.0875
49.6068
51.1116
52.5973
54.0598
55.4955
56.9015
58.2754
59.6149
60.9184
62.1845
63.412
64.6001
65.748
66.8554
67.9219
68.9472
69.9313
70.8744
71.7764
72.6376
73.4583
74.2388
74.9796
75.6811
76.3438
76.9689
77.5562
78.1063
78.6197
79.0973
79.5395
79.9471
80.3208
80.6613
80.9696
81.2456
81.4907
81.7058
81.8917
82.0493
82.1795
82.2832
82.3612
82.4145
82.4439
82.4506
82.4353
82.3992
82.3431
82.2683
82.1756
82.0661
81.941
81.8014
81.6482
81.4827
81.306
81.1193
80.9236
80.7203
80.5105
80.2954
80.0761
79.8539
79.63
79.4056
79.1817
78.9597
78.7406
78.5256
78.3157
78.1119
77.9153
77.7268
77.5472
77.3774
77.2181
77.07
76.9336
76.8095
76.698
76.5995
76.5141
76.4419
76.3831
76.3375
76.3051
76.2856
76.2787
33.9351
35.1423
36.4276
37.7787
39.1837
40.631
42.1103
43.6117
45.1263
46.6463
48.1645
49.6747
51.1714
52.6497
54.1056
55.5355
56.9363
58.3055
59.641
60.9409
62.2038
63.4286
64.6142
65.7601
66.8656
67.9304
68.9544
69.9373
70.8792
71.7803
72.6407
73.4607
74.2407
74.981
75.682
76.3444
76.9691
77.5562
78.106
78.6193
79.0967
79.5388
79.9464
80.32
80.6605
80.9688
81.2447
81.4898
81.7049
81.8909
82.0486
82.1788
82.2825
82.3606
82.4139
82.4435
82.4502
82.435
82.3989
82.343
82.2682
82.1756
82.0663
81.9413
81.8017
81.6486
81.4832
81.3066
81.12
80.9245
80.7212
80.5115
80.2965
80.0773
79.8552
79.6314
79.4071
79.1834
78.9614
78.7424
78.5275
78.3176
78.1139
77.9174
77.7289
77.5495
77.3797
77.2205
77.0725
76.9362
76.8121
76.7006
76.6021
76.5167
76.4446
76.3858
76.3403
76.3079
76.2884
76.2815
34.0757
35.2725
36.5472
37.8879
39.2827
40.7204
42.1905
43.6833
45.19
46.7027
48.2142
49.7184
51.2096
52.683
54.1345
55.5605
56.9578
58.3239
59.6567
60.9542
62.215
63.4379
64.622
65.7664
66.8707
67.9345
68.9575
69.9396
70.8809
71.7813
72.6413
73.4608
74.2404
74.9804
75.6812
76.3434
76.9679
77.5548
78.1046
78.6178
79.0951
79.5372
79.9447
80.3183
80.6588
80.9672
81.2432
81.4883
81.7035
81.8895
82.0473
82.1776
82.2814
82.3596
82.413
82.4427
82.4495
82.4344
82.3985
82.3427
82.268
82.1756
82.0664
81.9415
81.802
81.6491
81.4838
81.3074
81.1209
80.9255
80.7224
80.5128
80.2979
80.0789
79.8569
79.6333
79.409
79.1854
78.9636
78.7448
78.5299
78.3202
78.1166
77.9202
77.7318
77.5524
77.3828
77.2237
77.0757
76.9395
76.8154
76.7041
76.6056
76.5203
76.4482
76.3895
76.3439
76.3115
76.292
76.2852
34.1433
35.3348
36.6043
37.9398
39.3295
40.7623
42.2278
43.7163
45.2191
46.7281
48.2364
49.7375
51.2259
52.6969
54.1462
55.5702
56.9658
58.3304
59.6618
60.9581
62.2179
63.4399
64.6231
65.7669
66.8706
67.9339
68.9564
69.9382
70.8791
71.7794
72.6391
73.4585
74.2379
74.9778
75.6785
76.3406
76.9651
77.552
78.1018
78.615
79.0924
79.5345
79.9421
80.3158
80.6564
80.9648
81.241
81.4862
81.7015
81.8877
82.0456
82.176
82.28
82.3583
82.4119
82.4417
82.4486
82.4337
82.3979
82.3423
82.2678
82.1755
82.0664
81.9417
81.8024
81.6497
81.4846
81.3083
81.122
80.9268
80.7238
80.5144
80.2997
80.0808
79.859
79.6355
79.4115
79.188
78.9664
78.7476
78.5329
78.3234
78.1199
77.9236
77.7354
77.5561
77.3866
77.2276
77.0797
76.9435
76.8196
76.7083
76.6099
76.5247
76.4527
76.3939
76.3484
76.3161
76.2966
76.2898
16.6187
16.8039
17.0298
17.2905
17.5786
17.8865
18.2075
18.537
18.8768
19.2421
17.8885
18.0828
18.3185
18.5896
18.8887
19.2077
19.5383
19.8734
20.2083
20.5458
19.0711
19.2748
19.5211
19.8042
20.1167
20.4504
20.7964
21.146
21.4917
21.8293
20.1707
20.3833
20.6403
20.9361
21.2636
21.6145
21.9796
22.3497
22.7156
23.0706
21.1893
21.4106
21.6784
21.9873
22.3307
22.7003
23.087
23.4815
23.8739
24.2559
22.1309
22.3601
22.6382
22.9603
23.3197
23.7087
24.1185
24.5395
24.9619
25.3772
22.9973
23.2341
23.5222
23.857
24.2324
24.6409
25.0741
25.5228
25.9774
26.4286
23.7919
24.0355
24.3329
24.6799
25.0706
25.4982
25.9546
26.431
26.9182
27.4074
24.5166
24.7664
25.0724
25.4307
25.8361
26.282
26.7607
27.2642
27.7837
28.3105
25.1739
25.4291
25.7429
26.1117
26.5307
26.9937
27.4936
28.0229
28.5731
29.1365
25.7655
26.0255
26.3462
26.7245
27.1558
27.6346
28.1543
28.7077
29.2871
29.8848
26.2933
26.5573
26.884
27.2706
27.7131
28.2061
28.7438
29.3194
29.9257
30.5556
26.7586
27.0259
27.3578
27.7516
28.2037
28.7094
29.2632
29.8589
30.4898
31.1491
27.163
27.4328
27.7688
28.1686
28.629
29.1456
29.7135
30.3269
30.9797
31.6657
27.5072
27.779
28.1181
28.5227
28.9898
29.5155
30.0954
30.7242
31.3963
32.1058
27.7923
28.0653
28.4066
28.8147
29.287
29.82
30.4097
31.0514
31.74
32.4701
28.0188
28.2924
28.635
29.0454
29.5213
30.0597
30.6571
31.3092
32.0115
32.759
28.1872
28.4607
28.8037
29.2151
29.693
30.235
30.8379
31.4979
32.211
32.9729
28.2976
28.5705
28.9129
29.3241
29.8026
30.3462
30.9523
31.6178
32.3391
33.1123
28.3502
28.6218
28.9628
29.3726
29.85
30.3935
31.0007
31.6691
32.3958
33.1774
15.7685
14.2393
12.6312
10.9353
9.15143
7.28229
5.34498
3.37582
1.48463
0.140814
15.5761
14.0878
12.5063
10.832
9.06664
7.21583
5.29681
3.34653
1.47309
0.140271
15.4088
13.9448
12.3859
10.7323
8.98594
7.15347
5.25223
3.31987
1.46274
0.139734
15.267
13.8198
12.2786
10.6428
8.91372
7.09823
5.21357
3.29715
1.45415
0.139227
15.153
13.7185
12.1905
10.5686
8.85392
7.05274
5.18238
3.27959
1.44775
0.138784
15.0707
13.6452
12.1264
10.514
8.8097
7.01941
5.15987
3.26762
1.44396
0.138436
15.0247
13.6044
12.0905
10.4831
8.78394
6.99999
5.14693
3.26084
1.44187
0.138203
15.0189
13.5991
12.0855
10.4782
8.77942
6.99587
5.14431
3.25869
1.43911
0.138162
15.0563
13.6315
12.1133
10.5013
8.79777
7.00926
5.15237
3.26286
1.43864
0.13826
15.138
13.7027
12.1738
10.5522
8.83841
7.03928
5.17298
3.27443
1.44137
0.138499
16.6028
15.0212
13.3452
11.5724
9.70223
7.73861
5.69556
3.60644
1.58496
0.142899
16.5865
15.0061
13.3315
11.5602
9.6914
7.72928
5.68786
3.60052
1.58148
0.142987
16.5508
14.9733
13.3017
11.5335
9.66804
7.7094
5.67179
3.58895
1.57566
0.143092
16.4957
14.923
13.2561
11.4929
9.63255
7.67942
5.64791
3.57226
1.56766
0.143127
16.422
14.8559
13.1957
11.4392
9.58586
7.64024
5.61709
3.55126
1.5581
0.143056
16.3317
14.7741
13.1221
11.3739
9.52927
7.59301
5.58044
3.52668
1.54726
0.142881
16.2282
14.6804
13.0377
11.299
9.4644
7.53927
5.53885
3.49935
1.53535
0.142617
16.117
14.5789
12.9455
11.2166
9.39309
7.48008
5.49394
3.46938
1.52284
0.142259
16.0065
14.4742
12.8482
11.1286
9.31651
7.41705
5.44533
3.43847
1.51003
0.141829
15.9079
14.368
12.7454
11.0355
9.23547
7.35074
5.3957
3.40729
1.49723
0.141352
0.00834247
0.00819794
0.00807961
0.00797959
0.0078943
0.00781827
0.00775249
0.00769114
0.00763783
0.00758676
0.00754136
0.00749865
0.00745782
0.00742271
0.00738407
0.00735593
0.00731833
0.007296
0.00725951
0.0072412
0.00720669
0.00719053
0.00715896
0.00714349
0.00711564
0.00709945
0.00707685
0.00705709
0.00704344
0.0070151
0.00701523
0.00697456
0.00698884
0.00694095
0.00695705
0.00691932
0.0069199
0.00690883
0.00687772
0.00690926
0.00681688
0.00688909
0.00684846
0.00708024
0.00691446
0.00743995
0.0471984
1.10707
3.88488
6.23738
8.44288
10.5381
12.5359
14.4423
16.261
17.9946
19.6456
21.2159
22.7074
24.122
25.4613
26.7268
27.92
29.0422
30.0946
31.0782
31.994
32.8427
33.625
34.3416
34.9927
35.5787
36.0997
36.5557
36.9466
37.2719
37.5313
37.724
37.8491
37.9056
37.8921
37.8069
37.6481
37.4134
37.1001
36.7049
36.2241
35.6534
34.9878
34.2211
33.3466