/*--------------------------------*- C++ -*----------------------------------*\
  =========                 |
  \\      /  F ield         | OpenFOAM: The Open Source CFD Toolbox
   \\    /   O peration     | Website:  https://openfoam.org
    \\  /    A nd           | Version:  8
     \\/     M anipulation  |
\*---------------------------------------------------------------------------*/
FoamFile
{
    version     2.0;
    format      ascii;
    class       surfaceScalarField;
    location    "0.500023";
    object      phi;
}
// * * * * * * * * * * * * * * * * * * * * * * * * * * * * * * * * * * * * * //

dimensions      [1 0 -1 0 0 0 0];

internalField   nonuniform List<scalar> 
13330
(
0.0305861
-0.461979
0.431397
0.0578554
-0.403683
0.376414
0.0834817
-0.375566
0.349942
0.108096
-0.359692
0.335078
0.131986
-0.349525
0.325635
0.155323
-0.342583
0.319246
0.178222
-0.337687
0.314788
0.200784
-0.334195
0.311632
0.223167
-0.331741
0.309358
-0.330224
0.307749
0.245643
0.0280403
-0.490005
0.0531495
-0.428784
0.0767849
-0.3992
0.0994954
-0.382402
0.121527
-0.371558
0.143021
-0.364077
0.164066
-0.358733
0.184722
-0.354851
0.204991
-0.35201
-0.349872
0.224639
0.0256423
-0.515652
0.0486653
-0.451805
0.070359
-0.420891
0.091195
-0.403238
0.111378
-0.391741
0.131017
-0.383716
0.15017
-0.377887
0.168865
-0.373547
0.1871
-0.370245
-0.367631
0.204858
0.0234259
-0.539065
0.0444797
-0.47285
0.0643181
-0.440727
0.0833615
-0.42228
0.101786
-0.410166
0.119684
-0.401614
0.137105
-0.395308
0.154078
-0.390521
0.170624
-0.386792
-0.383784
0.186777
0.0214096
-0.560476
0.0406141
-0.492051
0.0586997
-0.458809
0.0760523
-0.439633
0.0928349
-0.426949
0.109132
-0.417912
0.124994
-0.411171
0.140455
-0.405982
0.155545
-0.401883
-0.398541
0.170302
0.0195616
-0.580027
0.0370306
-0.50951
0.053455
-0.475231
0.06921
-0.455387
0.0844546
-0.442195
0.0992741
-0.432733
0.11372
-0.425618
0.12783
-0.420092
0.141634
-0.415688
-0.412071
0.155164
0.0178372
-0.597859
0.0336342
-0.525301
0.0484532
-0.490046
0.0626688
-0.469602
0.0764435
-0.455969
0.0898669
-0.446157
0.102994
-0.438746
0.115863
-0.432962
0.128505
-0.42833
-0.424515
0.140948
0.0161433
-0.613991
0.0302789
-0.539424
0.0434942
-0.503256
0.0561751
-0.482279
0.0684904
-0.468286
0.0805404
-0.458206
0.0923821
-0.450588
0.104059
-0.444638
0.115601
-0.439873
-0.435951
0.127037
0.0143855
-0.628355
0.0267844
-0.551808
0.0383275
-0.514788
0.0494041
-0.493359
0.0602062
-0.479085
0.070828
-0.468832
0.0813445
-0.461103
0.091794
-0.455089
0.102216
-0.450294
-0.446373
0.112638
0.0124476
-0.640779
0.0229496
-0.562295
0.0326636
-0.524499
0.0420034
-0.502695
0.0511483
-0.488237
0.0602174
-0.477901
0.0692738
-0.470166
0.0783768
-0.46419
0.0875551
-0.459475
0.0968514
-0.455668
0.0500337
-0.0500468
0.0927319
-0.0427018
0.132247
-0.0395172
0.170217
-0.0379709
0.207182
-0.0369653
0.243491
-0.0363093
0.279389
-0.0358981
0.315044
-0.0356552
0.350577
-0.0355331
-0.0354972
0.386075
0.0487874
-0.0988741
0.09164
-0.0855671
0.131228
-0.07911
0.168949
-0.0756935
0.205619
-0.0736358
0.24164
-0.0723312
0.277251
-0.0715088
0.312614
-0.0710178
0.347847
-0.070766
-0.0706929
0.383044
0.0482509
-0.147146
0.0901701
-0.127494
0.129014
-0.117958
0.16614
-0.112821
0.202233
-0.109729
0.237674
-0.107772
0.272698
-0.106533
0.307464
-0.105784
0.342088
-0.10539
-0.105262
0.376658
0.0470081
-0.194186
0.0878312
-0.168327
0.125704
-0.155834
0.161935
-0.149054
0.19716
-0.144954
0.231736
-0.142349
0.265888
-0.140685
0.299769
-0.139664
0.333487
-0.139108
-0.138901
0.367127
0.0453253
-0.239515
0.0847562
-0.207761
0.121391
-0.192471
0.15646
-0.184125
0.190553
-0.179047
0.224005
-0.1758
0.257026
-0.173706
0.28976
-0.172397
0.322307
-0.171654
-0.171336
0.354742
0.0432963
-0.282811
0.0810682
-0.245535
0.116218
-0.227621
0.149886
-0.217793
0.182612
-0.211774
0.214707
-0.207895
0.246368
-0.205366
0.277726
-0.203755
0.308874
-0.202801
-0.202333
0.339872
0.0409975
-0.323805
0.0768885
-0.281424
0.110345
-0.261077
0.142407
-0.249855
0.173566
-0.242932
0.204103
-0.238432
0.234203
-0.235466
0.26399
-0.233542
0.29355
-0.23236
-0.23171
0.322927
0.0385029
-0.3623
0.0723448
-0.315265
0.103945
-0.292677
0.134241
-0.280151
0.163668
-0.272358
0.192476
-0.267241
0.220836
-0.263825
0.24887
-0.261576
0.276672
-0.260161
-0.259328
0.30429
0.0358864
-0.398178
0.0675663
-0.346944
0.0972038
-0.322314
0.125625
-0.308573
0.153205
-0.299938
0.180154
-0.294189
0.206612
-0.290283
0.232685
-0.287649
0.25848
-0.285956
-0.285018
0.28417
0.0332211
0.0626915
0.0903195
0.116824
0.142522
0.167578
0.192083
0.216066
0.239468
0.262199
0.412223
-0.026148
0.434646
-0.0224222
0.454234
-0.019588
0.471623
-0.0173888
0.487269
-0.0156456
0.501506
-0.014237
0.514585
-0.0130786
0.526696
-0.0121112
0.537988
-0.0112919
0.548578
-0.0105893
0.558558
-0.00997998
0.568004
-0.00944627
0.576979
-0.00897465
0.585534
-0.00855466
0.593712
-0.00817814
0.601551
-0.00783867
0.609082
-0.00753107
0.616333
-0.00725121
0.623329
-0.00699566
0.630091
-0.00676165
0.636638
-0.00654682
0.642987
-0.0063492
0.649154
-0.00616709
0.655153
-0.00599903
0.660997
-0.00584375
0.666697
-0.00570011
0.672264
-0.00556711
0.677708
-0.00544383
0.683038
-0.00532945
0.688261
-0.00522322
0.693385
-0.00512443
0.698418
-0.00503246
0.703365
-0.00494671
0.708231
-0.00486661
0.713023
-0.00479166
0.717744
-0.00472137
0.7224
-0.00465529
0.726993
-0.00459298
0.731527
-0.00453405
0.736005
-0.00447811
0.74043
-0.00442481
0.744803
-0.00437381
0.749128
-0.0043248
0.753406
-0.00427746
0.757637
-0.00423152
0.761824
-0.00418671
0.765967
-0.00414277
0.770066
-0.00409945
0.774123
-0.00405654
0.778137
-0.00401381
0.782108
-0.00397105
0.786036
-0.00392806
0.78992
-0.00388466
0.793761
-0.00384068
0.797557
-0.00379593
0.801307
-0.00375026
0.805011
-0.00370352
0.808666
-0.00365556
0.812273
-0.00360624
0.815828
-0.00355544
0.819331
-0.00350304
0.82278
-0.00344893
0.826173
-0.00339301
0.829508
-0.00333518
0.832784
-0.00327537
0.835997
-0.0032135
0.839147
-0.00314953
0.84223
-0.00308339
0.845245
-0.00301507
0.84819
-0.00294455
0.851062
-0.00287183
0.853859
-0.00279692
0.856579
-0.00271988
0.859219
-0.00264076
0.861779
-0.00255964
0.864256
-0.00247664
0.866648
-0.00239189
0.868953
-0.00230556
0.871171
-0.00221786
0.8733
-0.002129
0.875339
-0.00203926
0.877288
-0.00194895
0.879147
-0.00185839
0.880915
-0.00176797
0.882593
-0.00167811
0.884182
-0.00158924
0.885684
-0.00150185
0.8871
-0.00141646
0.888434
-0.00133361
0.889688
-0.00125384
0.890866
-0.00117775
0.891971
-0.00110589
0.89301
-0.00103884
0.893987
-0.00097716
0.894909
-0.000921485
0.895781
-0.000872106
0.896609
-0.000827783
0.897406
-0.000796824
0.8982
-0.000793817
-0.000613494
0.408741
-0.0518441
0.430895
-0.0445755
0.450309
-0.0390012
0.467584
-0.0346639
0.483157
-0.0312178
0.497348
-0.028427
0.510398
-0.0261283
0.522493
-0.024206
0.533778
-0.0225764
0.544367
-0.0211778
0.554351
-0.019964
0.563806
-0.0189002
0.572791
-0.0179597
0.581359
-0.0171219
0.589551
-0.0163705
0.597406
-0.0156929
0.604954
-0.0150787
0.612223
-0.0145198
0.619237
-0.0140093
0.626017
-0.0135418
0.632583
-0.0131125
0.638952
-0.0127176
0.645138
-0.0123537
0.651157
-0.0120178
0.657021
-0.0117075
0.662742
-0.0114204
0.668329
-0.0111546
0.673794
-0.0109082
0.679144
-0.0106797
0.684389
-0.0104674
0.689534
-0.0102701
0.694588
-0.0100863
0.699557
-0.00991508
0.704445
-0.00975515
0.709259
-0.00960553
0.714003
-0.00946526
0.718681
-0.00933341
0.723298
-0.00920914
0.727855
-0.00909163
0.732357
-0.00898015
0.736807
-0.00887395
0.741205
-0.00877238
0.745555
-0.0086748
0.749858
-0.00858059
0.754116
-0.00848919
0.758329
-0.00840007
0.762499
-0.00831271
0.766627
-0.00822662
0.770712
-0.00814135
0.774754
-0.00805645
0.778755
-0.00797152
0.782713
-0.00788614
0.786628
-0.00779996
0.7905
-0.0077126
0.794328
-0.00762374
0.798111
-0.00753304
0.801847
-0.00744021
0.805537
-0.00734494
0.809178
-0.00724698
0.812768
-0.00714605
0.816307
-0.00704194
0.819793
-0.0069344
0.823223
-0.00682323
0.826596
-0.00670826
0.82991
-0.00658933
0.833163
-0.00646628
0.836352
-0.00633901
0.839477
-0.00620742
0.842533
-0.00607146
0.84552
-0.00593108
0.848434
-0.00578629
0.851274
-0.00563714
0.854038
-0.00548368
0.856724
-0.00532606
0.859328
-0.00516443
0.861851
-0.00499901
0.864289
-0.00483008
0.866641
-0.00465797
0.868907
-0.00448307
0.871084
-0.00430585
0.873171
-0.00412684
0.875169
-0.00394664
0.877077
-0.00376593
0.878894
-0.00358546
0.880622
-0.00340607
0.882261
-0.00322864
0.883814
-0.00305415
0.885281
-0.00288362
0.886665
-0.00271814
0.88797
-0.00255882
0.8892
-0.00240682
0.890357
-0.00226329
0.891447
-0.00212938
0.892477
-0.0020062
0.89345
-0.00189485
0.894374
-0.00179613
0.895256
-0.00171014
0.896099
-0.00163964
0.896888
-0.00158237
-0.00147791
0.401451
-0.0766367
0.423061
-0.066185
0.442131
-0.0580703
0.459188
-0.0517206
0.474623
-0.0466527
0.488731
-0.0425338
0.501734
-0.0391317
0.513809
-0.0362805
0.525092
-0.033859
0.535693
-0.0317778
0.545699
-0.0299696
0.555182
-0.0283834
0.564203
-0.0269799
0.57281
-0.0257287
0.581045
-0.024606
0.588946
-0.0235929
0.596542
-0.0226743
0.60386
-0.0218381
0.610925
-0.0210742
0.617758
-0.0203744
0.624377
-0.0197317
0.6308
-0.0191403
0.637042
-0.0185953
0.643117
-0.0180923
0.649037
-0.0176275
0.654814
-0.0171975
0.660459
-0.0167995
0.665982
-0.0164306
0.67139
-0.0160884
0.676694
-0.0157707
0.681899
-0.0154753
0.687013
-0.0152005
0.692043
-0.0149444
0.696993
-0.0147053
0.701869
-0.0144817
0.706676
-0.0142722
0.711418
-0.0140754
0.716099
-0.01389
0.720723
-0.0137148
0.725291
-0.0135487
0.729808
-0.0133905
0.734275
-0.0132394
0.738694
-0.0130942
0.743068
-0.0129542
0.747397
-0.0128184
0.751683
-0.0126861
0.755927
-0.0125564
0.760129
-0.0124287
0.76429
-0.0123023
0.76841
-0.0121764
0.772489
-0.0120505
0.776527
-0.011924
0.780524
-0.0117963
0.784478
-0.0116669
0.788389
-0.0115352
0.792257
-0.0114007
0.79608
-0.0112631
0.799857
-0.0111219
0.803587
-0.0109766
0.807267
-0.0108268
0.810898
-0.0106723
0.814476
-0.0105126
0.818001
-0.0103475
0.821469
-0.0101767
0.82488
-0.00999994
0.82823
-0.00981698
0.831519
-0.00962765
0.834744
-0.00943183
0.837901
-0.0092294
0.840991
-0.00902033
0.844009
-0.0088046
0.846954
-0.00858227
0.849824
-0.00835344
0.852616
-0.00811831
0.855329
-0.0078771
0.85796
-0.00763015
0.860508
-0.00737786
0.862971
-0.00712072
0.865347
-0.00685933
0.867636
-0.00659437
0.869836
-0.00632664
0.871946
-0.00605703
0.873967
-0.00578657
0.875898
-0.00551638
0.877739
-0.00524772
0.879493
-0.00498192
0.881159
-0.00472045
0.88274
-0.00446486
0.884239
-0.00421679
0.885658
-0.00397793
0.887001
-0.00375002
0.888273
-0.00353482
0.889477
-0.00333407
0.890621
-0.00314946
0.891708
-0.00298258
0.892747
-0.00283477
0.893744
-0.00270676
0.894704
-0.00259979
0.895634
-0.00251233
-0.0024199
0.390545
-0.100054
0.411319
-0.0869582
0.429856
-0.0766076
0.446575
-0.0684386
0.461798
-0.0618753
0.475777
-0.0565126
0.488711
-0.0520648
0.500756
-0.048325
0.512038
-0.0451408
0.522659
-0.0423983
0.532701
-0.0400115
0.542233
-0.0379147
0.55131
-0.0360574
0.559982
-0.0343999
0.568288
-0.0329114
0.576263
-0.0315674
0.583936
-0.030348
0.591336
-0.0292373
0.598484
-0.0282222
0.605402
-0.027292
0.612108
-0.0264375
0.618619
-0.0256511
0.62495
-0.0249262
0.631115
-0.0242571
0.637126
-0.0236389
0.642996
-0.023067
0.648734
-0.0225376
0.654351
-0.0220471
0.659855
-0.0215922
0.665254
-0.02117
0.670557
-0.0207777
0.675769
-0.0204127
0.680898
-0.0200728
0.685948
-0.0197557
0.690926
-0.0194594
0.695836
-0.0191818
0.700682
-0.0189213
0.705468
-0.0186761
0.710198
-0.0184446
0.714874
-0.0182252
0.7195
-0.0180166
0.724078
-0.0178174
0.72861
-0.0176262
0.733098
-0.017442
0.737543
-0.0172635
0.741947
-0.0170897
0.74631
-0.0169195
0.750633
-0.0167519
0.754917
-0.0165861
0.759162
-0.0164211
0.763368
-0.0162561
0.767534
-0.0160904
0.771661
-0.015923
0.775747
-0.0157534
0.779793
-0.0155808
0.783797
-0.0154046
0.787758
-0.0152242
0.791675
-0.0150389
0.795547
-0.0148482
0.799371
-0.0146516
0.803148
-0.0144486
0.806874
-0.0142388
0.810548
-0.0140216
0.814168
-0.0137968
0.817732
-0.0135641
0.821238
-0.013323
0.824684
-0.0130734
0.828068
-0.0128151
0.831386
-0.0125479
0.834638
-0.0122718
0.83782
-0.0119867
0.84093
-0.0116928
0.843967
-0.01139
0.846928
-0.0110787
0.84981
-0.0107592
0.852612
-0.0104319
0.855331
-0.0100974
0.857967
-0.00975621
0.860517
-0.0094092
0.862979
-0.00905727
0.865354
-0.00870146
0.86764
-0.00834299
0.869837
-0.00798319
0.871944
-0.00762359
0.873962
-0.00726584
0.875892
-0.00691176
0.877735
-0.00656331
0.879493
-0.00622257
0.881168
-0.00589175
0.882763
-0.00557315
0.884282
-0.00526912
0.885729
-0.00498206
0.88711
-0.00471433
0.888428
-0.00446825
0.889692
-0.004246
0.890907
-0.00404952
0.89208
-0.00388037
0.893221
-0.0037401
0.894336
-0.00362795
-0.00353939
0.376297
-0.121608
0.395914
-0.106575
0.413712
-0.0944041
0.429954
-0.0846804
0.444875
-0.0767962
0.45867
-0.0703072
0.4715
-0.0648945
0.483499
-0.0603232
0.494775
-0.0564172
0.505421
-0.0530434
0.51551
-0.0501003
0.525105
-0.0475099
0.53426
-0.0452116
0.543018
-0.0431579
0.551419
-0.0413115
0.559494
-0.0396427
0.567274
-0.0381274
0.574783
-0.0367463
0.582045
-0.0354834
0.589078
-0.0343254
0.595902
-0.0332614
0.602533
-0.032282
0.608986
-0.0313789
0.615275
-0.0305454
0.621411
-0.0297751
0.627407
-0.0290627
0.633273
-0.0284033
0.639018
-0.0277925
0.644653
-0.0272263
0.650184
-0.0267009
0.655619
-0.0262129
0.660966
-0.0257593
0.66623
-0.0253371
0.671418
-0.0249435
0.676534
-0.0245759
0.681585
-0.024232
0.686573
-0.0239095
0.691503
-0.0236063
0.696379
-0.0233203
0.701203
-0.0230497
0.705979
-0.0227926
0.710709
-0.0225473
0.715396
-0.0223123
0.72004
-0.0220861
0.724643
-0.0218671
0.729208
-0.0216541
0.733734
-0.0214456
0.738223
-0.0212406
0.742674
-0.0210379
0.74709
-0.0208362
0.751468
-0.0206346
0.75581
-0.0204321
0.760115
-0.0202277
0.764382
-0.0200205
0.768611
-0.0198096
0.7728
-0.0195942
0.776949
-0.0193735
0.781057
-0.0191468
0.785123
-0.0189133
0.789143
-0.0186724
0.793118
-0.0184236
0.797046
-0.0181661
0.800924
-0.0178994
0.80475
-0.0176232
0.808523
-0.0173369
0.81224
-0.0170402
0.815899
-0.0167327
0.819498
-0.0164142
0.823035
-0.0160844
0.826507
-0.0157434
0.829911
-0.015391
0.833246
-0.0150274
0.836508
-0.0146526
0.839696
-0.0142669
0.842808
-0.0138708
0.845841
-0.0134646
0.848793
-0.0130492
0.851662
-0.0126252
0.854446
-0.0121937
0.857145
-0.0117557
0.859756
-0.0113126
0.862279
-0.0108659
0.864713
-0.0104172
0.867058
-0.00996848
0.869314
-0.00952179
0.871481
-0.00907942
0.873562
-0.00864383
0.875557
-0.00821769
0.877469
-0.00780378
0.879301
-0.00740504
0.881056
-0.00702447
0.88274
-0.00666514
0.884355
-0.00633011
0.885909
-0.00602238
0.887408
-0.00574484
0.888859
-0.00550013
0.890269
-0.00529082
0.891649
-0.00511934
0.893006
-0.00498559
-0.00489599
0.359071
-0.140806
0.377175
-0.124679
0.393994
-0.111222
0.409599
-0.100285
0.42411
-0.0913071
0.43765
-0.0838464
0.450332
-0.0775761
0.462258
-0.072249
0.473517
-0.0676757
0.484184
-0.0637106
0.494326
-0.060241
0.503996
-0.0571796
0.513242
-0.0544576
0.522105
-0.0520211
0.530621
-0.0498273
0.538821
-0.047842
0.546731
-0.0460375
0.554377
-0.0443913
0.561779
-0.0428849
0.568956
-0.041503
0.575928
-0.0402325
0.582708
-0.0390626
0.589314
-0.0379838
0.595756
-0.0369878
0.602049
-0.0360675
0.608202
-0.0352163
0.614228
-0.0344287
0.620135
-0.0336993
0.625932
-0.0330233
0.631628
-0.0323965
0.637229
-0.0318147
0.642744
-0.0312742
0.648179
-0.0307715
0.653539
-0.0303034
0.65883
-0.0298667
0.664056
-0.0294585
0.669223
-0.0290763
0.674334
-0.0287173
0.679393
-0.0283792
0.684403
-0.0280597
0.689367
-0.0277567
0.694288
-0.027468
0.699168
-0.0271918
0.704008
-0.0269263
0.708811
-0.0266696
0.713577
-0.0264202
0.718308
-0.0261765
0.723004
-0.0259371
0.727667
-0.0257004
0.732296
-0.0254651
0.736891
-0.0252301
0.741453
-0.024994
0.745981
-0.0247557
0.750475
-0.0245141
0.754933
-0.0242681
0.759356
-0.0240167
0.763741
-0.023759
0.768089
-0.0234941
0.772397
-0.0232211
0.776664
-0.0229392
0.780888
-0.0226476
0.785067
-0.0223457
0.789201
-0.0220327
0.793286
-0.0217081
0.79732
-0.0213713
0.801302
-0.0210219
0.805229
-0.0206594
0.809098
-0.0202836
0.812908
-0.0198941
0.816655
-0.0194908
0.820338
-0.0190737
0.823953
-0.0186428
0.827499
-0.0181982
0.830973
-0.0177404
0.834372
-0.0172696
0.837693
-0.0167865
0.840936
-0.0162918
0.844098
-0.0157866
0.847176
-0.0152718
0.850169
-0.0147489
0.853076
-0.0142195
0.855895
-0.0136852
0.858626
-0.0131482
0.861268
-0.0126106
0.863822
-0.0120751
0.866287
-0.0115443
0.868664
-0.0110214
0.870956
-0.0105094
0.873164
-0.0100119
0.875291
-0.00953236
0.877341
-0.00907459
0.879319
-0.00864236
0.881228
-0.00823948
0.883075
-0.00786971
0.884867
-0.00753674
0.886611
-0.00724405
0.888316
-0.00699526
0.88999
-0.00679377
0.891645
-0.00664033
-0.00654723
0.339304
-0.157183
0.355509
-0.140883
0.371077
-0.12679
0.385855
-0.115062
0.399824
-0.105276
0.413018
-0.0970398
0.425491
-0.090049
0.437306
-0.0840636
0.448524
-0.0788936
0.459203
-0.074389
0.469394
-0.0704316
0.479143
-0.0669283
0.488491
-0.063805
0.497473
-0.0610031
0.506121
-0.0584755
0.514464
-0.0561844
0.522526
-0.0540993
0.53033
-0.052195
0.537896
-0.0504508
0.545243
-0.0488496
0.552387
-0.0473766
0.559345
-0.0460197
0.566129
-0.044768
0.572753
-0.0436122
0.57923
-0.0425442
0.585571
-0.0415566
0.591785
-0.0406429
0.597883
-0.039797
0.603873
-0.0390135
0.609764
-0.0382874
0.615564
-0.0376139
0.621278
-0.0369888
0.626915
-0.036408
0.632479
-0.0358676
0.637977
-0.0353643
0.643413
-0.0348944
0.648791
-0.0344551
0.654117
-0.0340431
0.659394
-0.0336558
0.664625
-0.0332904
0.669812
-0.0329444
0.67496
-0.0326155
0.680069
-0.0323013
0.685143
-0.0319998
0.690182
-0.0317088
0.695188
-0.0314265
0.700163
-0.0311511
0.705107
-0.0308807
0.71002
-0.0306138
0.714904
-0.0303486
0.719757
-0.0300838
0.724581
-0.0298179
0.729375
-0.0295496
0.734139
-0.0292774
0.738871
-0.0290002
0.743571
-0.0287168
0.748238
-0.028426
0.752871
-0.0281268
0.757468
-0.0278181
0.762028
-0.027499
0.766549
-0.0271686
0.771029
-0.026826
0.775467
-0.0264705
0.77986
-0.0261012
0.784206
-0.0257176
0.788504
-0.0253191
0.792749
-0.0249052
0.796941
-0.0244754
0.801077
-0.0240294
0.805153
-0.0235671
0.809168
-0.0230883
0.813118
-0.0225931
0.817001
-0.0220816
0.820815
-0.0215541
0.824557
-0.0210111
0.828223
-0.0204533
0.831813
-0.0198814
0.835323
-0.0192967
0.838752
-0.0187003
0.842097
-0.0180939
0.845356
-0.0174791
0.848529
-0.0168582
0.851615
-0.0162333
0.854611
-0.0156073
0.857519
-0.014983
0.860339
-0.0143638
0.863071
-0.0137531
0.865716
-0.0131547
0.868277
-0.0125729
0.870756
-0.0120118
0.873158
-0.0114759
0.875485
-0.0109699
0.877744
-0.0104983
0.87994
-0.0100658
0.882081
-0.009677
0.884173
-0.00933623
0.886226
-0.00904818
0.888249
-0.00881724
0.890254
-0.00864487
-0.00854872
0.317466
-0.170358
0.331395
-0.154811
0.345414
-0.140809
0.359143
-0.128791
0.372409
-0.118541
0.385141
-0.109772
0.397325
-0.102232
0.408973
-0.0957115
0.420114
-0.0900342
0.430781
-0.085056
0.44101
-0.0806601
0.450834
-0.0767521
0.460286
-0.0732561
0.469394
-0.0701108
0.478185
-0.0672667
0.486685
-0.0646836
0.494915
-0.0623288
0.502895
-0.0601752
0.510645
-0.0582005
0.518182
-0.0563859
0.525521
-0.0547155
0.532677
-0.0531758
0.539664
-0.0517549
0.546495
-0.0504428
0.553181
-0.0492301
0.559733
-0.0481089
0.566162
-0.0470718
0.572478
-0.046112
0.578688
-0.0452235
0.584801
-0.0444006
0.590825
-0.0436381
0.596768
-0.042931
0.602635
-0.0422748
0.608432
-0.0416652
0.614166
-0.041098
0.619841
-0.0405695
0.625462
-0.0400761
0.631034
-0.0396145
0.636559
-0.0391812
0.642042
-0.0387734
0.647486
-0.0383881
0.652893
-0.0380225
0.658266
-0.0376741
0.663607
-0.0373405
0.668917
-0.0370192
0.674199
-0.0367081
0.679453
-0.036405
0.68468
-0.0361079
0.689881
-0.0358149
0.695057
-0.0355242
0.700207
-0.035234
0.705332
-0.0349427
0.710431
-0.0346488
0.715504
-0.0343505
0.720551
-0.0340466
0.725569
-0.0337357
0.73056
-0.0334163
0.73552
-0.0330874
0.74045
-0.0327476
0.745347
-0.0323959
0.750209
-0.0320311
0.755036
-0.0316523
0.759824
-0.0312586
0.764572
-0.030849
0.769277
-0.0304229
0.773937
-0.0299795
0.778551
-0.0295182
0.783114
-0.0290385
0.787624
-0.02854
0.792079
-0.0280223
0.796477
-0.0274855
0.800813
-0.0269294
0.805086
-0.0263541
0.809292
-0.0257601
0.813428
-0.0251478
0.817493
-0.0245178
0.821483
-0.0238713
0.825395
-0.0232092
0.829228
-0.0225331
0.832979
-0.0218447
0.836646
-0.021146
0.840227
-0.0204394
0.843721
-0.0197275
0.847128
-0.0190134
0.850445
-0.0183005
0.853674
-0.0175926
0.856815
-0.0168937
0.859868
-0.0162083
0.862837
-0.0155412
0.865722
-0.0148975
0.868529
-0.0142824
0.87126
-0.0137014
0.873922
-0.01316
0.87652
-0.0126638
0.879061
-0.0122183
0.881554
-0.0118289
0.884007
-0.0115014
0.886431
-0.0112408
0.888836
-0.0110497
-0.0109533
0.29387
-0.180058
0.305249
-0.166189
0.317441
-0.153001
0.329892
-0.141241
0.342274
-0.130924
0.35441
-0.121907
0.366204
-0.114026
0.377614
-0.107121
0.388627
-0.101048
0.399249
-0.0956779
0.409494
-0.0909048
0.419381
-0.0866389
0.428931
-0.0828059
0.438166
-0.0793449
0.447105
-0.076206
0.45577
-0.073348
0.464178
-0.0707372
0.472349
-0.0683454
0.480297
-0.0661491
0.48804
-0.0641286
0.495592
-0.0622669
0.502966
-0.0605497
0.510175
-0.0589644
0.517233
-0.0574998
0.524149
-0.0561463
0.530935
-0.0548948
0.537601
-0.0537375
0.544156
-0.052667
0.550609
-0.0516766
0.556968
-0.05076
0.563242
-0.0499115
0.569436
-0.0491255
0.575559
-0.0483971
0.581615
-0.0477214
0.587611
-0.0470938
0.593552
-0.0465102
0.599442
-0.0459664
0.605286
-0.0454587
0.611089
-0.0449834
0.616852
-0.0445371
0.622581
-0.0441165
0.628277
-0.0437185
0.633943
-0.0433402
0.639581
-0.0429789
0.645194
-0.0426317
0.650782
-0.0422963
0.656348
-0.0419703
0.661891
-0.0416513
0.667413
-0.0413371
0.672915
-0.0410258
0.678396
-0.0407152
0.683857
-0.0404036
0.689297
-0.0400891
0.694717
-0.0397699
0.700115
-0.0394445
0.70549
-0.0391112
0.710842
-0.0387685
0.71617
-0.038415
0.721472
-0.0380492
0.726746
-0.03767
0.731991
-0.0372761
0.737205
-0.0368662
0.742386
-0.0364393
0.747531
-0.0359945
0.752639
-0.0355308
0.757707
-0.0350473
0.762732
-0.0345433
0.767712
-0.0340183
0.772643
-0.0334717
0.777524
-0.0329031
0.782351
-0.0323123
0.787121
-0.0316993
0.791831
-0.0310642
0.796478
-0.0304072
0.801059
-0.0297288
0.805571
-0.0290299
0.810012
-0.0283114
0.814377
-0.0275745
0.818665
-0.0268209
0.822873
-0.0260525
0.826998
-0.0252715
0.831039
-0.0244804
0.834994
-0.0236824
0.838862
-0.0228808
0.842641
-0.0220795
0.846331
-0.0212828
0.849933
-0.0204952
0.853446
-0.019722
0.856874
-0.0189687
0.860217
-0.018241
0.86348
-0.0175453
0.866667
-0.0168878
0.869782
-0.0162751
0.872832
-0.0157138
0.875824
-0.0152104
0.878767
-0.0147716
0.881669
-0.014404
0.884541
-0.0141126
0.887393
-0.0139015
-0.0138119
0.268445
-0.186304
0.276873
-0.174616
0.286919
-0.163047
0.297867
-0.152189
0.309219
-0.142276
0.320665
-0.133353
0.332016
-0.125377
0.343161
-0.118266
0.354038
-0.111924
0.364617
-0.106257
0.374889
-0.101176
0.384854
-0.0966041
0.394522
-0.0924731
0.403903
-0.0887262
0.413013
-0.0853154
0.421866
-0.0822006
0.430477
-0.079348
0.438861
-0.0767293
0.447032
-0.0743206
0.455006
-0.0721017
0.462794
-0.0700551
0.47041
-0.0681657
0.477866
-0.0664204
0.485174
-0.0648075
0.492345
-0.0633166
0.499388
-0.0619383
0.506315
-0.060664
0.513134
-0.0594858
0.519854
-0.0583965
0.526484
-0.0573894
0.53303
-0.0564579
0.539501
-0.0555963
0.545903
-0.054799
0.552242
-0.0540606
0.558525
-0.0533762
0.564756
-0.0527411
0.57094
-0.0521508
0.577083
-0.051601
0.583187
-0.0510878
0.589257
-0.0506072
0.595297
-0.0501558
0.601308
-0.04973
0.607294
-0.0493265
0.613258
-0.0489422
0.6192
-0.0485742
0.625124
-0.0482197
0.631029
-0.0478758
0.636918
-0.0475402
0.642791
-0.0472103
0.648649
-0.0468837
0.654493
-0.0465583
0.660321
-0.046232
0.666135
-0.0459026
0.671933
-0.0455682
0.677716
-0.045227
0.683482
-0.0448772
0.68923
-0.0445169
0.69496
-0.0441447
0.700669
-0.0437588
0.706357
-0.0433579
0.712022
-0.0429406
0.717661
-0.0425054
0.723273
-0.0420511
0.728855
-0.0415766
0.734405
-0.0410808
0.739921
-0.0405627
0.745399
-0.0400215
0.750837
-0.0394564
0.756232
-0.0388668
0.761581
-0.0382522
0.766881
-0.0376123
0.772129
-0.036947
0.777321
-0.0362563
0.782455
-0.0355404
0.787526
-0.0348
0.792532
-0.0340356
0.797469
-0.0332485
0.802334
-0.0324399
0.807125
-0.0316114
0.811837
-0.0307653
0.81647
-0.0299038
0.821019
-0.0290299
0.825484
-0.0281469
0.829862
-0.0272586
0.834151
-0.0263692
0.838352
-0.0254835
0.842464
-0.0246069
0.846487
-0.023745
0.850422
-0.0229042
0.854272
-0.0220912
0.85804
-0.0213131
0.86173
-0.0205772
0.865346
-0.0198914
0.868895
-0.0192632
0.872385
-0.0187003
0.875824
-0.0182105
0.879222
-0.0178019
0.882588
-0.0174785
0.885931
-0.0172441
-0.0171699
0.430232
-0.177132
-0.439403
0.426222
-0.170606
0.425545
-0.16237
0.427183
-0.153827
0.43046
-0.145553
0.434893
-0.137785
0.440128
-0.130612
0.445909
-0.124046
0.452045
-0.11806
0.458399
-0.112611
0.46487
-0.107648
0.471387
-0.103121
0.477897
-0.0989828
0.484363
-0.0951924
0.49076
-0.0917125
0.497071
-0.0885114
0.503285
-0.0855614
0.509395
-0.0828388
0.515397
-0.0803232
0.521292
-0.0779966
0.527081
-0.0758436
0.532766
-0.0738502
0.53835
-0.0720043
0.543837
-0.0702948
0.549232
-0.0687117
0.55454
-0.0672458
0.559764
-0.0658885
0.564911
-0.0646321
0.569984
-0.0634692
0.574987
-0.0623929
0.579926
-0.0613966
0.584804
-0.0604742
0.589625
-0.0596199
0.594393
-0.0588282
0.59911
-0.0580939
0.603781
-0.0574119
0.608408
-0.0567775
0.612993
-0.0561863
0.61754
-0.055634
0.622049
-0.0551166
0.626523
-0.05463
0.630964
-0.0541707
0.635373
-0.0537352
0.639751
-0.0533201
0.644099
-0.0529222
0.648418
-0.0525386
0.652708
-0.0521663
0.656971
-0.0518025
0.661205
-0.0514447
0.665412
-0.0510903
0.669591
-0.050737
0.673741
-0.0503823
0.677863
-0.0500242
0.681955
-0.0496605
0.686017
-0.0492892
0.690048
-0.0489083
0.694047
-0.048516
0.698013
-0.0481105
0.701944
-0.0476901
0.70584
-0.0472533
0.709698
-0.0467984
0.713516
-0.046324
0.717294
-0.0458288
0.721029
-0.0453115
0.724719
-0.044771
0.728363
-0.0442061
0.731957
-0.0436159
0.7355
-0.0429997
0.73899
-0.0423567
0.742425
-0.0416864
0.745801
-0.0409885
0.749117
-0.0402627
0.75237
-0.0395092
0.755557
-0.0387282
0.758678
-0.0379202
0.761728
-0.037086
0.764706
-0.0362267
0.76761
-0.0353438
0.770438
-0.0344391
0.773187
-0.0335147
0.775857
-0.0325734
0.778445
-0.0316181
0.780951
-0.0306525
0.783373
-0.0296807
0.785711
-0.0287073
0.787965
-0.0277376
0.790136
-0.0267772
0.792223
-0.0258325
0.794229
-0.0249104
0.796156
-0.0240183
0.798007
-0.0231642
0.799786
-0.0223561
0.801498
-0.0216027
0.803147
-0.0209126
0.804741
-0.0202944
0.806288
-0.0197568
0.807794
-0.0193082
0.80927
-0.018955
0.810729
-0.0187026
-0.0185932
0.442875
-0.168811
-0.451195
0.437909
-0.165641
0.435986
-0.160447
0.436396
-0.154236
0.438539
-0.147697
0.441958
-0.141203
0.4463
-0.134954
0.451301
-0.129047
0.456761
-0.12352
0.46253
-0.11838
0.468495
-0.113613
0.474574
-0.109199
0.480704
-0.105113
0.48684
-0.101328
0.49295
-0.0978215
0.499008
-0.0945699
0.505
-0.0915532
0.510915
-0.0887531
0.516745
-0.0861531
0.522487
-0.0837384
0.528139
-0.0814958
0.533702
-0.0794132
0.539178
-0.0774796
0.544568
-0.0756847
0.549876
-0.0740193
0.555105
-0.0724745
0.560258
-0.0710421
0.565341
-0.0697144
0.570355
-0.0684839
0.575306
-0.0673439
0.580198
-0.0662876
0.585032
-0.0653087
0.589814
-0.0644013
0.594545
-0.0635597
0.59923
-0.0627785
0.60387
-0.0620523
0.608469
-0.0613764
0.613029
-0.060746
0.617552
-0.0601566
0.622039
-0.0596039
0.626493
-0.0590838
0.630915
-0.0585925
0.635306
-0.0581261
0.639667
-0.0576813
0.644
-0.0572545
0.648304
-0.0568427
0.65258
-0.0564426
0.656829
-0.0560515
0.661051
-0.0556664
0.665245
-0.0552847
0.669412
-0.0549039
0.673551
-0.0545214
0.677662
-0.0541349
0.681744
-0.0537422
0.685796
-0.0533411
0.689817
-0.0529295
0.693807
-0.0525054
0.697763
-0.0520669
0.701685
-0.0516123
0.705572
-0.0511397
0.709421
-0.0506475
0.713231
-0.0501341
0.717
-0.0495982
0.720727
-0.0490383
0.724409
-0.0484532
0.728045
-0.0478417
0.731632
-0.0472027
0.735168
-0.0465355
0.73865
-0.0458393
0.742077
-0.0451134
0.745447
-0.0443576
0.748755
-0.0435715
0.752001
-0.0427553
0.755182
-0.0419091
0.758296
-0.0410336
0.761339
-0.0401295
0.764311
-0.0391981
0.767208
-0.0382408
0.770028
-0.0372596
0.772771
-0.0362568
0.775433
-0.0352353
0.778013
-0.0341982
0.78051
-0.0331495
0.782923
-0.0320936
0.785251
-0.0310354
0.787494
-0.0299806
0.789652
-0.0289354
0.791726
-0.0279067
0.793718
-0.026902
0.795629
-0.0259294
0.797463
-0.0249976
0.799222
-0.0241156
0.800912
-0.0232929
0.802539
-0.0225391
0.804108
-0.0218639
0.805628
-0.0212767
0.807107
-0.0207867
0.808554
-0.0204019
0.809979
-0.0201279
-0.0199893
0.453687
-0.160456
-0.462043
0.448309
-0.160263
0.445587
-0.157725
0.445066
-0.153715
0.446278
-0.148909
0.44882
-0.143745
0.452363
-0.138498
0.45665
-0.133333
0.461478
-0.128348
0.46669
-0.123593
0.472168
-0.119091
0.477819
-0.114851
0.483575
-0.110868
0.489383
-0.107136
0.495203
-0.103642
0.501007
-0.100374
0.506774
-0.0973204
0.51249
-0.0944684
0.518143
-0.0918063
0.523728
-0.089323
0.52924
-0.0870078
0.534677
-0.0848508
0.54004
-0.0828425
0.54533
-0.0809739
0.550547
-0.0792364
0.555694
-0.0776217
0.560774
-0.0761222
0.56579
-0.0747302
0.570745
-0.0734386
0.575642
-0.0722405
0.580483
-0.0711292
0.585273
-0.0700984
0.590014
-0.069142
0.594708
-0.0682541
0.599359
-0.0674292
0.603969
-0.0666618
0.608539
-0.0659469
0.613073
-0.0652796
0.617571
-0.0646551
0.622036
-0.064069
0.62647
-0.063517
0.630872
-0.0629951
0.635245
-0.0624992
0.63959
-0.0620258
0.643907
-0.0615712
0.648196
-0.0611321
0.652459
-0.0607051
0.656694
-0.0602873
0.660904
-0.0598756
0.665086
-0.0594672
0.669242
-0.0590594
0.67337
-0.0586495
0.67747
-0.0582351
0.681542
-0.0578138
0.685584
-0.0573833
0.689596
-0.0569412
0.693576
-0.0564857
0.697524
-0.0560145
0.701437
-0.0555257
0.705315
-0.0550176
0.709156
-0.0544884
0.712958
-0.0539363
0.71672
-0.0533598
0.720439
-0.0527575
0.724114
-0.0521279
0.727742
-0.0514699
0.731322
-0.0507824
0.734851
-0.0500644
0.738326
-0.0493151
0.741747
-0.0485338
0.745109
-0.0477201
0.748412
-0.0468738
0.751651
-0.045995
0.754826
-0.0450837
0.757933
-0.0441407
0.760971
-0.0431668
0.763936
-0.0421631
0.766826
-0.0411314
0.76964
-0.0400735
0.772375
-0.038992
0.77503
-0.0378899