/*--------------------------------*- C++ -*----------------------------------*\
  =========                 |
  \\      /  F ield         | OpenFOAM: The Open Source CFD Toolbox
   \\    /   O peration     | Website:  https://openfoam.org
    \\  /    A nd           | Version:  8
     \\/     M anipulation  |
\*---------------------------------------------------------------------------*/
FoamFile
{
    version     2.0;
    format      ascii;
    class       volScalarField;
    location    "0.500023";
    object      rho;
}
// * * * * * * * * * * * * * * * * * * * * * * * * * * * * * * * * * * * * * //

dimensions      [1 -3 0 0 0 0 0];

internalField   nonuniform List<scalar> 
6800
(
0.600694
0.600939
0.601212
0.601424
0.601591
0.601727
0.601839
0.601929
0.601983
0.601952
0.600867
0.601136
0.601407
0.601617
0.601785
0.601923
0.602038
0.602133
0.60219
0.602177
0.601035
0.601327
0.601599
0.601808
0.601976
0.602117
0.602236
0.602337
0.602405
0.602412
0.601194
0.601509
0.601782
0.601992
0.602162
0.602305
0.602427
0.602532
0.602606
0.602623
0.601332
0.601678
0.601956
0.602167
0.602338
0.602483
0.602607
0.602715
0.602794
0.60282
0.601463
0.601836
0.602118
0.602329
0.602501
0.602646
0.602772
0.602881
0.602965
0.603001
0.601578
0.601979
0.602265
0.602476
0.602647
0.602793
0.602918
0.603026
0.603113
0.603159
0.601687
0.60211
0.602397
0.602606
0.602775
0.602918
0.603041
0.603147
0.603234
0.60329
0.601789
0.602228
0.602514
0.602718
0.602883
0.603021
0.603139
0.603241
0.603326
0.60339
0.601887
0.602337
0.602617
0.602813
0.602969
0.6031
0.60321
0.603305
0.603387
0.603455
0.599256
0.599507
0.599884
0.60015
0.600344
0.600492
0.600604
0.600686
0.600742
0.600781
0.599291
0.599539
0.59991
0.600181
0.600375
0.600522
0.600634
0.600715
0.600772
0.600811
0.599369
0.599609
0.59997
0.600238
0.600429
0.600575
0.600686
0.600768
0.600825
0.600867
0.599477
0.59971
0.60006
0.600321
0.600509
0.600654
0.600764
0.600845
0.600904
0.60095
0.599617
0.59984
0.600175
0.600428
0.600612
0.600755
0.600865
0.600947
0.601007
0.601057
0.599776
0.599992
0.600312
0.600557
0.600737
0.600878
0.600987
0.601069
0.601131
0.601189
0.599951
0.600162
0.600469
0.600705
0.600882
0.601021
0.601129
0.601211
0.601276
0.601342
0.600134
0.600346
0.600641
0.600869
0.601042
0.601179
0.601287
0.60137
0.601439
0.601514
0.600321
0.60054
0.600824
0.601046
0.601216
0.601353
0.601461
0.601547
0.601623
0.601709
0.600511
0.600739
0.601016
0.601232
0.601401
0.601538
0.60165
0.601743
0.601832
0.601915
0.600799
0.60079
0.600748
0.60068
0.600589
0.60048
0.600354
0.600214
0.600062
0.5999
0.599728
0.599548
0.599362
0.59917
0.598972
0.598771
0.598566
0.598359
0.59815
0.597939
0.597728
0.597517
0.597306
0.597096
0.596887
0.59668
0.596475
0.596272
0.596072
0.595875
0.595682
0.595492
0.595306
0.595125
0.594947
0.594774
0.594605
0.594441
0.594281
0.594126
0.593976
0.593831
0.593691
0.593556
0.593425
0.5933
0.593179
0.593064
0.592953
0.592846
0.592745
0.592648
0.592555
0.592467
0.592384
0.592304
0.592229
0.592158
0.592091
0.592027
0.591968
0.591912
0.591859
0.59181
0.591765
0.591722
0.591683
0.591646
0.591613
0.591582
0.591554
0.591528
0.591505
0.591485
0.591467
0.59145
0.591437
0.591425
0.591415
0.591407
0.591401
0.591397
0.591394
0.591393
0.591394
0.591396
0.5914
0.591405
0.591412
0.59142
0.59143
0.591441
0.591453
0.591466
0.591481
0.591497
0.591515
0.59153
0.591557
0.591642
0.600827
0.600816
0.600772
0.600702
0.60061
0.600499
0.600373
0.600233
0.60008
0.599917
0.599745
0.599565
0.599378
0.599185
0.598988
0.598786
0.598581
0.598373
0.598163
0.597952
0.597741
0.597529
0.597318
0.597107
0.596898
0.59669
0.596485
0.596282
0.596082
0.595884
0.595691
0.595501
0.595314
0.595132
0.594954
0.59478
0.594611
0.594447
0.594287
0.594132
0.593981
0.593836
0.593696
0.59356
0.593429
0.593304
0.593183
0.593067
0.592956
0.592849
0.592748
0.592651
0.592558
0.59247
0.592386
0.592306
0.592231
0.59216
0.592093
0.592029
0.591969
0.591913
0.591861
0.591812
0.591766
0.591723
0.591684
0.591647
0.591614
0.591583
0.591555
0.591529
0.591506
0.591486
0.591467
0.591451
0.591437
0.591426
0.591416
0.591408
0.591402
0.591397
0.591395
0.591394
0.591395
0.591397
0.591401
0.591406
0.591413
0.591421
0.59143
0.591441
0.591453
0.591467
0.591481
0.591498
0.591514
0.591531
0.591569
0.591618
0.600877
0.600863
0.600815
0.600742
0.600648
0.600536
0.600409
0.600267
0.600114
0.59995
0.599777
0.599597
0.599409
0.599216
0.599017
0.598815
0.598609
0.5984
0.59819
0.597978
0.597766
0.597553
0.597341
0.59713
0.59692
0.596711
0.596505
0.596301
0.5961
0.595903
0.595708
0.595517
0.59533
0.595147
0.594968
0.594794
0.594624
0.594459
0.594298
0.594143
0.593992
0.593846
0.593705
0.593569
0.593438
0.593312
0.59319
0.593074
0.592962
0.592856
0.592753
0.592656
0.592563
0.592474
0.59239
0.592311
0.592235
0.592163
0.592096
0.592032
0.591972
0.591916
0.591863
0.591814
0.591768
0.591725
0.591686
0.591649
0.591615
0.591585
0.591556
0.591531
0.591508
0.591487
0.591469
0.591452
0.591438
0.591426
0.591417
0.591409
0.591402
0.591398
0.591395
0.591394
0.591395
0.591397
0.591401
0.591406
0.591413
0.591421
0.59143
0.591441
0.591453
0.591467
0.591481
0.591498
0.591514
0.591531
0.591572
0.591614
0.600949
0.600932
0.600878
0.600801
0.600704
0.60059
0.600461
0.600318
0.600163
0.599999
0.599825
0.599643
0.599454
0.59926
0.599061
0.598857
0.59865
0.598441
0.59823
0.598017
0.597803
0.59759
0.597376
0.597164
0.596953
0.596743
0.596536
0.596331
0.596129
0.59593
0.595734
0.595542
0.595354
0.59517
0.59499
0.594815
0.594644
0.594478
0.594316
0.59416
0.594008
0.593861
0.593719
0.593582
0.59345
0.593323
0.593201
0.593084
0.592972
0.592865
0.592762
0.592664
0.59257
0.592481
0.592397
0.592316
0.59224
0.592168
0.5921
0.592036
0.591976
0.59192
0.591867
0.591817
0.591771
0.591728
0.591688
0.591651
0.591617
0.591586
0.591558
0.591532
0.591509
0.591488
0.591469
0.591453
0.591439
0.591427
0.591417
0.591409
0.591403
0.591398
0.591396
0.591395
0.591395
0.591397
0.591401
0.591406
0.591413
0.591421
0.59143
0.591441
0.591453
0.591466
0.591481
0.591497
0.591514
0.59153
0.591572
0.591613
0.601043
0.601022
0.60096
0.600877
0.600777
0.60066
0.600529
0.600384
0.600228
0.600062
0.599887
0.599704
0.599514
0.599319
0.599118
0.598913
0.598705
0.598495
0.598282
0.598068
0.597853
0.597638
0.597423
0.597209
0.596996
0.596785
0.596576
0.59637
0.596166
0.595966
0.595769
0.595575
0.595386
0.5952
0.595019
0.594842
0.59467
0.594503
0.59434
0.594182
0.594029
0.593881
0.593738
0.5936
0.593467
0.593339
0.593216
0.593098
0.592985
0.592876
0.592773
0.592674
0.59258
0.59249
0.592405
0.592324
0.592247
0.592175
0.592106
0.592042
0.591981
0.591924
0.591871
0.591821
0.591774
0.591731
0.591691
0.591654
0.591619
0.591588
0.591559
0.591533
0.59151
0.591489
0.59147
0.591454
0.59144
0.591428
0.591417
0.591409
0.591403
0.591398
0.591396
0.591394
0.591395
0.591397
0.591401
0.591406
0.591412
0.59142
0.59143
0.59144
0.591452
0.591466
0.59148
0.591496
0.591513
0.591529
0.591571
0.591611
0.601156
0.601132
0.60106
0.600971
0.600866
0.600746
0.600612
0.600465
0.600307
0.60014
0.599963
0.599779
0.599588
0.599391
0.599189
0.598983
0.598773
0.598561
0.598347
0.598131
0.597914
0.597697
0.597481
0.597265
0.597051
0.596838
0.596627
0.596419
0.596214
0.596011
0.595812
0.595617
0.595426
0.595238
0.595056
0.594877
0.594703
0.594534
0.59437
0.59421
0.594056
0.593906
0.593762
0.593622
0.593488
0.593359
0.593234
0.593115
0.593001
0.592891
0.592787
0.592687
0.592592
0.592501
0.592415
0.592333
0.592256
0.592183
0.592114
0.592048
0.591987
0.59193
0.591876
0.591825
0.591778
0.591734
0.591694
0.591656
0.591622
0.59159
0.591561
0.591535
0.591511
0.59149
0.591471
0.591455
0.59144
0.591428
0.591418
0.591409
0.591403
0.591398
0.591395
0.591394
0.591394
0.591396
0.5914
0.591405
0.591411
0.591419
0.591428
0.591439
0.591451
0.591464
0.591479
0.591495
0.591512
0.591528
0.591569
0.591609
0.601285
0.601261
0.60118
0.601082
0.600972
0.600848
0.60071
0.600561
0.600401
0.600232
0.600054
0.599868
0.599675
0.599477
0.599273
0.599065
0.598854
0.59864
0.598424
0.598206
0.597988
0.597769
0.597551
0.597333
0.597116
0.596901
0.596688
0.596478
0.59627
0.596066
0.595865
0.595667
0.595474
0.595285
0.5951
0.594919
0.594743
0.594572
0.594406
0.594244
0.594088
0.593937
0.59379
0.593649
0.593513
0.593383
0.593257
0.593136
0.59302
0.59291
0.592804
0.592703
0.592606
0.592515
0.592428
0.592345
0.592266
0.592192
0.592122
0.592056
0.591994
0.591936
0.591881
0.59183
0.591783
0.591739
0.591698
0.59166
0.591625
0.591593
0.591563
0.591537
0.591513
0.591491
0.591472
0.591455
0.591441
0.591428
0.591417
0.591409
0.591402
0.591397
0.591394
0.591393
0.591393
0.591395
0.591399
0.591404
0.59141
0.591418
0.591427
0.591438
0.59145
0.591463
0.591477
0.591494
0.59151
0.591526
0.591567
0.591607
0.601423
0.601402
0.601317
0.60121
0.601093
0.600965
0.600824
0.600672
0.60051
0.600339
0.600159
0.599971
0.599777
0.599576
0.599371
0.599161
0.598948
0.598732
0.598514
0.598294
0.598074
0.597853
0.597632
0.597412
0.597193
0.596975
0.59676
0.596547
0.596337
0.59613
0.595926
0.595727
0.595531
0.595339
0.595151
0.594968
0.59479
0.594617
0.594448
0.594284
0.594126
0.593973
0.593824
0.593681
0.593543
0.593411
0.593283
0.593161
0.593043
0.592931
0.592824
0.592721
0.592624
0.592531
0.592442
0.592358
0.592279
0.592204
0.592133
0.592066
0.592003
0.591944
0.591888
0.591837
0.591788
0.591744
0.591702
0.591663
0.591628
0.591595
0.591566
0.591539
0.591514
0.591492
0.591473
0.591456
0.591441
0.591428
0.591417
0.591409
0.591402
0.591397
0.591393
0.591392
0.591392
0.591394
0.591397
0.591402
0.591408
0.591416
0.591425
0.591436
0.591448
0.591461
0.591475
0.591491
0.591508
0.591524
0.591564
0.591605
0.601559
0.601533
0.601451
0.60134
0.601218
0.601085
0.600942
0.600788
0.600624
0.600451
0.600269
0.60008
0.599884
0.599683
0.599476
0.599265
0.59905
0.598832
0.598612
0.598391
0.598168
0.597945
0.597721
0.597499
0.597277
0.597058
0.59684
0.596624
0.596411
0.596202
0.595995
0.595793
0.595594
0.5954
0.59521
0.595024
0.594843
0.594667
0.594496
0.59433
0.594169
0.594013
0.593863
0.593718
0.593577
0.593443
0.593313
0.593189
0.59307
0.592955
0.592846
0.592742
0.592643
0.592548
0.592459
0.592373
0.592293
0.592216
0.592144
0.592076
0.592012
0.591952
0.591896
0.591843
0.591794
0.591749
0.591706
0.591667
0.591631
0.591598
0.591568
0.59154
0.591516
0.591493
0.591473
0.591456
0.591441
0.591428
0.591417
0.591408
0.591401
0.591395
0.591392
0.59139
0.59139
0.591392
0.591395
0.5914
0.591406
0.591414
0.591423
0.591433
0.591445
0.591458
0.591473
0.591489
0.591506
0.591521
0.591561
0.591602
0.601735
0.601638
0.601546
0.60143
0.601303
0.601167
0.601023
0.600869
0.600706
0.600534
0.600355
0.600167
0.599973
0.599772
0.599566
0.599355
0.599141
0.598923
0.598702
0.59848
0.598256
0.598032
0.597807
0.597583
0.59736
0.597139
0.596919
0.596701
0.596486
0.596275
0.596066
0.595861
0.59566
0.595463
0.59527
0.595082
0.594899
0.59472
0.594547
0.594378
0.594215
0.594057
0.593904
0.593756
0.593614
0.593477
0.593345
0.593218
0.593097
0.592981
0.59287
0.592764
0.592663
0.592567
0.592475
0.592389
0.592306
0.592229
0.592155
0.592086
0.592021
0.59196
0.591902
0.591849
0.591799
0.591752
0.591709
0.591669
0.591633
0.591599
0.591568
0.59154
0.591515
0.591492
0.591472
0.591454
0.591438
0.591425
0.591414
0.591405
0.591397
0.591392
0.591388
0.591387
0.591387
0.591388
0.591391
0.591396
0.591402
0.59141
0.591419
0.59143
0.591442
0.591455
0.591469
0.591486
0.591502
0.591518
0.591556
0.591601
0.602175
0.601931
0.601794
0.601663
0.601521
0.601372
0.601215
0.601049
0.600876
0.600694
0.600506
0.60031
0.600108
0.599901
0.599689
0.599472
0.599252
0.599029
0.598804
0.598577
0.598349
0.59812
0.597891
0.597663
0.597437
0.597211
0.596988
0.596767
0.596548
0.596333
0.596122
0.595914
0.59571
0.59551
0.595315
0.595124
0.594938
0.594757
0.594582
0.594411
0.594246
0.594086
0.593931
0.593782
0.593638
0.593499
0.593366
0.593238
0.593116
0.592998
0.592886
0.592779
0.592677
0.59258
0.592488
0.5924
0.592317
0.592239
0.592165
0.592095
0.592029
0.591968
0.59191
0.591856
0.591805
0.591759
0.591715
0.591675
0.591638
0.591604
0.591573
0.591545
0.591519
0.591496
0.591476
0.591457
0.591442
0.591428
0.591416
0.591407
0.591399
0.591394
0.59139
0.591388
0.591387
0.591389
0.591391
0.591396
0.591402
0.591409
0.591418
0.591428
0.59144
0.591453
0.591467
0.591483
0.5915
0.591515
0.59155
0.591603
0.602304
0.602023
0.601867
0.601722
0.60157
0.601412
0.601248
0.601077
0.600899
0.600713
0.600521
0.600323
0.600118
0.599909
0.599695
0.599477
0.599255
0.599031
0.598804
0.598576
0.598347
0.598118
0.597889
0.59766
0.597433
0.597207
0.596983
0.596762
0.596544
0.596329
0.596117
0.595909
0.595705
0.595505
0.59531
0.595119
0.594933
0.594752
0.594577
0.594406
0.594241
0.594081
0.593926
0.593777
0.593633
0.593494
0.593361
0.593234
0.593111
0.592994
0.592882
0.592775
0.592673
0.592576
0.592483
0.592396
0.592313
0.592235
0.592161
0.592091
0.592025
0.591963
0.591906
0.591852
0.591801
0.591755
0.591711
0.591671
0.591634
0.5916
0.591569
0.591541
0.591515
0.591492
0.591472
0.591454
0.591438
0.591424
0.591413
0.591403
0.591396
0.59139
0.591386
0.591384
0.591384
0.591385
0.591388
0.591392
0.591398
0.591406
0.591415
0.591425
0.591437
0.59145
0.591464
0.59148
0.591497
0.591512
0.591546
0.591601
0.602387
0.602123
0.601963
0.601807
0.601645
0.601479
0.601307
0.601129
0.600944
0.600754
0.600557
0.600354
0.600146
0.599933
0.599716
0.599495
0.599271
0.599044
0.598816
0.598586
0.598355
0.598125
0.597894
0.597664
0.597436
0.597209
0.596985
0.596763
0.596544
0.596328
0.596116
0.595907
0.595703
0.595503
0.595307
0.595117
0.594931
0.594749
0.594574
0.594403
0.594237
0.594077
0.593923
0.593773
0.593629
0.593491
0.593358
0.59323
0.593108
0.59299
0.592878
0.592771
0.592669
0.592572
0.59248
0.592393
0.59231
0.592231
0.592157
0.592088
0.592022
0.59196
0.591903
0.591849
0.591799
0.591752
0.591708
0.591668
0.591631
0.591597
0.591566
0.591538
0.591513
0.59149
0.591469
0.591451
0.591435
0.591422
0.59141
0.591401
0.591393
0.591388
0.591384
0.591382
0.591381
0.591382
0.591385
0.59139
0.591395
0.591403
0.591411
0.591422
0.591433
0.591446
0.591461
0.591477
0.591494
0.591509
0.591542
0.591597
0.60248
0.602228
0.602064
0.601899
0.601728
0.601553
0.601373
0.601188
0.600998
0.600801
0.600599
0.600392
0.600179
0.599962
0.599742
0.599518
0.599291
0.599062
0.598831
0.598599
0.598367
0.598134
0.597902
0.597671
0.597442
0.597214
0.596989
0.596766
0.596546
0.596329
0.596116
0.595907
0.595703
0.595502
0.595306
0.595115
0.594929
0.594747
0.594571
0.5944
0.594235
0.594075
0.59392
0.59377
0.593626
0.593488
0.593355
0.593227
0.593104
0.592987
0.592875
0.592768
0.592666
0.592569
0.592477
0.59239
0.592307
0.592228
0.592154
0.592085
0.592019
0.591958
0.5919
0.591846
0.591796
0.591749
0.591706
0.591666
0.591629
0.591595
0.591564
0.591536
0.59151
0.591488
0.591467
0.591449
0.591433
0.59142
0.591408
0.591398
0.591391
0.591385
0.591381
0.591379
0.591379
0.59138
0.591382
0.591387
0.591392
0.5914
0.591408
0.591418
0.59143
0.591443
0.591457
0.591473
0.59149
0.591506
0.591538
0.591592
0.602575
0.602331
0.602159
0.601986
0.601807
0.601625
0.601439
0.601247
0.60105
0.600848
0.600641
0.600429
0.600212
0.599992
0.599768
0.599541
0.599311
0.599079
0.598846
0.598612
0.598378
0.598144
0.59791
0.597678
0.597447
0.597218
0.596992
0.596768
0.596548
0.59633
0.596117
0.595907
0.595702
0.595501
0.595305
0.595113
0.594927
0.594745
0.594569
0.594398
0.594232
0.594072
0.593917
0.593767
0.593623
0.593485
0.593351
0.593224
0.593101
0.592984
0.592872
0.592765
0.592663
0.592566
0.592474
0.592386
0.592304
0.592225
0.592152
0.592082
0.592016
0.591955
0.591897
0.591844
0.591793
0.591747
0.591703
0.591663
0.591627
0.591593
0.591562
0.591534
0.591508
0.591485
0.591465
0.591447
0.591431
0.591417
0.591405
0.591396
0.591388
0.591383
0.591379
0.591376
0.591376
0.591377
0.591379
0.591383
0.591389
0.591396
0.591405
0.591415
0.591426
0.591439
0.591453
0.591469
0.591486
0.591502
0.591534
0.591588
0.602664
0.602427
0.602249
0.602069
0.601884
0.601695
0.601502
0.601304
0.601102
0.600894
0.600682
0.600466
0.600245
0.600021
0.599794
0.599563
0.599331
0.599097
0.598861
0.598625
0.598389
0.598153
0.597918
0.597685
0.597452
0.597223
0.596995
0.596771
0.596549
0.596331
0.596117
0.595907
0.595701
0.5955
0.595303
0.595111
0.594924
0.594743
0.594566
0.594395
0.594229
0.594069
0.593914
0.593764
0.59362
0.593481
0.593348
0.59322
0.593098
0.592981
0.592869
0.592762
0.59266
0.592563
0.592471
0.592383
0.592301
0.592222
0.592149
0.592079
0.592014
0.591952
0.591895
0.591841
0.591791
0.591744
0.591701
0.591661
0.591624
0.59159
0.591559
0.591531
0.591505
0.591483
0.591462
0.591444
0.591428
0.591414
0.591403
0.591393
0.591385
0.59138
0.591376
0.591373
0.591373
0.591373
0.591376
0.59138
0.591386
0.591393
0.591401
0.591411
0.591422
0.591435
0.591449
0.591465
0.591482
0.591498
0.59153
0.591582
0.602748
0.602517
0.602334
0.602148
0.601957
0.601762
0.601563
0.60136
0.601152
0.60094
0.600723
0.600503
0.600278
0.60005
0.599819
0.599586
0.599351
0.599114
0.598876
0.598638
0.5984
0.598162
0.597926
0.597691
0.597458
0.597227
0.596998
0.596773
0.596551
0.596332
0.596117
0.595907
0.5957
0.595499
0.595302
0.595109
0.594922
0.59474
0.594564
0.594392
0.594226
0.594066
0.593911
0.593761
0.593617
0.593478
0.593345
0.593217
0.593094
0.592977
0.592865
0.592758
0.592656
0.59256
0.592468
0.59238
0.592298
0.592219
0.592146
0.592076
0.592011
0.591949
0.591892
0.591838
0.591788
0.591741
0.591698
0.591658
0.591621
0.591587
0.591556
0.591528
0.591503
0.59148
0.591459
0.591441
0.591425
0.591412
0.5914
0.59139
0.591383
0.591377
0.591372
0.59137
0.591369
0.59137
0.591372
0.591376
0.591382
0.591389
0.591397
0.591407
0.591418
0.591431
0.591445
0.591461
0.591478
0.591494
0.591525
0.591577
0.602826
0.602601
0.602414
0.602223
0.602027
0.601827
0.601623
0.601415
0.601202
0.600985
0.600764
0.600539
0.60031
0.600079
0.599844
0.599608
0.59937
0.599131
0.598891
0.598651
0.598411
0.598171
0.597933
0.597697
0.597462
0.59723
0.597001
0.596775
0.596552
0.596332
0.596117
0.595906
0.595699
0.595497
0.5953
0.595107
0.59492
0.594738
0.594561
0.594389
0.594223
0.594063
0.593907
0.593758
0.593613
0.593475
0.593341
0.593214
0.593091
0.592974
0.592862
0.592755
0.592653
0.592556
0.592464
0.592377
0.592294
0.592216
0.592142
0.592073
0.592008
0.591946
0.591889
0.591835
0.591785
0.591738
0.591695
0.591655
0.591618
0.591585
0.591554
0.591526
0.5915
0.591477
0.591457
0.591438
0.591422
0.591409
0.591397
0.591387
0.591379
0.591373
0.591369
0.591367
0.591366
0.591366
0.591369
0.591372
0.591378
0.591384
0.591393
0.591402
0.591413
0.591426
0.59144
0.591456
0.591473
0.591489
0.59152
0.591571
0.602899
0.60268
0.60249
0.602295
0.602094
0.60189
0.601681
0.601468
0.60125
0.601029
0.600803
0.600574
0.600342
0.600107
0.599869
0.59963
0.599389
0.599147
0.598905
0.598663
0.598421
0.59818
0.597941
0.597703
0.597467
0.597234
0.597004
0.596776
0.596553
0.596333
0.596117
0.595905
0.595698
0.595495
0.595298
0.595105
0.594917
0.594735
0.594558
0.594386
0.59422
0.594059
0.593904
0.593754
0.59361
0.593471
0.593338
0.59321
0.593088
0.59297
0.592858
0.592752
0.59265
0.592553
0.592461
0.592374
0.592291
0.592213
0.592139
0.59207
0.592005
0.591943
0.591886
0.591832
0.591782
0.591736
0.591692
0.591652
0.591616
0.591582
0.591551
0.591523
0.591497
0.591474
0.591454
0.591435
0.59142
0.591406
0.591394
0.591384
0.591376
0.59137
0.591366
0.591363
0.591362
0.591363
0.591365
0.591368
0.591373
0.59138
0.591388
0.591398
0.591408
0.591421
0.591435
0.591451
0.591468
0.591484
0.591515
0.591564
0.602966
0.602754
0.602561
0.602362
0.602158
0.60195
0.601736
0.601519
0.601297
0.601071
0.600841
0.600609
0.600373
0.600134
0.599893
0.599651
0.599408
0.599163
0.598919
0.598674
0.598431
0.598188
0.597947
0.597708
0.597471
0.597237
0.597006
0.596778
0.596553
0.596333
0.596116
0.595904
0.595697
0.595494
0.595296
0.595103
0.594915
0.594732
0.594555
0.594383
0.594217
0.594056
0.593901
0.593751
0.593607
0.593468
0.593335
0.593207
0.593084
0.592967
0.592855
0.592748
0.592646
0.59255
0.592458
0.59237
0.592288
0.59221
0.592136
0.592067
0.592001
0.59194
0.591883
0.591829
0.591779
0.591733
0.591689
0.591649
0.591613
0.591579
0.591548
0.59152
0.591494
0.591471
0.591451
0.591432
0.591416
0.591403
0.591391
0.591381
0.591373
0.591367
0.591362
0.591359
0.591358
0.591359
0.591361
0.591364
0.591369
0.591375
0.591383
0.591392
0.591403
0.591416
0.591429
0.591445
0.591462
0.591479
0.591509
0.591557
0.603029
0.602822
0.602627
0.602426
0.602219
0.602007
0.60179
0.601568
0.601342
0.601112
0.600878
0.600642
0.600402
0.60016
0.599917
0.599671
0.599425
0.599178
0.598932
0.598685
0.59844
0.598196
0.597953
0.597713
0.597475
0.59724
0.597008
0.596779
0.596554
0.596332
0.596115
0.595903
0.595695
0.595492
0.595293
0.5951
0.594912
0.594729
0.594552
0.59438
0.594214
0.594053
0.593897
0.593747
0.593603
0.593464
0.593331
0.593203
0.593081
0.592963
0.592852
0.592745
0.592643
0.592546
0.592454
0.592367
0.592285
0.592207
0.592133
0.592063
0.591998
0.591937
0.59188
0.591826
0.591776
0.591729
0.591686
0.591646
0.59161
0.591576
0.591545
0.591517
0.591491
0.591468
0.591448
0.591429
0.591413
0.591399
0.591387
0.591377
0.591369
0.591363
0.591358
0.591355
0.591354
0.591354
0.591356
0.591359
0.591364
0.59137
0.591378
0.591387
0.591398
0.59141
0.591423
0.591439
0.591456
0.591473
0.591503
0.59155
0.603088
0.602885
0.602689
0.602486
0.602276
0.602061
0.60184
0.601615
0.601385
0.601151
0.600914
0.600674
0.600431
0.600186
0.599939
0.599691
0.599442
0.599193
0.598944
0.598696
0.598449
0.598203
0.597959
0.597717
0.597478
0.597242
0.597009
0.596779
0.596554
0.596332
0.596114
0.595901
0.595693
0.595489
0.595291
0.595097
0.594909
0.594726
0.594549
0.594377
0.59421
0.594049
0.593894
0.593744
0.593599
0.593461
0.593327
0.5932
0.593077
0.59296
0.592848
0.592741
0.592639
0.592543
0.592451
0.592364
0.592281
0.592203
0.59213
0.59206
0.591995
0.591934
0.591876
0.591823
0.591773
0.591726
0.591683
0.591643
0.591607
0.591573
0.591542
0.591514
0.591488
0.591465
0.591444
0.591426
0.59141
0.591396
0.591384
0.591374
0.591366
0.591359
0.591355
0.591351
0.59135
0.59135
0.591352
0.591355
0.591359
0.591365
0.591373
0.591381
0.591392
0.591404
0.591417
0.591432
0.591449
0.591466
0.591496
0.591541
0.603142
0.602944
0.602747
0.602543
0.602331
0.602112
0.601888
0.60166
0.601426
0.601189
0.600948
0.600704
0.600458
0.600209
0.59996
0.599709
0.599457
0.599206
0.598955
0.598705
0.598456
0.598209
0.597964
0.597721
0.597481
0.597243
0.59701
0.596779
0.596553
0.596331
0.596113
0.595899
0.595691
0.595487
0.595288
0.595094
0.594906
0.594723
0.594545
0.594373
0.594206
0.594045
0.59389
0.59374
0.593596
0.593457
0.593324
0.593196
0.593073
0.592956
0.592844
0.592738
0.592636
0.592539
0.592447
0.59236
0.592278
0.5922
0.592126
0.592057
0.591992
0.59193
0.591873
0.59182
0.59177
0.591723
0.59168
0.59164
0.591603
0.59157
0.591539
0.59151
0.591485
0.591462
0.591441
0.591423
0.591406
0.591392
0.59138
0.59137
0.591362
0.591355
0.59135
0.591347
0.591346
0.591345
0.591347
0.59135
0.591354
0.59136
0.591367
0.591375
0.591385
0.591397
0.59141
0.591425
0.591442
0.591459
0.591489
0.591533
0.603192
0.602998
0.602802
0.602596
0.602382
0.602161
0.601934
0.601702
0.601465
0.601224
0.60098
0.600732
0.600483
0.600232
0.599979
0.599725
0.599472
0.599218
0.598965
0.598713
0.598463
0.598214
0.597968
0.597723
0.597482
0.597244
0.59701
0.596779
0.596552
0.596329
0.596111
0.595897
0.595688
0.595484
0.595285
0.595091
0.594902
0.594719
0.594541
0.594369
0.594203
0.594041
0.593886
0.593736
0.593592
0.593453
0.59332
0.593192
0.593069
0.592952
0.59284
0.592734
0.592632
0.592535
0.592444
0.592357
0.592274
0.592196
0.592123
0.592053
0.591988
0.591927
0.59187
0.591816
0.591766
0.59172
0.591677
0.591637
0.5916
0.591566
0.591535
0.591507
0.591481
0.591458
0.591438
0.591419
0.591403
0.591389
0.591376
0.591366
0.591358
0.591351
0.591346
0.591343
0.591341
0.591341
0.591342
0.591344
0.591348
0.591354
0.591361
0.591369
0.591379
0.59139
0.591403
0.591418
0.591434
0.591452
0.591481
0.591523
0.603239
0.603049
0.602852
0.602645
0.60243
0.602207
0.601977
0.601742
0.601501
0.601257
0.60101
0.600759
0.600506
0.600252
0.599997
0.599741
0.599485
0.599229
0.598974
0.598721
0.598468
0.598218
0.597971
0.597726
0.597483
0.597245
0.597009
0.596778
0.59655
0.596327
0.596108
0.595894
0.595685
0.595481
0.595281
0.595087
0.594899
0.594715
0.594538
0.594365
0.594199
0.594038
0.593882
0.593732
0.593588
0.593449
0.593316
0.593188
0.593066
0.592949
0.592837
0.59273
0.592629
0.592532
0.59244
0.592353
0.592271
0.592193
0.592119
0.59205
0.591985
0.591924
0.591866
0.591813
0.591763
0.591717
0.591673
0.591634
0.591597
0.591563
0.591532
0.591504
0.591478
0.591455
0.591434
0.591416
0.591399
0.591385
0.591373
0.591362
0.591354
0.591347
0.591342
0.591338
0.591336
0.591336
0.591337
0.591339
0.591343
0.591348
0.591354
0.591362
0.591372
0.591383
0.591395
0.59141
0.591426
0.591444
0.591472
0.591512
0.603283
0.603096
0.602899
0.602691
0.602474
0.602249
0.602017
0.601779
0.601536
0.601288
0.601038
0.600784
0.600528
0.600271
0.600013
0.599755
0.599497
0.599239
0.598983
0.598727
0.598474
0.598223
0.597974
0.597728
0.597485
0.597245
0.597009
0.596777
0.596549
0.596326
0.596107
0.595892
0.595683
0.595479
0.595279
0.595085
0.594896
0.594713
0.594535
0.594363
0.594196
0.594035
0.59388
0.59373
0.593585
0.593447
0.593314
0.593186
0.593063
0.592946
0.592835
0.592728
0.592626
0.59253
0.592438
0.592351
0.592269
0.592191
0.592117
0.592048
0.591983
0.591922
0.591864
0.591811
0.591761
0.591715
0.591671
0.591632
0.591595
0.591561
0.59153
0.591501
0.591476
0.591453
0.591432
0.591413
0.591397
0.591382
0.59137
0.591359
0.591351
0.591344
0.591338
0.591335
0.591332
0.591331
0.591332
0.591334
0.591337
0.591342
0.591348
0.591356
0.591365
0.591375
0.591387
0.591401
0.591417
0.591435
0.591462
0.591501
0.603323
0.60314
0.602943
0.602735
0.602517
0.602289
0.602055
0.601814
0.601568
0.601317
0.601063
0.600807
0.600548
0.600289
0.600028
0.599768
0.599507
0.599248
0.598989
0.598733
0.598478
0.598225
0.597976
0.597729
0.597485
0.597245
0.597008
0.596776
0.596547
0.596324
0.596104
0.59589
0.59568
0.595475
0.595276
0.595082
0.594893
0.59471
0.594532
0.594359
0.594193
0.594032
0.593876
0.593726
0.593582
0.593443
0.59331
0.593183
0.59306
0.592943
0.592831
0.592725
0.592623
0.592527
0.592435
0.592348
0.592266
0.592188
0.592114
0.592045
0.59198
0.591919
0.591862
0.591808
0.591758
0.591712
0.591669
0.591629
0.591592
0.591558
0.591527
0.591499
0.591473
0.59145
0.591429
0.59141
0.591394
0.591379
0.591367
0.591356
0.591347
0.59134
0.591334
0.59133
0.591328
0.591327
0.591327
0.591329
0.591332
0.591336
0.591342
0.591349
0.591357
0.591367
0.591379
0.591392
0.591408
0.591425
0.591451
0.591487
0.603369
0.603187
0.60299
0.60278
0.602559
0.602329
0.60209
0.601845
0.601594
0.601339
0.601081
0.600821
0.600558
0.600295
0.600031
0.599767
0.599503
0.599241
0.59898
0.598722
0.598465
0.598211
0.597959
0.597711
0.597466
0.597225
0.596988
0.596754
0.596525
0.596301
0.596081
0.595866
0.595656
0.595451
0.595251
0.595057
0.594868
0.594685
0.594507
0.594334
0.594168
0.594007
0.593851
0.593701
0.593557
0.593418
0.593285
0.593158
0.593035
0.592918
0.592807
0.5927
0.592599
0.592503
0.592411
0.592324
0.592242
0.592164
0.592091
0.592022
0.591957
0.591896
0.591839
0.591786
0.591736
0.59169
0.591647
0.591608
0.591571
0.591538
0.591507
0.591479
0.591453
0.59143
0.59141
0.591391
0.591375
0.591361
0.591349
0.591339
0.59133
0.591323
0.591318
0.591314
0.591312
0.591311
0.591312
0.591314
0.591317
0.591321
0.591327
0.591334
0.591343
0.591353
0.591364
0.591378
0.591393
0.59141
0.591436
0.591471
0.603421
0.603238
0.603039
0.602825
0.6026
0.602364
0.602119
0.601868
0.601611
0.60135
0.601085
0.600819
0.600551
0.600282
0.600013
0.599745
0.599477
0.599211
0.598947
0.598685
0.598426
0.598169
0.597916
0.597666
0.597419
0.597176
0.596938
0.596703
0.596473
0.596248
0.596027
0.595811
0.595601
0.595395
0.595195
0.595001
0.594811
0.594628
0.594449
0.594277
0.59411
0.593949
0.593793
0.593644
0.593499
0.593361
0.593228
0.5931
0.592978
0.592862
0.59275
0.592644
0.592543
0.592447
0.592355
0.592269
0.592187
0.59211
0.592037
0.591968
0.591904
0.591844
0.591787
0.591735
0.591686
0.59164
0.591598
0.591559
0.591523
0.59149
0.59146
0.591433
0.591408
0.591386
0.591366
0.591349
0.591334
0.59132
0.591309
0.5913
0.591292
0.591286
0.591282
0.591279
0.591278
0.591278
0.59128
0.591283
0.591287
0.591293
0.5913
0.591308
0.591317
0.591328
0.591341
0.591355
0.591371
0.59139
0.591415
0.591451
0.603398
0.60322
0.603029
0.602823
0.602606
0.602378
0.602142
0.601899
0.60165
0.601397
0.60114
0.600881
0.600621
0.600359
0.600097
0.599835
0.599574
0.599314
0.599055
0.598798
0.598544
0.598292
0.598042
0.597796
0.597553
0.597314
0.597078
0.596847
0.596619
0.596396
0.596178
0.595964
0.595756
0.595552
0.595353
0.59516
0.594972
0.594789
0.594612
0.59444
0.594274
0.594114
0.593959
0.593809
0.593665
0.593526
0.593393
0.593266
0.593143
0.593026
0.592914
0.592808
0.592706
0.592609
0.592517
0.592429
0.592346
0.592268
0.592194
0.592124
0.592058
0.591996
0.591937
0.591883
0.591832
0.591784
0.591739
0.591698
0.59166
0.591624
0.591592
0.591562
0.591534
0.591509
0.591486
0.591465
0.591447
0.59143
0.591415
0.591402
0.591391
0.591381
0.591373
0.591366
0.59136
0.591356
0.591353
0.591351
0.591351
0.591351
0.591353
0.591356
0.59136
0.591365
0.591371
0.591379
0.591388
0.591399
0.591414
0.591434
0.603532
0.603499
0.603431
0.603331
0.6032
0.603041
0.602861
0.602664
0.602423
0.602114
0.603583
0.603546
0.603476
0.603375
0.603245
0.603091
0.602918
0.602737
0.602529
0.602214
0.603634
0.603603
0.60354
0.603447
0.603326
0.603182
0.603017
0.602845
0.602656
0.602335
0.60368
0.603657
0.603602
0.603519
0.603408
0.603274
0.603119
0.602954
0.602778
0.602468
0.603721
0.603704
0.603657
0.603582
0.60348
0.603355
0.603209
0.603052
0.602885
0.602596
0.603756
0.603745
0.603705
0.603637
0.603543
0.603426
0.603289
0.603139
0.602979
0.602714
0.603788
0.603782
0.603747
0.603686
0.6036
0.603491
0.603361
0.603218
0.603064
0.60282
0.603815
0.603813
0.603785
0.60373
0.603651
0.603548
0.603426
0.603289
0.603141
0.602918
0.603838
0.603841
0.603818
0.603769
0.603696
0.6036
0.603485
0.603354
0.603211
0.603005
0.603857
0.603865
0.603847
0.603803
0.603736
0.603647
0.603538