/*--------------------------------*- C++ -*----------------------------------*\
  =========                 |
  \\      /  F ield         | OpenFOAM: The Open Source CFD Toolbox
   \\    /   O peration     | Website:  https://openfoam.org
    \\  /    A nd           | Version:  8
     \\/     M anipulation  |
\*---------------------------------------------------------------------------*/
FoamFile
{
    version     2.0;
    format      ascii;
    class       volScalarField;
    location    "0.500023";
    object      T;
}
// * * * * * * * * * * * * * * * * * * * * * * * * * * * * * * * * * * * * * //

dimensions      [0 0 0 1 0 0 0];

internalField   nonuniform List<scalar> 
6800
(
366.282
366.298
366.309
366.318
366.329
366.34
366.352
366.366
366.382
366.398
366.271
366.272
366.275
366.279
366.284
366.29
366.297
366.305
366.314
366.325
366.271
366.258
366.252
366.249
366.248
366.248
366.249
366.252
366.255
366.26
366.282
366.256
366.241
366.231
366.223
366.217
366.213
366.209
366.207
366.206
366.313
366.268
366.243
366.225
366.211
366.199
366.189
366.18
366.172
366.166
366.354
366.293
366.258
366.233
366.213
366.195
366.18
366.166
366.153
366.141
366.409
366.331
366.287
366.255
366.229
366.207
366.186
366.168
366.151
366.134
366.474
366.381
366.329
366.291
366.26
366.233
366.209
366.187
366.166
366.146
366.548
366.443
366.383
366.34
366.305
366.275
366.248
366.223
366.2
366.178
366.629
366.514
366.449
366.402
366.364
366.332
366.303
366.276
366.252
366.229
366.699
366.704
366.72
366.742
366.769
366.802
366.838
366.877
366.92
366.966
366.684
366.69
366.706
366.729
366.756
366.788
366.824
366.864
366.906
366.952
366.651
366.664
366.682
366.705
366.732
366.764
366.799
366.838
366.879
366.924
366.608
366.627
366.647
366.671
366.698
366.729
366.763
366.801
366.841
366.883
366.555
366.581
366.604
366.628
366.655
366.685
366.718
366.753
366.792
366.832
366.499
366.531
366.555
366.58
366.606
366.634
366.665
366.698
366.734
366.772
366.443
366.478
366.503
366.527
366.551
366.577
366.606
366.636
366.669
366.704
366.391
366.426
366.45
366.472
366.494
366.517
366.543
366.57
366.6
366.631
366.345
366.377
366.398
366.417
366.436
366.456
366.478
366.502
366.528
366.556
366.308
366.333
366.35
366.365
366.38
366.396
366.414
366.433
366.455
366.48
367.034
367.125
367.221
367.321
367.424
367.531
367.642
367.757
367.874
367.994
368.116
368.241
368.368
368.496
368.625
368.756
368.887
369.019
369.15
369.282
369.414
369.545
369.675
369.804
369.932
370.059
370.184
370.307
370.429
370.548
370.665
370.781
370.893
371.004
371.111
371.216
371.319
371.419
371.515
371.609
371.701
371.789
371.875
371.957
372.037
372.114
372.188
372.259
372.327
372.393
372.456
372.516
372.574
372.629
372.682
372.732
372.78
372.825
372.868
372.909
372.948
372.985
373.02
373.053
373.084
373.114
373.141
373.167
373.192
373.215
373.237
373.257
373.276
373.294
373.31
373.326
373.34
373.354
373.366
373.378
373.389
373.399
373.408
373.416
373.424
373.431
373.438
373.444
373.45
373.455
373.46
373.464
373.467
373.471
373.474
373.476
373.478
373.48
373.482
373.483
367.02
367.112
367.208
367.308
367.412
367.52
367.631
367.746
367.863
367.984
368.107
368.231
368.358
368.487
368.616
368.747
368.879
369.01
369.143
369.275
369.406
369.537
369.668
369.797
369.926
370.052
370.178
370.301
370.423
370.543
370.661
370.776
370.889
370.999
371.107
371.213
371.315
371.415
371.512
371.607
371.698
371.787
371.872
371.955
372.035
372.112
372.186
372.257
372.326
372.392
372.455
372.515
372.573
372.628
372.681
372.731
372.779
372.824
372.868
372.909
372.948
372.985
373.02
373.053
373.084
373.113
373.141
373.167
373.192
373.215
373.237
373.257
373.276
373.294
373.31
373.326
373.34
373.354
373.366
373.378
373.389
373.399
373.408
373.416
373.424
373.432
373.438
373.444
373.45
373.455
373.46
373.464
373.468
373.471
373.474
373.476
373.478
373.48
373.482
373.483
366.992
367.086
367.183
367.284
367.389
367.498
367.61
367.725
367.843
367.964
368.087
368.212
368.34
368.469
368.599
368.73
368.862
368.994
369.127
369.259
369.391
369.523
369.654
369.784
369.912
370.04
370.166
370.29
370.412
370.532
370.65
370.766
370.88
370.991
371.099
371.205
371.308
371.408
371.506
371.6
371.692
371.781
371.867
371.95
372.03
372.107
372.182
372.253
372.322
372.388
372.452
372.512
372.57
372.626
372.679
372.729
372.777
372.823
372.866
372.907
372.947
372.984
373.019
373.052
373.083
373.113
373.14
373.167
373.191
373.214
373.236
373.257
373.276
373.293
373.31
373.326
373.34
373.354
373.366
373.378
373.389
373.399
373.408
373.416
373.424
373.432
373.438
373.444
373.45
373.455
373.46
373.464
373.468
373.471
373.474
373.476
373.479
373.48
373.482
373.483
366.952
367.048
367.147
367.25
367.356
367.465
367.578
367.694
367.813
367.934
368.058
368.184
368.312
368.442
368.572
368.704
368.837
368.97
369.103
369.236
369.369
369.501
369.633
369.763
369.893
370.021
370.147
370.272
370.395
370.516
370.635
370.751
370.865
370.977
371.086
371.192
371.296
371.397
371.495
371.59
371.682
371.772
371.858
371.942
372.023
372.1
372.175
372.247
372.316
372.383
372.447
372.508
372.566
372.622
372.675
372.726
372.774
372.82
372.864
372.905
372.944
372.982
373.017
373.05
373.082
373.111
373.139
373.166
373.19
373.214
373.235
373.256
373.275
373.293
373.31
373.325
373.34
373.353
373.366
373.378
373.388
373.398
373.408
373.416
373.424
373.431
373.438
373.444
373.45
373.455
373.46
373.464
373.468
373.471
373.474
373.476
373.479
373.48
373.482
373.483
366.901
367
367.101
367.205
367.312
367.423
367.536
367.653
367.773
367.895
368.02
368.147
368.276
368.406
368.537
368.67
368.803
368.937
369.071
369.205
369.339
369.472
369.604
369.736
369.866
369.995
370.122
370.248
370.372
370.494
370.613
370.731
370.846
370.958
371.068
371.175
371.28
371.381
371.48
371.576
371.669
371.759
371.847
371.931
372.012
372.091
372.166
372.239
372.309
372.375
372.44
372.501
372.56
372.616
372.67
372.721
372.769
372.816
372.86
372.902
372.941
372.979
373.014
373.048
373.079
373.109
373.137
373.164
373.189
373.212
373.234
373.255
373.274
373.292
373.309
373.325
373.339
373.353
373.365
373.377
373.388
373.398
373.407
373.416
373.424
373.431
373.438
373.444
373.45
373.455
373.46
373.464
373.468
373.471
373.474
373.476
373.479
373.48
373.482
373.483
366.84
366.941
367.044
367.15
367.259
367.371
367.486
367.604
367.724
367.848
367.973
368.101
368.23
368.362
368.494
368.627
368.762
368.896
369.031
369.166
369.301
369.435
369.569
369.701
369.833
369.963
370.091
370.218
370.343
370.466
370.587
370.705
370.821
370.935
371.045
371.154
371.259
371.362
371.462
371.559
371.653
371.744
371.832
371.917
371.999
372.078
372.154
372.228
372.298
372.366
372.431
372.493
372.552
372.609
372.663
372.715
372.764
372.811
372.855
372.897
372.937
372.975
373.011
373.045
373.077
373.107
373.135
373.162
373.187
373.211
373.233
373.253
373.273
373.291
373.308
373.324
373.338
373.352
373.365
373.377
373.388
373.398
373.407
373.416
373.424
373.431
373.438
373.444
373.45
373.455
373.459
373.464
373.467
373.471
373.474
373.476
373.478
373.48
373.482
373.483
366.772
366.875
366.98
367.087
367.197
367.31
367.426
367.545
367.667
367.791
367.918
368.047
368.177
368.309
368.443
368.577
368.712
368.848
368.984
369.12
369.256
369.392
369.526
369.66
369.793
369.924
370.054
370.182
370.308
370.432
370.554
370.674
370.791
370.906
371.018
371.128
371.234
371.338
371.439
371.537
371.632
371.724
371.814
371.9
371.983
372.063
372.14
372.214
372.286
372.354
372.42
372.483
372.543
372.6
372.655
372.707
372.757
372.804
372.849
372.892
372.932
372.97
373.007
373.041
373.073
373.104
373.132
373.159
373.185
373.208
373.231
373.252
373.271
373.29
373.307
373.323
373.337
373.351
373.364
373.376
373.387
373.397
373.407
373.415
373.423
373.431
373.438
373.444
373.449
373.455
373.459
373.464
373.467
373.471
373.474
373.476
373.478
373.48
373.482
373.483
366.698
366.801
366.907
367.016
367.128
367.242
367.359
367.479
367.602
367.727
367.855
367.985
368.116
368.249
368.384
368.519
368.656
368.793
368.93
369.067
369.205
369.341
369.477
369.612
369.746
369.879
370.01
370.14
370.267
370.393
370.516
370.638
370.756
370.873
370.986
371.097
371.205
371.31
371.413
371.512
371.608
371.702
371.792
371.879
371.964
372.045
372.123
372.199
372.271
372.34
372.407
372.47
372.531
372.589
372.645
372.698
372.748
372.796
372.842
372.885
372.926
372.965
373.001
373.036
373.069
373.1
373.129
373.156
373.182
373.206
373.228
373.25
373.269
373.288
373.305
373.321
373.336
373.35
373.363
373.375
373.386
373.397
373.406
373.415
373.423
373.43
373.437
373.444
373.449
373.454
373.459
373.463
373.467
373.471
373.474
373.476
373.478
373.48
373.482
373.483
366.621
366.723
366.83
366.939
367.052
367.167
367.286
367.407
367.53
367.656
367.785
367.915
368.048
368.182
368.318
368.454
368.592
368.73
368.869
369.007
369.146
369.284
369.421
369.558
369.694
369.828
369.961
370.092
370.221
370.348
370.473
370.596
370.716
370.834
370.949
371.062
371.172
371.278
371.382
371.483
371.581
371.676
371.767
371.856
371.942
372.024
372.104
372.18
372.254
372.324
372.392
372.456
372.518
372.577
372.634
372.687
372.739
372.787
372.833
372.877
372.919
372.958
372.995
373.031
373.064
373.095
373.125
373.152
373.178
373.203
373.226
373.247
373.267
373.286
373.303
373.32
373.335
373.349
373.362
373.374
373.385
373.396
373.405
373.414
373.422
373.43
373.437
373.443
373.449
373.454
373.459
373.463
373.467
373.47
373.473
373.476
373.478
373.48
373.481
373.482
366.544
366.643
366.749
366.858
366.971
367.087
367.206
367.328
367.452
367.579
367.708
367.84
367.973
368.108
368.245
368.383
368.522
368.661
368.801
368.941
369.081
369.22
369.359
369.497
369.635
369.771
369.905
370.038
370.169
370.298
370.425
370.549
370.671
370.791
370.908
371.022
371.134
371.242
371.348
371.45
371.55
371.646
371.739
371.829
371.917
372
372.081
372.159
372.234
372.306
372.374
372.44
372.503
372.563
372.621
372.675
372.727
372.777
372.824
372.868
372.911
372.951
372.989
373.024
373.058
373.09
373.12
373.148
373.174
373.199
373.222
373.244
373.264
373.283
373.301
373.318
373.333
373.347
373.361
373.373
373.384
373.395
373.405
373.414
373.422
373.429
373.436
373.443
373.449
373.454
373.459
373.463
373.467
373.47
373.473
373.476
373.478
373.48
373.481
373.482
366.486
366.588
366.695
366.805
366.918
367.035
367.155
367.278
367.403
367.531
367.662
367.794
367.929
368.065
368.202
368.341
368.481
368.621
368.762
368.903
369.044
369.185
369.325
369.464
369.602
369.739
369.875
370.008
370.141
370.271
370.398
370.524
370.647
370.768
370.886
371.001
371.113
371.223
371.329
371.433
371.533
371.63
371.725
371.816
371.903
371.988
372.07
372.148
372.224
372.296
372.365
372.432
372.495
372.556
372.614
372.669
372.722
372.772
372.819
372.864
372.907
372.947
372.985
373.021
373.055
373.087
373.117
373.146
373.172
373.197
373.221
373.243
373.263
373.282
373.3
373.317
373.332
373.347
373.36
373.372
373.384
373.394
373.404
373.413
373.422
373.429
373.436
373.443
373.448
373.454
373.459
373.463
373.467
373.47
373.473
373.476
373.478
373.48
373.481
373.482
366.459
366.563
366.67
366.781
366.896
367.014
367.136
367.26
367.387
367.516
367.648
367.782
367.917
368.054
368.193
368.333
368.473
368.614
368.756
368.898
369.039
369.18
369.321
369.46
369.599
369.736
369.872
370.006
370.139
370.269
370.397
370.523
370.646
370.767
370.885
371.001
371.113
371.223
371.329
371.433
371.533
371.631
371.725
371.816
371.904
371.989
372.07
372.149
372.224
372.297
372.366
372.432
372.496
372.557
372.614
372.67
372.722
372.772
372.819
372.864
372.907
372.947
372.986
373.022
373.056
373.088
373.118
373.146
373.173
373.198
373.221
373.243
373.263
373.282
373.3
373.317
373.332
373.347
373.36
373.372
373.384
373.394
373.404
373.413
373.421
373.429
373.436
373.443
373.448
373.454
373.458
373.463
373.467
373.47
373.473
373.476
373.478
373.48
373.481
373.482
366.435
366.538
366.646
366.758
366.874
366.994
367.117
367.242
367.37
367.501
367.634
367.769
367.906
368.044
368.183
368.324
368.465
368.607
368.75
368.892
369.034
369.176
369.317
369.457
369.596
369.734
369.87
370.004
370.137
370.267
370.396
370.522
370.645
370.766
370.885
371
371.113
371.223
371.329
371.433
371.533
371.631
371.725
371.816
371.904
371.989
372.071
372.149
372.225
372.297
372.366
372.433
372.496
372.557
372.615
372.67
372.723
372.772
372.82
372.865
372.907
372.948
372.986
373.022
373.056
373.088
373.118
373.146
373.173
373.198
373.221
373.243
373.263
373.283
373.3
373.317
373.332
373.347
373.36
373.372
373.384
373.394
373.404
373.413
373.421
373.429
373.436
373.442
373.448
373.454
373.458
373.463
373.466
373.47
373.473
373.475
373.478
373.479
373.481
373.482
366.412
366.515
366.624
366.736
366.853
366.974
367.098
367.225
367.354
367.486
367.62
367.756
367.894
368.033
368.174
368.315
368.458
368.6
368.743
368.886
369.029
369.171
369.313
369.453
369.593
369.731
369.867
370.002
370.135
370.266
370.394
370.521
370.644
370.765
370.884
371
371.112
371.222
371.329
371.433
371.533
371.631
371.725
371.816
371.904
371.989
372.071
372.149
372.225
372.297
372.367
372.433
372.497
372.557
372.615
372.67
372.723
372.773
372.82
372.865
372.908
372.948
372.986
373.022
373.056
373.088
373.118
373.146
373.173
373.198
373.221
373.243
373.263
373.283
373.3
373.317
373.332
373.347
373.36
373.372
373.384
373.394
373.404
373.413
373.421
373.429
373.436
373.442
373.448
373.453
373.458
373.462
373.466
373.47
373.473
373.475
373.477
373.479
373.481
373.482
366.391
366.494
366.602
366.716
366.833
366.955
367.08
367.208
367.338
367.471
367.607
367.744
367.883
368.023
368.164
368.307
368.45
368.593
368.737
368.88
369.024
369.166
369.308
369.449
369.589
369.728
369.864
370
370.133
370.264
370.393
370.519
370.643
370.764
370.883
370.999
371.112
371.222
371.328
371.432
371.533
371.63
371.725
371.816
371.904
371.989
372.071
372.149
372.225
372.297
372.367
372.433
372.497
372.557
372.615
372.67
372.723
372.773
372.82
372.865
372.908
372.948
372.986
373.022
373.056
373.088
373.118
373.146
373.173
373.198
373.221
373.243
373.263
373.282
373.3
373.317
373.332
373.347
373.36
373.372
373.384
373.394
373.404
373.413
373.421
373.429
373.436
373.442
373.448
373.453
373.458
373.462
373.466
373.47
373.473
373.475
373.477
373.479
373.48
373.481
366.372
366.474
366.582
366.696
366.814
366.937
367.062
367.191
367.323
367.457
367.593
367.732
367.871
368.013
368.155
368.298
368.442
368.586
368.73
368.874
369.018
369.161
369.304
369.445
369.586
369.724
369.862
369.997
370.13
370.262
370.391
370.518
370.642
370.763
370.882
370.998
371.111
371.221
371.328
371.432
371.532
371.63
371.725
371.816
371.904
371.989
372.071
372.149
372.225
372.297
372.367
372.433
372.497
372.557
372.615
372.67
372.723
372.773
372.82
372.865
372.908
372.948
372.986
373.022
373.056
373.088
373.118
373.146
373.173
373.198
373.221
373.243
373.263
373.282
373.3
373.317
373.332
373.346
373.36
373.372
373.383
373.394
373.404
373.413
373.421
373.429
373.435
373.442
373.448
373.453
373.458
373.462
373.466
373.469
373.472
373.475
373.477
373.479
373.48
373.481
366.354
366.456
366.564
366.678
366.796
366.919
367.046
367.176
367.308
367.443
367.581
367.72
367.86
368.002
368.146
368.29
368.434
368.579
368.724
368.869
369.013
369.157
369.3
369.441
369.582
369.721
369.859
369.994
370.128
370.26
370.389
370.516
370.64
370.762
370.881
370.997
371.11
371.22
371.327
371.431
371.532
371.63
371.724
371.815
371.903
371.988
372.07
372.149
372.224
372.297
372.366
372.433
372.496
372.557
372.615
372.67
372.723
372.773
372.82
372.865
372.908
372.948
372.986
373.022
373.056
373.088
373.118
373.146
373.173
373.197
373.221
373.243
373.263
373.282
373.3
373.316
373.332
373.346
373.359
373.372
373.383
373.394
373.403
373.412
373.421
373.428
373.435
373.442
373.447
373.453
373.457
373.462
373.466
373.469
373.472
373.475
373.477
373.478
373.48
373.481
366.338
366.439
366.547
366.661
366.78
366.903
367.03
367.161
367.294
367.43
367.568
367.708
367.85
367.993
368.137
368.281
368.427
368.572
368.718
368.863
369.008
369.152
369.295
369.438
369.579
369.718
369.856
369.992
370.126
370.258
370.387
370.514
370.639
370.76
370.879
370.996
371.109
371.219
371.326
371.43
371.531
371.629
371.723
371.815
371.903
371.988
372.07
372.148
372.224
372.297
372.366
372.433
372.496
372.557
372.615
372.67
372.722
372.772
372.82
372.865
372.907
372.948
372.986
373.022
373.055
373.087
373.117
373.146
373.172
373.197
373.22
373.242
373.263
373.282
373.299
373.316
373.331
373.346
373.359
373.371
373.383
373.393
373.403
373.412
373.42
373.428
373.435
373.441
373.447
373.452
373.457
373.461
373.465
373.469
373.472
373.474
373.476
373.478
373.479
373.48
366.323
366.423
366.531
366.645
366.764
366.888
367.016
367.147
367.281
367.418
367.557
367.698
367.84
367.983
368.128
368.273
368.419
368.565
368.712
368.857
369.003
369.147
369.291
369.434
369.575
369.715
369.853
369.989
370.123
370.255
370.385
370.512
370.637
370.759
370.878
370.994
371.108
371.218
371.325
371.429
371.53
371.628
371.723
371.814
371.902
371.987
372.069
372.148
372.223
372.296
372.366
372.432
372.496
372.556
372.614
372.669
372.722
372.772
372.819
372.864
372.907
372.947
372.985
373.021
373.055
373.087
373.117
373.145
373.172
373.197
373.22
373.242
373.262
373.281
373.299
373.316
373.331
373.345
373.359
373.371
373.382
373.393
373.403
373.412
373.42
373.428
373.435
373.441
373.447
373.452
373.457
373.461
373.465
373.468
373.471
373.474
373.476
373.478
373.479
373.48
366.309
366.409
366.517
366.631
366.75
366.874
367.002
367.134
367.269
367.406
367.546
367.687
367.83
367.975
368.12
368.266
368.412
368.559
368.706
368.852
368.998
369.143
369.287
369.43
369.572
369.712
369.85
369.987
370.121
370.253
370.383
370.51
370.635
370.757
370.876
370.993
371.106
371.217
371.324
371.428
371.529
371.627
371.722
371.813
371.901
371.987
372.068
372.147
372.223
372.295
372.365
372.431
372.495
372.556
372.614
372.669
372.721
372.771
372.819
372.864
372.906
372.947
372.985
373.021
373.055
373.086
373.117
373.145
373.171
373.196
373.22
373.241
373.262
373.281
373.299
373.315
373.331
373.345
373.358
373.37
373.382
373.392
373.402
373.411
373.42
373.427
373.434
373.441
373.446
373.452
373.457
373.461
373.465
373.468
373.471
373.474
373.476
373.477
373.479
373.48
366.297
366.397
366.504
366.618
366.737
366.862
366.99
367.122
367.258
367.396
367.536
367.678
367.822
367.967
368.112
368.259
368.406
368.553
368.7
368.847
368.993
369.139
369.283
369.426
369.568
369.709
369.847
369.984
370.119
370.251
370.381
370.508
370.633
370.756
370.875
370.991
371.105
371.215
371.323
371.427
371.528
371.626
371.721
371.812
371.901
371.986
372.068
372.146
372.222
372.295
372.364
372.431
372.494
372.555
372.613
372.668
372.721
372.771
372.818
372.863
372.906
372.946
372.984
373.02
373.054
373.086
373.116
373.144
373.171
373.196
373.219
373.241
373.261
373.28
373.298
373.315
373.33
373.344
373.358
373.37
373.381
373.392
373.402
373.411
373.419
373.427
373.434
373.44
373.446
373.451
373.456
373.46
373.464
373.468
373.471
373.473
373.475
373.477
373.478
373.479
366.287
366.386
366.493
366.607
366.726
366.85
366.979
367.112
367.248
367.386
367.527
367.669
367.814
367.959
368.105
368.253
368.4
368.548
368.695
368.842
368.989
369.135
369.279
369.423
369.565
369.706
369.844
369.981
370.116
370.249
370.379
370.506
370.632
370.754
370.873
370.99
371.103
371.214
371.321
371.426
371.527
371.625
371.72
371.811
371.9
371.985
372.067
372.145
372.221
372.294
372.363
372.43
372.493
372.554
372.612
372.667
372.72
372.77
372.817
372.862
372.905
372.945
372.983
373.019
373.053
373.085
373.115
373.144
373.17
373.195
373.218
373.24
373.261
373.28
373.297
373.314
373.329
373.344
373.357
373.369
373.381
373.391
373.401
373.41
373.419
373.426
373.433
373.44
373.446
373.451
373.456
373.46
373.464
373.467
373.47
373.473
373.475
373.477
373.478
373.479
366.278
366.377
366.483
366.597
366.716
366.841
366.97
367.102
367.239
367.377
367.519
367.662
367.806
367.952
368.099
368.247
368.394
368.542
368.69
368.838
368.985
369.131
369.276
369.42
369.562
369.703
369.842
369.979
370.114
370.246
370.377
370.505
370.63
370.752
370.872
370.988
371.102
371.213
371.32
371.424
371.526
371.624
371.718
371.81
371.898
371.984
372.065
372.144
372.22
372.293
372.362
372.429
372.492
372.553
372.611
372.666
372.719
372.769
372.816
372.861
372.904
372.944
372.982
373.018
373.052
373.084
373.114
373.143
373.169
373.194
373.218
373.239
373.26
373.279
373.297
373.313
373.329
373.343
373.356
373.369
373.38
373.391
373.401
373.41
373.418
373.426
373.433
373.439
373.445
373.45
373.455
373.46
373.464
373.467
373.47
373.473
373.475
373.476
373.478
373.478
366.27
366.369
366.475
366.588
366.707
366.832
366.961
367.094
367.231
367.37
367.511
367.655
367.8
367.946
368.093
368.241
368.39
368.538
368.686
368.834
368.981
369.127
369.273
369.417
369.559
369.7
369.839
369.976
370.112
370.244
370.375
370.503
370.628
370.75
370.87
370.987
371.1
371.211
371.319
371.423
371.524
371.622
371.717
371.809
371.897
371.982
372.064
372.143
372.219
372.291
372.361
372.428
372.491
372.552
372.61
372.665
372.718
372.768
372.815
372.86
372.903
372.943
372.981
373.017
373.051
373.083
373.114
373.142
373.168
373.193
373.217
373.239
373.259
373.278
373.296
373.313
373.328
373.342
373.356
373.368
373.38
373.39
373.4
373.409
373.418
373.425
373.432
373.439
373.445
373.45
373.455
373.459
373.463
373.467
373.47
373.472
373.474
373.476
373.477
373.478
366.264
366.362
366.468
366.581
366.7
366.825
366.954
367.087
367.224
367.363
367.505
367.649
367.794
367.941
368.088
368.237
368.385
368.534
368.682
368.83
368.978
369.124
369.27
369.414
369.556
369.698
369.837
369.974
370.109
370.242
370.373
370.501
370.626
370.748
370.868
370.985
371.099
371.209
371.317
371.421
371.523
371.621
371.716
371.807
371.896
371.981
372.063
372.142
372.218
372.29
372.36
372.426
372.49
372.551
372.609
372.664
372.717
372.767
372.814
372.859
372.902
372.942
372.98
373.016
373.05
373.082
373.113
373.141
373.168
373.192
373.216
373.238
373.258
373.277
373.295
373.312
373.327
373.342
373.355
373.367
373.379
373.39
373.399
373.409
373.417
373.425
373.432
373.438
373.444
373.45
373.454
373.459
373.463
373.466
373.469
373.472
373.474
373.476
373.477
373.478
366.26
366.357
366.463
366.576
366.695
366.819
366.948
367.082
367.218
367.358
367.5
367.644
367.79
367.936
368.084
368.233
368.381
368.53
368.679
368.827
368.975
369.121
369.267
369.411
369.554
369.695
369.835
369.972
370.107
370.24
370.371
370.499
370.624
370.747
370.866
370.983
371.097
371.208
371.315
371.42
371.521
371.619
371.714
371.806
371.894
371.979
372.061
372.14
372.216
372.289
372.358
372.425
372.489
372.55
372.608
372.663
372.716
372.766
372.813
372.858
372.901
372.941
372.979
373.015
373.049
373.081
373.112
373.14
373.166
373.191
373.215
373.237
373.257
373.276
373.294
373.311
373.326
373.341
373.354
373.367
373.378
373.389
373.399
373.408
373.416
373.424
373.431
373.438
373.444
373.449
373.454
373.458
373.462
373.466
373.469
373.471
373.474
373.475
373.476
373.477
366.257
366.354
366.459
366.572
366.69
366.815
366.944
367.077
367.214
367.354
367.496
367.64
367.786
367.933
368.081
368.229
368.378
368.527
368.676
368.824
368.972
369.119
369.264
369.409
369.552
369.693
369.832
369.97
370.105
370.238
370.369
370.497
370.622
370.745
370.865
370.981
371.095
371.206
371.314
371.418
371.519
371.618
371.712
371.804
371.893
371.978
372.06
372.139
372.215
372.287
372.357
372.424
372.487
372.548
372.606
372.662
372.714
372.764
372.812
372.857
372.899
372.94
372.978
373.014
373.048
373.08
373.11
373.139
373.165
373.19
373.214
373.236
373.256
373.275
373.293
373.31
373.326
373.34
373.353
373.366
373.377
373.388
373.398
373.407
373.416
373.423
373.431
373.437
373.443
373.448
373.453
373.458
373.462
373.465
373.468
373.471
373.473
373.475
373.476
373.477
366.255
366.351
366.457
366.569
366.688
366.812
366.941
367.075
367.211
367.351
367.493
367.637
367.783
367.93
368.078
368.227
368.376
368.525
368.674
368.822
368.97
369.117
369.262
369.407
369.55
369.691
369.83
369.968
370.103
370.236
370.367
370.495
370.62
370.743
370.863
370.98
371.093
371.204
371.312
371.416
371.518
371.616
371.711
371.802
371.891
371.976
372.058
372.137
372.213
372.286
372.355
372.422
372.486
372.547
372.605
372.66
372.713
372.763
372.81
372.855
372.898
372.938
372.977
373.013
373.047
373.079
373.109
373.137
373.164
373.189
373.213
373.235
373.255
373.274
373.292
373.309
373.325
373.339
373.352
373.365
373.377
373.387
373.397
373.406
373.415
373.423
373.43
373.436
373.442
373.448
373.453
373.457
373.461
373.465
373.468
373.471
373.473
373.474
373.476
373.476
366.254
366.351
366.456
366.568
366.686
366.811
366.94
367.073
367.21
367.349
367.491
367.636
367.781
367.928
368.076
368.225
368.374
368.523
368.672
368.82
368.968
369.115
369.26
369.405
369.548
369.689
369.829
369.966
370.101
370.234
370.365
370.493
370.618
370.741
370.861
370.978
371.091
371.202
371.31
371.414
371.516
371.614
371.709
371.8
371.889
371.974
372.056
372.135
372.211
372.284
372.353
372.42
372.484
372.545
372.603
372.658
372.711
372.761
372.809
372.854
372.896
372.937
372.975
373.011
373.045
373.077
373.108
373.136
373.163
373.188
373.211
373.233
373.254
373.273
373.291
373.308
373.323
373.338
373.351
373.364
373.376
373.386
373.396
373.406
373.414
373.422
373.429
373.436
373.442
373.447
373.452
373.457
373.461
373.464
373.468
373.47
373.472
373.474
373.475
373.476
366.255
366.352
366.456
366.568
366.687
366.811
366.94
367.073
367.209
367.349
367.491
367.635
367.781
367.928
368.076
368.224
368.373
368.522
368.671
368.819
368.967
369.113
369.259
369.404
369.547
369.688
369.827
369.965
370.1
370.233
370.363
370.491
370.617
370.739
370.859
370.976
371.09
371.201
371.308
371.413
371.514
371.612
371.707
371.799
371.887
371.973
372.055
372.134
372.21
372.282
372.352
372.419
372.482
372.543
372.601
372.657
372.71
372.76
372.807
372.852
372.895
372.936
372.974
373.01
373.044
373.076
373.107
373.135
373.162
373.187
373.21
373.232
373.253
373.272
373.29
373.307
373.323
373.337
373.351
373.363
373.375
373.386
373.396
373.405
373.413
373.421
373.429
373.435
373.441
373.447
373.452
373.456
373.461
373.464
373.467
373.47
373.472
373.474
373.475
373.476
366.208
366.159
366.13
366.12
366.128
366.155
366.198
366.254
366.32
366.393
366.189
366.142
366.114
366.105
366.113
366.139
366.179
366.233
366.298
366.37
366.171
366.126
366.099
366.09
366.099
366.123
366.162
366.214
366.277
366.348
366.153
366.111
366.085
366.077
366.085
366.108
366.146
366.197
366.258
366.327
366.137
366.096
366.072
366.064
366.072
366.095
366.131
366.18
366.24
366.307
366.123
366.083
366.059
366.052
366.06
366.082
366.118
366.165
366.223
366.289
366.109
366.07
366.048
366.04
366.048
366.07
366.105
366.151
366.207
366.272
366.096
366.059
366.037
366.03
366.038
366.059
366.093
366.138
366.193
366.257
366.085
366.048
366.027
366.02
366.028
366.049
366.082
366.127
366.181
366.243
366.074
366.039
366.018
366.012
366.019
366.04
366.072
366.116
366.169
366.23
366.065
366.031
366.01
366.004
366.011
366.032
366.064
366.107
366.159
366.219
366.057
366.023
366.003
365.997
366.004
366.024
366.056
366.098
366.15
366.209
366.051
366.017
365.998
365.992
365.999
366.018
366.049
366.091
366.142
366.201
366.045
366.012
365.993
365.987
365.994
366.013
366.044
366.085
366.135
366.194
366.041
366.008
365.989
365.983
365.99
366.009
366.039
366.08
366.13
366.188
366.037
366.005
365.986
365.981
365.987
366.006
366.036
366.076
366.126
366.184
366.035
366.004
365.985
365.979
365.986
366.004
366.034
366.074
366.123
366.181
366.035
366.003
365.985
365.979
365.985
366.003
366.033
366.072
366.122
366.179
366.035
366.004
365.986
365.979
365.985
366.003
366.033
366.072
366.121
366.179
366.037
366.006
365.987
365.981
365.987
366.005
366.034
366.073
366.122
366.18
367.361
367.347
367.335
367.328
367.324
367.326
367.334
367.351
367.379
367.432
367.236
367.227
367.221
367.218
367.22
367.227
367.241
367.263
367.3
367.364
367.107
367.103
367.102
367.105
367.112
367.125
367.144
367.172
367.216
367.295
366.976
366.977
366.982
366.99
367.002
367.02
367.044
367.078
367.129
367.219
366.845
366.852
366.861
366.874
366.891
366.914
366.943
366.982
367.04
367.14
366.717
366.729
366.743
366.761
366.782
366.808
366.842
366.885
366.949
367.059
366.596
366.612
366.63
366.651
366.676
366.706
366.742
366.79
366.857
366.974
366.484
366.503
366.524
366.549
366.576
366.608
366.647
366.696
366.766
366.888
366.384
366.405
366.429
366.455
366.484
366.517
366.557
366.607
366.678
366.8
366.298
366.321
366.345
366.372
366.402
366.435
366.475
366.524
366.593
366.715
368.076
368.03
367.987
367.949
367.915
367.886
367.862
367.846
367.838
367.841
368.06
368.015
367.973
367.935
367.901
367.873
367.85
367.835
367.829
367.837
368.03
367.986
367.945
367.909
367.877
367.85
367.829
367.815
367.81
367.816
367.987
367.945
367.906
367.871
367.841
367.816
367.797
367.785
367.783
367.797
367.931
367.891
367.855
367.823
367.795
367.772
367.756
367.746
367.748
367.765
367.863
367.826
367.793
367.763
367.739
367.719
367.705
367.699
367.704
367.723
367.783
367.75
367.72
367.694
367.673
367.656
367.646
367.644
367.652
367.679
367.693
367.664
367.637
367.615
367.598
367.585
367.579
367.58
367.593
367.623
367.595
367.568
367.546
367.527
367.514
367.506
367.504
367.51
367.526
367.56
367.487
367.464
367.445
367.431
367.422
367.419
367.422
367.433
367.456
367.505
373
373
373
373
373
373
373.001
373.001
373.002
373.003
373.004
373.005
373.007
373.008
373.01
373.011
373.014
373.015
373.018
373.02
373.024
373.026
373.03
373.032
373.037
373.04
373.045
373.05
373.054
373.06
373.065
373.072
373.077
373.085
373.091
373.1
373.106
373.116
373.123
373.132
373.141
373.15
373.162
373.171
373.182
373.187
373.201
373.206
373.192
373.163
373.123
373.076
373.023
372.964
372.901
372.834
372.763
372.689
372.612
372.532
372.449
372.364
372.275
372.184
372.091
371.995
371.897
371.796
371.692
371.587
371.479
371.37
371.258
371.144
371.029
370.911
370.793
370.673
370.552
370.429
370.306
370.183
370.059
369.935
369.811
369.687
369.564
369.442
369.321
369.201
369.084
368.968
368.854
368.743
368.636
368.531
368.429
368.331
368.237
368.145
373
373
373
373
373
373
373
373.001
373.002
373.002
373.004
373.004
373.006
373.007
373.009
373.01
373.013
373.014
373.017
373.019
373.022
373.024