/*--------------------------------*- C++ -*----------------------------------*\
  =========                 |
  \\      /  F ield         | OpenFOAM: The Open Source CFD Toolbox
   \\    /   O peration     | Website:  https://openfoam.org
    \\  /    A nd           | Version:  8
     \\/     M anipulation  |
\*---------------------------------------------------------------------------*/
FoamFile
{
    version     2.0;
    format      ascii;
    class       volVectorField;
    location    "0.500023";
    object      U;
}
// * * * * * * * * * * * * * * * * * * * * * * * * * * * * * * * * * * * * * //

dimensions      [0 1 -1 0 0 0 0];

internalField   nonuniform List<vector> 
6800
(
(11.854 -9.13171 -2.4142e-15)
(10.7181 -7.5658 6.07069e-16)
(10.5175 -6.43189 4.38981e-16)
(10.5478 -5.6369 -3.55378e-16)
(10.6433 -5.04636 2.03035e-16)
(10.7596 -4.58856 2.35371e-16)
(10.8824 -4.22202 -3.29316e-16)
(11.0064 -3.92138 2.66302e-16)
(11.1288 -3.67206 -1.7179e-16)
(11.2272 -3.49663 3.04145e-17)
(13.2655 -8.81382 5.01371e-15)
(11.8673 -7.3555 -1.10038e-15)
(11.5085 -6.24628 -1.70403e-16)
(11.4232 -5.46712 2.77956e-16)
(11.4302 -4.8867 -2.1888e-16)
(11.4762 -4.43563 -4.48292e-18)
(11.5414 -4.07401 5.06306e-19)
(11.6166 -3.77774 -8.3303e-17)
(11.6939 -3.53504 1.30821e-17)
(11.7438 -3.36795 1.56796e-16)
(14.6299 -8.276 1.39822e-15)
(12.991 -6.96139 -2.35039e-16)
(12.4818 -5.8968 3.9529e-16)
(12.2862 -5.1475 -6.75733e-16)
(12.208 -4.58782 1.10508e-16)
(12.185 -4.15189 -2.86615e-16)
(12.1921 -3.80205 2.24225e-16)
(12.2164 -3.51571 -2.36118e-17)
(12.2479 -3.28192 2.30086e-16)
(12.2592 -3.12179 -3.27213e-16)
(15.923 -7.5322 3.09325e-15)
(14.068 -6.39097 -3.67269e-16)
(13.4182 -5.38812 -4.12202e-17)
(13.1195 -4.68064 9.50161e-17)
(12.9611 -4.15043 -2.3434e-16)
(12.8729 -3.73603 1.86164e-16)
(12.8249 -3.40235 -2.68097e-16)
(12.8013 -3.12824 3.44471e-16)
(12.7908 -2.90334 -2.16202e-16)
(12.7688 -2.74928 2.40946e-16)
(17.1239 -6.59899 6.89979e-18)
(15.0787 -5.65527 7.98971e-16)
(14.2993 -4.7291 1.83095e-16)
(13.9058 -4.07371 5.89074e-16)
(13.6739 -3.58063 -2.43338e-16)
(13.5259 -3.19348 6.31474e-17)
(13.4276 -2.88023 6.74804e-17)
(13.361 -2.62154 1.8203e-16)
(13.3135 -2.40797 -2.23588e-16)
(13.2639 -2.26087 8.71327e-17)
(18.2142 -5.4958 -2.05041e-15)
(16.0047 -4.76871 -4.29768e-16)
(15.1074 -3.93229 -1.22692e-17)
(14.6285 -3.33823 -2.20447e-16)
(14.3303 -2.88919 -2.15568e-17)
(14.1289 -2.53461 1.01856e-16)
(13.986 -2.24592 -1.18087e-16)
(13.8813 -2.00592 1.18967e-16)
(13.8017 -1.8063 -1.18721e-16)
(13.7285 -1.66651 -2.19244e-17)
(19.1766 -4.24265 3.28961e-16)
(16.8291 -3.74818 4.98753e-16)
(15.8258 -3.01399 1.97025e-16)
(15.2712 -2.48987 -1.93579e-16)
(14.915 -2.09145 -2.02247e-17)
(14.667 -1.77455 1.51561e-16)
(14.4856 -1.51445 -5.30469e-17)
(14.3484 -1.29642 7.13675e-17)
(14.2412 -1.11323 -1.29132e-16)
(14.1484 -0.9809 1.65253e-20)
(19.996 -2.86235 9.07404e-16)
(17.5354 -2.61352 -8.95103e-17)
(16.4389 -1.99365 -2.17967e-16)
(15.8191 -1.54802 -2.44443e-16)
(15.4136 -1.20674 3.17131e-16)
(15.1265 -0.932655 -1.77246e-16)
(14.9132 -0.705263 2.98307e-17)
(14.7493 -0.512508 -1.00226e-16)
(14.6198 -0.34828 -3.88891e-17)
(14.5114 -0.223892 -4.46373e-17)
(20.656 -1.37787 1.17567e-16)
(18.1087 -1.3866 6.90108e-17)
(16.9328 -0.893748 -1.8493e-16)
(16.2591 -0.535398 9.32068e-17)
(15.8136 -0.257899 5.63459e-17)
(15.4957 -0.031907 -6.22023e-17)
(15.2575 0.158534 2.45681e-17)
(15.0734 0.322528 3.59199e-17)
(14.9273 0.465072 3.22664e-17)
(14.8073 0.58034 3.36623e-17)
(21.1423 0.184969 -3.42176e-16)
(18.5351 -0.0919635 -3.89032e-17)
(17.2952 0.260635 -4.36508e-17)
(16.58 0.522691 2.81584e-17)
(16.1052 0.729517 -6.31408e-17)
(15.7652 0.902056 -9.43663e-18)
(15.5102 1.05108 -3.57892e-18)
(15.3127 1.18269 3.03649e-17)
(15.1563 1.30049 1.25061e-17)
(15.0293 1.40454 -5.0761e-17)
(1.80573 -0.79074 7.08425e-16)
(2.85814 -0.606951 -8.76117e-17)
(3.8781 -0.509596 -2.53044e-17)
(4.80023 -0.446255 2.84062e-17)
(5.56217 -0.399085 -4.52453e-18)
(6.20131 -0.362715 2.48779e-17)
(6.75001 -0.334069 7.07546e-18)
(7.22883 -0.311056 -9.97501e-18)
(7.65222 -0.292288 1.76842e-17)
(8.03283 -0.276678 -5.52564e-18)
(2.07291 -2.26671 -4.11442e-16)
(3.05062 -1.80022 1.54154e-16)
(4.03265 -1.51909 1.91503e-17)
(4.93085 -1.32805 6.96979e-17)
(5.67825 -1.18729 -2.03349e-17)
(6.30549 -1.07944 -4.80604e-18)
(6.8442 -0.994455 -4.03044e-17)
(7.31469 -0.926093 2.3855e-17)
(7.73114 -0.870291 6.74945e-18)
(8.10615 -0.823934 2.74821e-17)
(2.53803 -3.69139 -1.04411e-15)
(3.40974 -2.95362 -1.90738e-17)
(4.33146 -2.49497 1.94304e-16)
(5.18529 -2.17766 -2.10362e-16)
(5.90108 -1.94626 3.98431e-19)
(6.50389 -1.7699 -1.44562e-17)
(7.02283 -1.63091 9.50084e-17)
(7.47688 -1.51903 -5.06346e-17)
(7.8794 -1.42767 1.04112e-16)
(8.24323 -1.35169 -4.09035e-17)
(3.21269 -5.02589 -1.16987e-15)
(3.93047 -4.02976 3.95233e-16)
(4.76727 -3.40725 -3.7982e-16)
(5.55776 -2.97468 2.94157e-16)
(6.22686 -2.65933 4.78391e-17)
(6.79366 -2.41904 -1.75756e-17)
(7.28357 -2.22958 -5.5388e-17)
(7.71345 -2.07698 3.63465e-17)
(8.09553 -1.95231 2.58024e-17)
(8.44294 -1.84825 -1.02806e-16)
(4.08568 -6.22323 4.46306e-15)
(4.60223 -5.00159 9.68818e-18)
(5.33026 -4.23336 1.48411e-16)
(6.04009 -3.6988 -5.26789e-16)
(6.64924 -3.30842 2.18373e-16)
(7.1697 -3.01059 3.58791e-17)
(7.62222 -2.77555 2.71062e-17)
(8.02101 -2.5861 4.14173e-17)
(8.37668 -2.43119 9.86243e-18)
(8.70314 -2.30102 1.8017e-16)
(5.13191 -7.24901 3.19248e-15)
(5.40958 -5.84539 3.35317e-16)
(6.00786 -4.95313 1.67246e-16)
(6.62224 -4.33175 -4.52042e-16)
(7.16013 -3.87703 3.36249e-16)
(7.62532 -3.52955 -2.08296e-16)
(8.03321 -3.255 -3.04751e-16)
(8.3948 -3.0335 7.3095e-17)
(8.71901 -2.85206 -1.84122e-16)
(9.02064 -2.69796 6.83492e-17)
(6.3225 -8.078 2.48895e-15)
(6.33256 -6.54032 5.87317e-16)
(6.78474 -5.54841 -4.60413e-16)
(7.29194 -4.8571 8.60445e-16)
(7.74951 -4.35009 1.4794e-16)
(8.1521 -3.96198 -3.85808e-16)
(8.50928 -3.65502 2.12532e-16)
(8.82865 -3.40717 -3.12096e-17)
(9.11711 -3.20366 1.22297e-16)
(9.39102 -3.02788 5.89413e-17)
(7.62363 -8.68979 -3.84021e-15)
(7.3491 -7.06987 -2.05025e-15)
(7.64335 -6.00406 4.42094e-16)
(8.03506 -5.26062 3.61313e-17)
(8.4056 -4.71416 -2.11398e-16)
(8.73993 -4.29517 -1.66753e-16)
(9.04154 -3.96369 2.44524e-17)
(9.31446 -3.69624 -9.24239e-17)
(9.5639 -3.47617 -9.30826e-17)
(9.80764 -3.28168 2.70089e-16)
(9.00166 -9.07246 3.83304e-15)
(8.43506 -7.42172 6.55361e-16)
(8.56468 -6.30816 2.71917e-16)
(8.83608 -5.53056 -9.77966e-17)
(9.11532 -4.95747 2.40395e-18)
(9.37735 -4.51734 1.50727e-16)
(9.61937 -4.16926 3.14372e-16)
(9.84191 -3.88919 -1.81078e-16)
(10.0484 -3.6589 -1.83571e-16)
(10.2579 -3.45105 1.9365e-16)
(10.4225 -9.21974 -2.46003e-15)
(9.56595 -7.58806 -4.4184e-17)
(9.52921 -6.45233 -4.57077e-16)
(9.67892 -5.65773 -1.03095e-17)
(9.86521 -5.07012 4.53772e-17)
(10.0528 -4.61716 -2.77449e-17)
(10.2324 -4.25794 -1.71368e-17)
(10.4004 -3.96819 -1.48625e-16)
(10.5573 -3.73087 -2.00989e-16)
(10.7154 -3.52766 5.70825e-17)
(8.50393 -0.246187 2.91709e-18)
(9.02108 -0.21162 3.94522e-19)
(9.47243 -0.185436 -3.29146e-18)
(9.873 -0.165185 2.13387e-18)
(10.2337 -0.14918 8.41691e-19)
(10.5626 -0.136279 -3.62056e-18)
(10.8656 -0.125697 -1.75013e-18)
(11.1471 -0.11688 2.51256e-18)
(11.4107 -0.109431 -1.48346e-18)
(11.659 -0.103056 -4.29274e-19)
(11.8942 -0.0975409 1.43933e-18)
(12.1179 -0.0927205 -5.71387e-19)
(12.3316 -0.0884702 3.45497e-18)
(12.5365 -0.0846934 -1.74282e-18)
(12.7334 -0.0813151 -3.93805e-18)
(12.9233 -0.0782758 5.15592e-18)
(13.1068 -0.0755281 -2.17403e-18)
(13.2844 -0.0730337 -1.13324e-18)
(13.4568 -0.0707615 1.15376e-18)
(13.6244 -0.0686857 -2.68787e-19)
(13.7876 -0.0667848 -2.76667e-19)
(13.9468 -0.0650406 7.83963e-19)
(14.1022 -0.0634378 -1.31755e-18)
(14.2542 -0.061963 3.50254e-18)
(14.4031 -0.0606043 1.73032e-19)
(14.549 -0.0593515 -3.70747e-18)
(14.6923 -0.0581954 2.70793e-18)
(14.8331 -0.0571276 6.01553e-19)
(14.9715 -0.0561407 -1.27112e-20)
(15.1079 -0.0552277 -2.06446e-18)
(15.2422 -0.0543823 1.2553e-18)
(15.3747 -0.0535987 -2.04561e-18)
(15.5055 -0.0528715 1.85619e-18)
(15.6347 -0.0521954 -2.43872e-18)
(15.7624 -0.0515658 3.54961e-18)
(15.8887 -0.0509784 -2.20419e-18)
(16.0137 -0.0504288 -9.60367e-19)
(16.1375 -0.0499133 3.12648e-18)
(16.2601 -0.049428 -7.73002e-19)
(16.3816 -0.0489695 -6.29069e-20)
(16.502 -0.0485346 -1.52065e-18)
(16.6214 -0.0481201 5.57344e-19)
(16.7399 -0.0477231 -2.97188e-19)
(16.8575 -0.0473407 -1.58565e-19)
(16.9742 -0.0469705 1.90887e-18)
(17.0899 -0.0466098 -8.22122e-19)
(17.2049 -0.0462564 1.29842e-18)
(17.319 -0.0459079 -2.24772e-18)
(17.4322 -0.0455623 3.39243e-19)
(17.5446 -0.0452175 2.59983e-19)
(17.6562 -0.0448716 -1.49687e-20)
(17.7669 -0.0445227 -5.67447e-19)
(17.8768 -0.0441692 6.73939e-19)
(17.9858 -0.0438093 2.83823e-19)
(18.0939 -0.0434414 -1.43607e-19)
(18.2011 -0.0430641 -5.7901e-19)
(18.3074 -0.0426759 1.14332e-19)
(18.4127 -0.0422754 -5.99973e-19)
(18.5171 -0.0418614 3.78495e-19)
(18.6204 -0.0414328 9.23475e-19)
(18.7226 -0.0409882 -8.4377e-19)
(18.8237 -0.0405268 3.05535e-20)
(18.9237 -0.0400476 -2.99559e-19)
(19.0225 -0.0395496 8.78936e-20)
(19.1201 -0.0390322 5.43496e-19)
(19.2163 -0.0384947 5.13711e-19)
(19.3113 -0.0379364 -1.29557e-18)
(19.4048 -0.0373571 3.85659e-19)
(19.4969 -0.0367564 9.84482e-20)
(19.5875 -0.0361341 -3.3125e-19)
(19.6766 -0.0354903 -6.19214e-19)
(19.7641 -0.0348251 1.31542e-18)
(19.8499 -0.0341388 -3.85245e-19)
(19.934 -0.0334322 2.92647e-19)
(20.0163 -0.0327059 -2.65503e-19)
(20.0968 -0.0319609 -4.14256e-19)
(20.1755 -0.0311987 1.19994e-19)
(20.2523 -0.0304206 4.15742e-19)
(20.3271 -0.0296287 -6.22932e-19)
(20.4 -0.028825 7.78126e-19)
(20.4709 -0.0280122 2.22885e-20)
(20.5397 -0.0271929 -1.24428e-19)
(20.6066 -0.0263705 -2.96865e-19)
(20.6713 -0.0255485 4.55965e-19)
(20.7341 -0.0247307 -3.80313e-19)
(20.7948 -0.0239215 3.2748e-19)
(20.8535 -0.0231253 -4.78947e-19)
(20.9103 -0.022347 -5.77575e-20)
(20.9651 -0.0215917 3.16092e-19)
(21.0181 -0.0208646 2.01189e-20)
(21.0693 -0.0201713 -1.17155e-19)
(21.1188 -0.019517 -5.02762e-21)
(21.1667 -0.0189073 -1.84518e-20)
(21.2131 -0.0183474 -4.29383e-20)
(21.2582 -0.0178435 2.4147e-20)
(21.3021 -0.0173981 -1.51766e-20)
(21.345 -0.0170035 5.64609e-20)
(21.3866 -0.0167368 3.92932e-20)
(21.4276 -0.0166688 -7.25231e-21)
(21.4808 -0.0150193 1.25849e-20)
(8.56257 -0.73396 -1.13728e-17)
(9.06321 -0.631895 -6.66163e-18)
(9.5038 -0.554179 -2.45366e-17)
(9.89661 -0.493963 1.77356e-17)
(10.2517 -0.446297 -2.36453e-17)
(10.5763 -0.407827 1.65652e-17)
(10.8761 -0.376238 -1.06609e-17)
(11.1551 -0.349898 -7.44784e-18)
(11.4168 -0.327628 1.60248e-17)
(11.6635 -0.308563 5.38233e-18)
(11.8974 -0.292059 2.8935e-18)
(12.1201 -0.27763 -1.08401e-17)
(12.3329 -0.264903 3.87379e-18)
(12.537 -0.253591 -4.26795e-18)
(12.7333 -0.24347 -1.08609e-17)
(12.9226 -0.234363 2.47536e-17)
(13.1055 -0.226128 1.68627e-18)
(13.2828 -0.218651 -1.56627e-18)
(13.4547 -0.211838 -5.04068e-18)
(13.622 -0.205613 -1.56648e-18)
(13.7848 -0.199912 -1.04287e-17)
(13.9436 -0.194681 1.01042e-17)
(14.0987 -0.189873 -1.27055e-17)
(14.2504 -0.185448 2.41759e-17)
(14.399 -0.181371 -1.12989e-17)
(14.5446 -0.177611 3.27577e-18)
(14.6876 -0.174142 -4.07465e-18)
(14.8281 -0.170937 4.52073e-18)
(14.9662 -0.167975 4.14717e-18)
(15.1023 -0.165234 -9.56475e-19)
(15.2363 -0.162697 -8.4424e-18)
(15.3685 -0.160344 -1.19581e-18)
(15.499 -0.158161 4.09421e-18)
(15.6279 -0.156132 1.54448e-18)
(15.7553 -0.154242 -9.01435e-18)
(15.8813 -0.152479 7.52663e-18)
(16.006 -0.150829 2.05377e-18)
(16.1294 -0.149282 -3.1392e-18)
(16.2517 -0.147826 1.45119e-18)
(16.3729 -0.14645 -2.30471e-18)
(16.493 -0.145145 -2.27164e-18)
(16.6121 -0.143902 7.37209e-18)
(16.7303 -0.142711 -3.82682e-18)
(16.8475 -0.141565 1.37351e-18)
(16.9639 -0.140455 -8.06056e-18)
(17.0793 -0.139374 6.0517e-18)
(17.1939 -0.138315 2.43669e-18)
(17.3077 -0.137272 -5.37885e-18)
(17.4206 -0.136237 -3.39294e-18)
(17.5326 -0.135204 2.9381e-18)
(17.6439 -0.134169 1.86143e-18)
(17.7542 -0.133125 1.19496e-20)
(17.8638 -0.132067 5.74457e-18)
(17.9724 -0.13099 -7.89529e-18)
(18.0802 -0.129889 5.38585e-18)
(18.1871 -0.128761 -4.1187e-18)
(18.293 -0.127599 -2.04743e-18)
(18.3979 -0.126402 8.97634e-18)
(18.5019 -0.125164 -1.53512e-18)
(18.6049 -0.123882 -2.47784e-18)
(18.7067 -0.122553 2.19495e-18)
(18.8075 -0.121173 -2.99589e-18)
(18.9071 -0.11974 -2.25916e-18)
(19.0056 -0.118251 2.12494e-18)
(19.1028 -0.116704 -1.13526e-18)
(19.1987 -0.115097 -2.55237e-18)
(19.2932 -0.113428 4.82642e-18)
(19.3864 -0.111696 -8.84234e-19)
(19.4782 -0.109899 -1.56437e-18)
(19.5684 -0.108038 -2.18621e-18)
(19.6572 -0.106113 2.99596e-19)
(19.7443 -0.104124 1.99617e-18)
(19.8297 -0.102071 1.70521e-18)
(19.9135 -0.0999579 8.26377e-19)
(19.9955 -0.0977855 -2.35802e-19)
(20.0757 -0.0955572 -3.64543e-18)
(20.154 -0.093277 2.94404e-18)
(20.2305 -0.0909496 2.12372e-18)
(20.305 -0.0885803 -1.85105e-18)
(20.3775 -0.0861759 -2.70267e-18)
(20.4481 -0.0837438 1.15991e-19)
(20.5166 -0.0812924 9.22015e-19)
(20.5831 -0.0788314 -4.56641e-19)
(20.6476 -0.0763713 6.58772e-20)
(20.71 -0.0739239 -1.09561e-19)
(20.7704 -0.0715018 1.15205e-19)
(20.8288 -0.0691187 -1.07037e-18)
(20.8853 -0.066789 2.4697e-18)
(20.9398 -0.0645281 -1.10035e-18)
(20.9925 -0.0623517 -8.60989e-19)
(21.0434 -0.0602761 4.92883e-19)
(21.0926 -0.0583176 2.74057e-19)
(21.1402 -0.0564924 2.14145e-19)
(21.1864 -0.0548164 -2.87278e-19)
(21.2312 -0.053306 1.65077e-19)
(21.2748 -0.0519712 -1.03702e-18)
(21.3173 -0.0508034 4.43949e-19)
(21.3585 -0.0499122 -1.49604e-19)
(21.4002 -0.0493639 2.99391e-20)
(21.4519 -0.0465601 -2.65467e-19)
(8.67088 -1.20684 -9.91954e-17)
(9.13898 -1.04251 1.90774e-17)
(9.55836 -0.916141 3.31186e-17)
(9.93586 -0.8178 3.00837e-17)
(10.2798 -0.739677 -2.076e-17)
(10.5962 -0.676442 -5.6089e-17)
(10.8898 -0.624399 5.56676e-17)
(11.1641 -0.580925 9.09702e-18)
(11.4221 -0.544114 -1.57509e-17)
(11.6659 -0.512564 -7.71974e-18)
(11.8975 -0.485226 8.89817e-18)
(12.1184 -0.461304 3.66465e-17)
(12.3297 -0.44019 -1.38018e-17)
(12.5326 -0.421412 -2.83077e-17)
(12.7279 -0.404602 3.79145e-17)
(12.9164 -0.389468 -1.66009e-17)
(13.0987 -0.375779 -1.2877e-17)
(13.2753 -0.363344 4.31251e-18)
(13.4468 -0.352011 -6.51251e-18)
(13.6135 -0.341653 1.50028e-17)
(13.776 -0.332164 -2.14381e-17)
(13.9344 -0.323455 2.08388e-18)
(14.0892 -0.315448 -7.87023e-18)
(14.2406 -0.308079 1.73318e-17)
(14.3889 -0.301289 -4.09863e-18)
(14.5343 -0.295026 1.23371e-17)
(14.677 -0.289246 -4.54534e-18)
(14.8173 -0.283907 -1.15927e-17)
(14.9553 -0.278972 -5.65705e-18)
(15.0911 -0.274407 -8.71491e-19)
(15.2249 -0.270179 5.83082e-18)
(15.3569 -0.26626 8.14687e-18)
(15.4872 -0.262624 -1.40434e-17)
(15.6159 -0.259244 1.00649e-17)
(15.7431 -0.256098 3.91283e-18)
(15.8689 -0.253162 -7.69466e-18)
(15.9934 -0.250417 1.59872e-17)
(16.1166 -0.247842 -1.39388e-17)
(16.2387 -0.24542 2.57877e-18)
(16.3597 -0.243133 -5.17188e-18)
(16.4796 -0.240964 2.43831e-18)
(16.5985 -0.238898 -2.33881e-18)
(16.7165 -0.23692 3.68053e-18)
(16.8335 -0.235017 1.66124e-18)
(16.9496 -0.233176 -3.05762e-18)
(17.0649 -0.231383 9.22117e-18)
(17.1792 -0.229627 -5.75954e-18)
(17.2928 -0.227897 -5.73214e-18)
(17.4055 -0.226181 8.73785e-18)
(17.5173 -0.224471 -9.4696e-18)
(17.6283 -0.222756 -1.55635e-19)
(17.7384 -0.221028 1.64097e-17)
(17.8477 -0.219276 -2.14887e-17)
(17.9562 -0.217494 1.76482e-17)
(18.0637 -0.215672 -1.19078e-17)
(18.1703 -0.213804 1.62913e-18)
(18.276 -0.211882 7.587e-18)
(18.3807 -0.2099 -4.01039e-18)
(18.4845 -0.207851 -1.90384e-18)
(18.5872 -0.205728 2.7388e-18)
(18.6888 -0.203528 -8.98288e-20)
(18.7894 -0.201243 -2.27044e-18)
(18.8887 -0.19887 -2.63122e-18)
(18.9869 -0.196404 3.29111e-19)
(19.0839 -0.193841 3.19192e-18)
(19.1796 -0.191177 -1.60708e-18)
(19.2739 -0.188411 4.24212e-18)
(19.3669 -0.185539 -2.13276e-18)
(19.4584 -0.182561 -2.48163e-19)
(19.5484 -0.179475 -5.20064e-18)
(19.6369 -0.176282 4.85526e-18)
(19.7238 -0.172981 2.52903e-18)
(19.809 -0.169575 6.36681e-19)
(19.8925 -0.166068 -3.38983e-18)
(19.9743 -0.162461 2.67463e-18)
(20.0542 -0.158761 -9.93313e-19)
(20.1323 -0.154974 -2.29454e-19)
(20.2086 -0.151108 -3.69402e-18)
(20.2828 -0.147171 2.91223e-18)
(20.3552 -0.143175 8.42202e-19)
(20.4255 -0.139132 -2.75693e-18)
(20.4938 -0.135056 9.77543e-19)
(20.56 -0.130963 9.60415e-19)
(20.6243 -0.126871 -2.07288e-18)
(20.6865 -0.122799 -4.05499e-20)
(20.7466 -0.118768 3.80766e-18)
(20.8048 -0.114801 7.91003e-19)
(20.861 -0.110923 -7.87732e-19)
(20.9152 -0.107158 -2.07176e-18)
(20.9676 -0.103534 -2.86551e-19)
(21.0183 -0.100077 -8.29309e-19)
(21.0672 -0.0968158 4.02529e-19)
(21.1145 -0.0937761 1.52297e-18)
(21.1604 -0.090985 -6.11335e-19)
(21.2049 -0.0884677 5.23943e-19)
(21.2482 -0.0862439 -8.63276e-19)
(21.2905 -0.0843179 8.83992e-19)
(21.3312 -0.082731 -3.61348e-19)
(21.3732 -0.0814818 -1.60858e-19)
(21.4243 -0.0795742 2.03342e-19)
(8.82866 -1.65565 4.2406e-17)
(9.24869 -1.43747 -9.81146e-18)
(9.63661 -1.26716 7.1522e-17)
(9.99129 -1.13369 -5.44797e-17)
(10.3186 -1.02708 4.18129e-17)
(10.6228 -0.940391 1.72639e-17)
(10.9071 -0.8688 3.68835e-18)
(11.1744 -0.808832 5.26853e-18)
(11.4269 -0.757943 -1.13375e-17)
(11.6666 -0.714249 -1.26059e-17)
(11.8948 -0.67633 -3.27184e-17)
(12.1131 -0.643109 4.11043e-17)
(12.3223 -0.613756 -4.12498e-17)
(12.5236 -0.587628 2.77146e-17)
(12.7175 -0.564219 -1.25849e-17)
(12.9049 -0.543129 -3.28667e-18)
(13.0862 -0.52404 1.36871e-17)
(13.2621 -0.506693 -2.95053e-18)
(13.433 -0.490875 -5.15629e-18)
(13.5992 -0.476411 -9.69305e-18)
(13.7613 -0.463157 2.6429e-17)
(13.9194 -0.450988 -6.27582e-18)
(14.0739 -0.439798 1.67372e-18)
(14.225 -0.429496 1.64988e-17)
(14.3731 -0.420002 -4.36248e-17)
(14.5183 -0.411246 3.09878e-17)
(14.6608 -0.403163 -3.40189e-17)
(14.8009 -0.395696 4.68756e-17)
(14.9388 -0.388795 -2.61868e-17)
(15.0745 -0.38241 1.70732e-17)
(15.2082 -0.376499 1.32001e-17)
(15.3401 -0.371021 -3.62994e-17)
(15.4703 -0.365939 9.16697e-18)
(15.5989 -0.361216 -6.03682e-18)
(15.726 -0.35682 1.1792e-17)
(15.8517 -0.352721 -1.35939e-18)
(15.9761 -0.348889 -2.39929e-17)
(16.0992 -0.345297 2.10125e-17)
(16.2212 -0.341919 -2.81387e-18)
(16.3421 -0.338731 3.18273e-18)
(16.4619 -0.33571 4.70386e-18)
(16.5807 -0.332834 4.04989e-18)
(16.6986 -0.330082 4.37589e-19)
(16.8155 -0.327436 -9.70424e-18)
(16.9315 -0.324877 2.73537e-19)
(17.0467 -0.322387 -1.33806e-18)
(17.1609 -0.31995 -4.12558e-18)
(17.2744 -0.317549 1.81245e-17)
(17.3869 -0.315171 -7.58842e-18)
(17.4987 -0.312801 2.7264e-18)
(17.6096 -0.310424 3.67158e-18)
(17.7196 -0.308029 -5.56947e-18)
(17.8288 -0.305603 -6.39007e-18)
(17.9371 -0.303134 1.35038e-17)
(18.0445 -0.300611 -1.28071e-17)
(18.1511 -0.298024 -1.25093e-18)
(18.2566 -0.295362 1.34521e-17)
(18.3612 -0.292616 -8.87388e-18)
(18.4649 -0.289777 3.05325e-18)
(18.5674 -0.286836 1.7065e-18)
(18.669 -0.283785 -6.66185e-18)
(18.7694 -0.280617 8.62895e-18)
(18.8687 -0.277325 -2.9439e-18)
(18.9667 -0.273904 -8.26083e-18)
(19.0636 -0.270346 4.66999e-18)
(19.1591 -0.266649 -6.19853e-19)
(19.2534 -0.262807 1.01214e-17)
(19.3462 -0.258817 -1.73908e-17)
(19.4376 -0.254678 1.56717e-17)
(19.5275 -0.250387 -7.37657e-19)
(19.6158 -0.245946 -6.26668e-18)
(19.7026 -0.241354 8.41125e-18)
(19.7877 -0.236614 -5.63139e-18)
(19.8711 -0.231729 2.77228e-18)
(19.9527 -0.226706 -4.76401e-18)
(20.0326 -0.221551 -7.35204e-19)
(20.1106 -0.216272 2.6862e-18)
(20.1866 -0.21088 -1.00595e-18)
(20.2608 -0.205389 -3.38853e-18)
(20.3329 -0.199813 3.28194e-18)
(20.4031 -0.194169 4.81729e-18)
(20.4713 -0.188477 -8.35451e-19)
(20.5374 -0.18276 2.84005e-18)
(20.6014 -0.177041 -3.48728e-18)
(20.6634 -0.171348 -2.5212e-18)
(20.7234 -0.165712 -9.29711e-19)
(20.7813 -0.160163 2.14643e-19)
(20.8373 -0.154736 1.43379e-18)
(20.8913 -0.149467 2.60021e-18)
(20.9435 -0.144394 -5.31929e-18)
(20.9939 -0.139555 3.99404e-18)
(21.0426 -0.134988 -2.09129e-18)
(21.0896 -0.130733 4.33497e-19)
(21.1352 -0.126826 1.7297e-18)
(21.1794 -0.123304 -1.56185e-19)
(21.2225 -0.120196 -1.44048e-18)
(21.2644 -0.117523 1.11825e-18)
(21.3049 -0.115305 -4.61626e-19)
(21.3468 -0.113544 -3.19095e-20)
(21.3976 -0.112025 -1.93069e-19)
(9.03521 -2.07027 -1.63957e-16)
(9.39257 -1.80996 -6.11974e-17)
(9.7392 -1.60247 7.73864e-17)
(10.0637 -1.43818 -1.85512e-17)
(10.3689 -1.30592 -1.90664e-17)
(10.6566 -1.19771 4.45459e-17)
(10.9286 -1.1079 -4.30909e-17)
(11.1864 -1.03237 -1.77534e-17)
(11.4317 -0.968087 1.66514e-17)
(11.6657 -0.912748 1.68576e-17)
(11.8896 -0.864624 -3.38231e-17)
(12.1044 -0.822389 5.03372e-17)
(12.3109 -0.785016 -3.62638e-17)
(12.51 -0.751706 4.90367e-17)
(12.7022 -0.721831 -3.65707e-17)
(12.8882 -0.694891 -2.43461e-17)
(13.0684 -0.670485 1.24288e-17)
(13.2434 -0.64829 3.10349e-17)
(13.4136 -0.628039 1.22118e-17)
(13.5793 -0.609513 -2.74535e-17)
(13.7408 -0.592527 2.46742e-17)
(13.8986 -0.576925 7.74265e-19)
(14.0528 -0.562574 -1.73208e-18)
(14.2037 -0.549359 -1.7495e-17)
(14.3516 -0.537178 1.57873e-17)
(14.4966 -0.525941 -3.61361e-18)
(14.6391 -0.515568 -3.63344e-17)
(14.7791 -0.505985 2.22013e-17)
(14.9169 -0.497128 4.16909e-18)
(15.0525 -0.488936 1.02064e-17)
(15.1862 -0.481352 -3.81628e-17)
(15.3181 -0.474325 2.53417e-18)
(15.4483 -0.467807 3.31935e-17)
(15.5769 -0.461753 -1.79086e-18)
(15.704 -0.456121 -2.61206e-17)
(15.8297 -0.450871 -7.37123e-18)
(15.9541 -0.445966 3.67471e-17)
(16.0773 -0.441372 -9.82102e-18)
(16.1993 -0.437054 -1.03033e-17)
(16.3202 -0.432982 9.65073e-18)
(16.44 -0.429126 8.31742e-18)
(16.5588 -0.425458 1.34275e-17)
(16.6767 -0.421952 -3.71203e-17)
(16.7936 -0.418583 2.41677e-17)
(16.9097 -0.415328 3.11251e-18)
(17.0248 -0.412162 -1.88258e-17)
(17.1391 -0.409067 6.53342e-19)
(17.2526 -0.40602 -3.83296e-18)
(17.3651 -0.403003 1.39832e-17)
(17.4769 -0.399997 8.8852e-18)
(17.5878 -0.396985 -5.22933e-18)
(17.6978 -0.39395 -7.23246e-18)
(17.807 -0.390876 -3.45778e-19)
(17.9154 -0.387749 3.24938e-18)
(18.0228 -0.384553 -2.62652e-18)
(18.1293 -0.381275 1.0269e-18)
(18.2349 -0.377902 -6.56909e-18)
(18.3395 -0.374421 1.36369e-17)
(18.4431 -0.370821 -1.13442e-17)
(18.5457 -0.367091 1.3835e-17)
(18.6472 -0.363221 -1.98814e-17)
(18.7477 -0.3592 3.04178e-18)
(18.8469 -0.35502 6.87553e-18)
(18.945 -0.350673 -1.22672e-18)
(19.0418 -0.346151 5.44906e-18)
(19.1374 -0.341449 -1.42544e-17)
(19.2316 -0.33656 8.83893e-18)
(19.3245 -0.331482 -6.3277e-18)
(19.4158 -0.32621 -2.93316e-18)
(19.5057 -0.320742 1.91543e-17)
(19.5941 -0.31508 -1.57997e-17)
(19.6808 -0.309222 7.42228e-18)
(19.7659 -0.303172 -3.43017e-18)
(19.8493 -0.296936 9.00942e-20)
(19.9309 -0.290518 8.05107e-18)
(20.0107 -0.283928 -5.5201e-18)
(20.0887 -0.277177 -2.5518e-18)
(20.1647 -0.270278 2.23873e-18)
(20.2388 -0.263248 4.7028e-18)
(20.3109 -0.256105 -4.14623e-18)
(20.381 -0.248872 -3.97039e-18)
(20.4491 -0.241574 8.6941e-18)
(20.5151 -0.234239 -6.07188e-18)
(20.5791 -0.226899 1.15755e-18)
(20.6409 -0.219589 -2.64202e-18)
(20.7008 -0.212347 2.28105e-18)
(20.7586 -0.205215 2.74461e-18)
(20.8144 -0.198237 -1.01956e-18)
(20.8682 -0.191459 1.61731e-18)
(20.9202 -0.184931 3.6924e-18)
(20.9703 -0.178703 -3.90171e-18)
(21.0187 -0.172826 5.0613e-18)
(21.0655 -0.16735 -4.11083e-18)
(21.1108 -0.162326 2.15052e-18)
(21.1548 -0.157799 1.43591e-18)
(21.1975 -0.153815 -4.57196e-19)
(21.2392 -0.150409 5.55156e-19)
(21.2794 -0.147616 -8.30119e-19)
(21.3211 -0.14544 9.89372e-19)
(21.3716 -0.14399 5.4584e-19)
(9.28939 -2.44052 1.94922e-17)
(9.57087 -2.15273 -5.91901e-17)
(9.86687 -1.91701 -1.58079e-17)
(10.154 -1.72759 1.4414e-16)
(10.4315 -1.57346 4.76908e-20)
(10.6985 -1.44629 -5.87162e-17)
(10.9549 -1.34004 2.95274e-17)
(11.2009 -1.25023 -3.24933e-17)
(11.437 -1.17347 7.70145e-18)
(11.6639 -1.10716 5.46282e-17)
(11.8823 -1.04934 -1.02862e-17)
(12.0927 -0.998469 -1.22302e-16)
(12.2958 -0.953371 3.68459e-17)
(12.4922 -0.913109 8.13794e-17)
(12.6823 -0.876945 -1.40113e-18)
(12.8666 -0.844295 -4.05474e-17)
(13.0455 -0.814684 -2.8768e-17)
(13.2195 -0.78773 -4.87982e-18)
(13.3888 -0.763117 1.57496e-17)
(13.5538 -0.740584 3.15215e-18)
(13.7149 -0.719912 2.57008e-17)
(13.8722 -0.700915 -3.01514e-18)
(14.0262 -0.683435 -3.08881e-17)
(14.1769 -0.667332 7.7402e-18)
(14.3246 -0.652485 -7.17079e-18)
(14.4696 -0.638786 3.79942e-18)
(14.612 -0.62614 -3.16932e-18)
(14.752 -0.614457 -8.21192e-18)
(14.8898 -0.60366 2.66834e-17)
(15.0254 -0.593673 -2.23041e-17)
(15.1592 -0.584431 1.95538e-17)
(15.2911 -0.575871 3.12348e-18)
(15.4214 -0.567933 1.14527e-17)
(15.5501 -0.560563 -1.55317e-17)
(15.6773 -0.553711 -5.60184e-18)
(15.8031 -0.547328 -1.16431e-17)
(15.9276 -0.541369 2.15812e-17)
(16.0509 -0.535791 -1.90154e-17)
(16.173 -0.530554 -7.77492e-18)
(16.2941 -0.52562 1.78591e-17)
(16.414 -0.520952 5.20931e-18)
(16.533 -0.516517 4.3729e-18)
(16.651 -0.512282 -1.68489e-18)
(16.768 -0.508216 -1.38505e-18)
(16.8842 -0.504292 -9.91595e-18)
(16.9995 -0.50048 -2.1754e-17)
(17.1139 -0.496755 4.08441e-17)
(17.2274 -0.493092 -2.78605e-17)
(17.3402 -0.489468 -1.2318e-17)
(17.452 -0.485859 2.07472e-17)
(17.5631 -0.482244 -1.36085e-17)
(17.6732 -0.478603 1.64229e-17)
(17.7825 -0.474917 -1.49471e-18)
(17.891 -0.471166 5.22025e-19)
(17.9985 -0.467333 -1.4161e-17)
(18.1052 -0.463401 3.2477e-18)
(18.2109 -0.459354 -6.79802e-18)
(18.3156 -0.455176 4.47323e-18)
(18.4193 -0.450854 2.77803e-18)
(18.522 -0.446372 -4.33757e-18)
(18.6237 -0.44172 7.07355e-18)
(18.7242 -0.436884 -1.29401e-18)
(18.8236 -0.431854 9.74268e-18)
(18.9218 -0.42662 3.06835e-18)
(19.0188 -0.421172 8.20611e-20)
(19.1144 -0.415503 -3.0775e-19)
(19.2088 -0.409605 -9.41543e-18)
(19.3017 -0.403474 2.10706e-18)
(19.3932 -0.397105 -9.6652e-19)
(19.4832 -0.390495 -4.19944e-18)
(19.5716 -0.383645 -3.17176e-18)
(19.6585 -0.376554 5.4476e-18)
(19.7437 -0.369226 -8.65324e-18)
(19.8271 -0.361666 -1.7436e-18)
(19.9088 -0.353882 9.51817e-18)
(19.9887 -0.345883 -7.55983e-19)
(20.0667 -0.337683 -6.77679e-18)
(20.1428 -0.329299 -6.73519e-18)
(20.217 -0.320748 1.68606e-17)
(20.2891 -0.312056 -5.24802e-18)
(20.3592 -0.303247 -9.99845e-20)
(20.4273 -0.294353 -1.01081e-18)
(20.4933 -0.285408 -2.75011e-18)
(20.5572 -0.276452 3.9524e-18)
(20.6191 -0.267526 -4.88488e-18)
(20.6788 -0.258678 4.91061e-18)
(20.7365 -0.24996 -6.7488e-19)
(20.7922 -0.241424 4.04226e-18)
(20.8459 -0.233131 -7.2864e-18)
(20.8976 -0.225139 4.46839e-20)
(20.9476 -0.217513 4.46575e-19)
(20.9958 -0.210315 -6.42804e-19)
(21.0423 -0.203611 -1.09897e-18)
(21.0873 -0.197462 -2.06906e-18)
(21.131 -0.19193 2.42795e-18)
(21.1734 -0.187073 -2.55117e-19)
(21.2148 -0.182947 7.23512e-19)
(21.2547 -0.179605 -1.50397e-18)
(21.2961 -0.177064 -6.17481e-19)
(21.3463 -0.175561 6.18432e-20)
(9.58924 -2.7564 -3.11743e-17)
(9.78378 -2.45762 7.81022e-18)
(10.0203 -2.20489 -1.1079e-16)
(10.2635 -1.99762 4.81652e-17)
(10.5077 -1.82644 7.73334e-17)
(10.7498 -1.68363 3.92588e-17)
(10.9871 -1.56327 -9.21463e-18)
(11.2186 -1.46083 -1.37402e-16)
(11.4435 -1.37278 2.91706e-18)
(11.6617 -1.2964 8.12977e-17)
(11.8734 -1.22954 -3.94001e-18)
(12.0785 -1.17055 -2.20778e-18)
(12.2775 -1.11812 5.74992e-17)
(12.4706 -1.0712 -1.17164e-17)
(12.6581 -1.02899 -6.52853e-18)
(12.8404 -0.990817 -8.50086e-18)
(13.0177 -0.95615 -1.95047e-17)
(13.1905 -0.924556 -2.73677e-17)
(13.3588 -0.895676 -1.14245e-17)
(13.5231 -0.869213 7.0616e-17)
(13.6837 -0.844919 8.57417e-18)
(13.8406 -0.822578 -5.10635e-17)
(13.9942 -0.802011 -1.60402e-17)
(14.1448 -0.783056 -3.85747e-17)
(14.2924 -0.765574 6.61399e-17)
(14.4373 -0.749441 -2.6865e-17)
(14.5797 -0.734545 2.41769e-17)
(14.7198 -0.720784 1.40011e-17)
(14.8576 -0.708066 -3.23305e-17)
(14.9934 -0.696307 1.27567e-17)
(15.1273 -0.685426 1.90304e-18)
(15.2594 -0.675351 -1.2096e-17)
(15.3898 -0.666013 2.71709e-17)
(15.5187 -0.657349 -3.16593e-17)
(15.6461 -0.649299 5.20706e-18)
(15.7721 -0.641805 7.32124e-18)
(15.8969 -0.634816 -1.19122e-18)
(16.0204 -0.62828 7.89127e-18)
(16.1427 -0.622149 -1.08117e-17)
(16.2639 -0.61638 1.16265e-17)
(16.3841 -0.610929 -1.53568e-17)
(16.5033 -0.605756 1.66702e-17)
(16.6215 -0.600823 -1.48986e-17)
(16.7388 -0.596093 7.98536e-18)
(16.8552 -0.591533 1.16826e-17)
(16.9707 -0.58711 5.47947e-18)
(17.0854 -0.582792 -1.18104e-17)
(17.1992 -0.57855 1.35943e-17)
(17.3121 -0.574356 -2.48505e-17)
(17.4242 -0.570184 1.52048e-17)
(17.5355 -0.566007 -4.41994e-18)
(17.6459 -0.561802 2.41239e-18)
(17.7554 -0.557544 -1.34404e-17)
(17.8641 -0.553213 2.81981e-17)
(17.9719 -0.548786 -1.41737e-17)
(18.0787 -0.544244 -2.27479e-17)
(18.1847 -0.539568 1.71823e-17)
(18.2896 -0.534738 -5.48168e-19)
(18.3936 -0.529739 -1.21939e-17)
(18.4965 -0.524553 -1.18108e-17)
(18.5984 -0.519165 3.26391e-17)
(18.6992 -0.51356 -2.10509e-17)
(18.7988 -0.507726 2.11074e-17)
(18.8972 -0.501651 -1.06893e-17)
(18.9944 -0.495322 1.0465e-18)
(19.0903 -0.488731 4.80321e-18)
(19.1848 -0.481869 -1.26994e-17)
(19.278 -0.474728 -1.57111e-18)
(19.3697 -0.467305 9.73935e-18)
(19.4599 -0.459596 -6.88367e-18)
(19.5486 -0.451598 5.80579e-18)
(19.6356 -0.443313 6.39926e-19)
(19.721 -0.434744 -7.82602e-18)
(19.8046 -0.425896 -8.94017e-19)
(19.8865 -0.416778 1.55741e-17)
(19.9666 -0.407401 -5.80263e-18)
(20.0448 -0.397781 -4.00412e-18)
(20.121 -0.387936 5.73925e-18)
(20.1953 -0.377888 -2.87958e-18)
(20.2676 -0.367664 4.62024e-18)
(20.3378 -0.357296 4.80664e-18)
(20.4059 -0.346819 -1.30906e-17)
(20.472 -0.336274 1.18255e-18)
(20.5359 -0.325706 5.22996e-18)
(20.5978 -0.315166 -8.49282e-18)
(20.6575 -0.304711 1.07518e-17)
(20.7152 -0.2944 -3.91557e-18)
(20.7707 -0.2843 -5.68463e-18)
(20.8243 -0.27448 9.39223e-19)
(20.876 -0.265012 6.47925e-19)
(20.9257 -0.255974 1.2952e-18)
(20.9737 -0.247442 -1.57411e-18)
(21.0199 -0.239496 1.07452e-18)
(21.0647 -0.232212 5.18818e-20)
(21.108 -0.225668 7.19225e-19)
(21.1501 -0.219937 -2.54782e-19)
(21.1912 -0.215096 4.45011e-19)
(21.2308 -0.211215 -3.35332e-19)
(21.2718 -0.208321 -5.93566e-19)
(21.3216 -0.206755 -5.90712e-19)
(9.93137 -3.01025 5.36528e-17)
(10.0318 -2.71638 -7.33202e-17)
(10.2003 -2.45915 1.07792e-16)
(10.3932 -2.24277 -6.742e-17)
(10.599 -2.06063 -9.96693e-17)
(10.8115 -1.90639 7.9104e-17)
(11.0264 -1.7749 3.19694e-17)
(11.2405 -1.66199 8.838e-19)
(11.4521 -1.56425 -1.1858e-18)
(11.66 -1.47896 4.24653e-17)
(11.8635 -1.40396 -4.15565e-17)
(12.0623 -1.33753 -2.65851e-17)
(12.2563 -1.27829 -5.87958e-17)