/*--------------------------------*- C++ -*----------------------------------*\
  =========                 |
  \\      /  F ield         | OpenFOAM: The Open Source CFD Toolbox
   \\    /   O peration     | Website:  https://openfoam.org
    \\  /    A nd           | Version:  8
     \\/     M anipulation  |
\*---------------------------------------------------------------------------*/
FoamFile
{
    version     2.0;
    format      ascii;
    class       volScalarField;
    location    "0.5";
    object      N;
}
// * * * * * * * * * * * * * * * * * * * * * * * * * * * * * * * * * * * * * //

dimensions      [0 -3 0 0 0 0 0];

internalField   nonuniform List<scalar> 
200
(
18505097
0.10079596
0.10023853
0.10005847
0.10001192
0.10000199
0.1000002
0.099999918
0.09999988
0.099999876
0.099999875
0.099999875
0.099999875
0.099999875
0.099999875
0.099999875
0.099999875
0.099999875
0.099999875
0.099999875
0.099999875
0.099999875
0.099999875
0.099999875
0.099999875
0.099999875
0.099999875
0.099999875
0.099999875
0.099999875
0.099999875
0.099999875
0.099999876
0.099999876
0.099999876
0.099999876
0.099999876
0.099999876
0.099999876
0.099999876
0.099999876
0.099999876
0.099999876
0.099999876
0.099999876
0.099999876
0.099999876
0.099999876
0.099999877
0.099999877
0.099999877
0.099999877
0.099999877
0.099999877
0.099999877
0.099999877
0.099999877
0.099999877
0.099999877
0.099999878
0.099999878
0.099999878
0.099999878
0.099999878
0.099999878
0.099999878
0.099999878
0.099999878
0.099999879
0.099999879
0.099999879
0.099999879
0.099999879
0.099999879
0.099999879
0.09999988
0.09999988
0.09999988
0.09999988
0.09999988
0.099999881
0.099999881
0.099999881
0.099999881
0.099999881
0.099999881
0.099999882
0.099999882
0.099999882
0.099999882
0.099999883
0.099999883
0.099999883
0.099999883
0.099999884
0.099999884
0.099999884
0.099999884
0.099999885
0.099999885
0.099999885
0.099999885
0.099999886
0.099999886
0.099999886
0.099999887
0.099999887
0.099999888
0.099999888
0.099999888
0.099999889
0.099999889
0.09999989
0.09999989
0.09999989
0.099999891
0.099999891
0.099999892
0.099999892
0.099999893
0.099999893
0.099999894
0.099999894
0.099999895
0.099999896
0.099999896
0.099999897
0.099999897
0.099999898
0.099999898
0.099999899
0.0999999
0.099999901
0.099999901
0.099999902
0.099999902
0.099999904
0.099999903
0.099999905
0.099999904
0.099999907
0.099999905
0.099999909
0.099999906
0.099999912
0.099999907
0.099999915
0.099999907
0.099999918
0.099999907
0.099999922
0.099999906
0.099999927
0.099999905
0.099999932
0.099999903
0.099999938
0.0999999
0.099999945
0.099999897
0.099999953
0.099999893
0.099999961
0.099999889
0.09999997
0.099999884
0.09999998
0.099999878
0.09999999
0.099999872
0.1
0.099999866
0.10000001
0.09999986
0.10000002
0.099999853
0.10000004
0.099999846
0.10000005
0.099999838
0.10000006
0.09999983
0.10000008
0.09999982
0.10000009
0.09999981
0.10000011
0.099999796
0.10000013
0.099999778
0.10000016
0.099999755
0.10000019
0.099999725
0.10000023
0.099999679
0.10000028
0.099999636
0.10000036
0.099999548
)
;

boundaryField
{
    left
    {
        type            zeroGradient;
    }
    right
    {
        type            zeroGradient;
    }
    walls
    {
        type            zeroGradient;
    }
    centreline
    {
        type            zeroGradient;
    }
    frontAndBack
    {
        type            zeroGradient;
    }
}


// ************************************************************************* //
