/*--------------------------------*- C++ -*----------------------------------*\
  =========                 |
  \\      /  F ield         | OpenFOAM: The Open Source CFD Toolbox
   \\    /   O peration     | Website:  https://openfoam.org
    \\  /    A nd           | Version:  8
     \\/     M anipulation  |
\*---------------------------------------------------------------------------*/
FoamFile
{
    version     2.0;
    format      ascii;
    class       volScalarField;
    location    "0.5";
    object      p;
}
// * * * * * * * * * * * * * * * * * * * * * * * * * * * * * * * * * * * * * //

dimensions      [1 -1 -2 0 0 0 0];

internalField   nonuniform List<scalar> 
200
(
4246.994
4246.994
4246.994
4246.994
4246.994
4246.994
4246.994
4246.994
4246.994
4246.994
4246.994
4246.994
4246.994
4246.994
4246.994
4246.994
4246.994
4246.994
4246.994
4246.994
4246.994
4246.994
4246.994
4246.994
4246.994
4246.994
4246.994
4246.994
4246.994
4246.994
4246.994
4246.994
4246.994
4246.994
4246.994
4246.994
4246.994
4246.994
4246.994
4246.994
4246.994
4246.994
4246.9941
4246.9941
4246.9941
4246.9941
4246.9941
4246.9941
4246.9941
4246.9941
4246.9941
4246.9941
4246.9941
4246.9941
4246.9941
4246.9941
4246.9941
4246.9941
4246.9941
4246.9941
4246.9941
4246.9941
4246.9941
4246.9941
4246.9942
4246.9942
4246.9942
4246.9942
4246.9942
4246.9942
4246.9942
4246.9942
4246.9942
4246.9942
4246.9942
4246.9942
4246.9942
4246.9942
4246.9942
4246.9943
4246.9943
4246.9943
4246.9943
4246.9943
4246.9943
4246.9943
4246.9943
4246.9943
4246.9943
4246.9944
4246.9944
4246.9944
4246.9944
4246.9944
4246.9944
4246.9944
4246.9944
4246.9945
4246.9945
4246.9945
4246.9945
4246.9945
4246.9945
4246.9945
4246.9946
4246.9946
4246.9946
4246.9946
4246.9946
4246.9946
4246.9947
4246.9947
4246.9947
4246.9947
4246.9947
4246.9948
4246.9948
4246.9948
4246.9948
4246.9949
4246.9949
4246.9949
4246.9949
4246.995
4246.995
4246.995
4246.995
4246.9951
4246.9951
4246.9951
4246.9952
4246.9952
4246.9952
4246.9952
4246.9953
4246.9953
4246.9954
4246.9954
4246.9955
4246.9954
4246.9956
4246.9955
4246.9957
4246.9955
4246.9958
4246.9955
4246.9959
4246.9955
4246.9961
4246.9955
4246.9963
4246.9955
4246.9965
4246.9954
4246.9967
4246.9953
4246.997
4246.9952
4246.9974
4246.9951
4246.9977
4246.9949
4246.9981
4246.9947
4246.9986
4246.9944
4246.999
4246.9942
4246.9995
4246.9939
4247
4246.9936
4247.0006
4246.9933
4247.0011
4246.9929
4247.0017
4246.9926
4247.0023
4246.9922
4247.003
4246.9918
4247.0037
4246.9913
4247.0044
4246.9908
4247.0053
4246.9901
4247.0063
4246.9893
4247.0076
4246.9881
4247.0092
4246.9866
4247.0111
4246.9847
4247.0141
4246.9818
4247.017
4246.9787
)
;

boundaryField
{
    left
    {
        type            zeroGradient;
    }
    right
    {
        type            zeroGradient;
    }
    walls
    {
        type            zeroGradient;
    }
    centreline
    {
        type            fixedValue;
        value           uniform 4247;
    }
    frontAndBack
    {
        type            zeroGradient;
    }
}


// ************************************************************************* //
