/*--------------------------------*- C++ -*----------------------------------*\
  =========                 |
  \\      /  F ield         | OpenFOAM: The Open Source CFD Toolbox
   \\    /   O peration     | Website:  https://openfoam.org
    \\  /    A nd           | Version:  8
     \\/     M anipulation  |
\*---------------------------------------------------------------------------*/
FoamFile
{
    version     2.0;
    format      ascii;
    class       surfaceScalarField;
    location    "0.5";
    object      phi;
}
// * * * * * * * * * * * * * * * * * * * * * * * * * * * * * * * * * * * * * //

dimensions      [1 0 -1 0 0 0 0];

internalField   nonuniform List<scalar> 
199
(
-7.4193694e-05
-0.00013188821
-0.00016006617
-0.00016995678
-0.00017261188
-0.00017315166
-0.00017320182
-0.00017315825
-0.00017309922
-0.00017303771
-0.0001729756
-0.00017291313
-0.00017285033
-0.00017278721
-0.00017272377
-0.00017266004
-0.00017259602
-0.00017253171
-0.00017246713
-0.00017240229
-0.00017233721
-0.00017227188
-0.00017220632
-0.00017214055
-0.00017207456
-0.00017200837
-0.00017194198
-0.00017187541
-0.00017180865
-0.00017174171
-0.00017167459
-0.00017160729
-0.00017153981
-0.00017147215
-0.00017140429
-0.00017133623
-0.00017126796
-0.00017119946
-0.00017113072
-0.00017106172
-0.00017099244
-0.00017092285
-0.00017085294
-0.00017078267
-0.00017071203
-0.00017064098
-0.00017056949
-0.00017049754
-0.00017042511
-0.00017035217
-0.00017027869
-0.00017020467
-0.00017013008
-0.00017005492
-0.00016997917
-0.00016990284
-0.00016982593
-0.00016974846
-0.00016967043
-0.00016959187
-0.0001695128
-0.00016943327
-0.00016935331
-0.00016927296
-0.00016919226
-0.00016911128
-0.00016903005
-0.00016894863
-0.00016886708
-0.00016878544
-0.00016870375
-0.00016862207
-0.00016854044
-0.00016845888
-0.00016837742
-0.0001682961
-0.00016821492
-0.0001681339
-0.00016805304
-0.00016797236
-0.00016789186
-0.00016781153
-0.00016773139
-0.00016765145
-0.0001675717
-0.00016749219
-0.00016741292
-0.00016733395
-0.00016725532
-0.00016717708
-0.00016709931
-0.00016702208
-0.00016694548
-0.00016686962
-0.00016679459
-0.00016672051
-0.00016664751
-0.00016657569
-0.00016650519
-0.00016643614
-0.00016636867
-0.00016630291
-0.00016623899
-0.00016617704
-0.00016611718
-0.00016605953
-0.00016600422
-0.00016595133
-0.00016590096
-0.00016585319
-0.00016580808
-0.00016576567
-0.00016572599
-0.00016568905
-0.00016565484
-0.00016562334
-0.00016559452
-0.00016556834
-0.00016554478
-0.00016552379
-0.00016550536
-0.00016548945
-0.00016547607
-0.0001654652
-0.00016545688
-0.00016545106
-0.0001654478
-0.00016544701
-0.0001654488
-0.00016545298
-0.00016545969
-0.00016546866
-0.00016548007
-0.00016549358
-0.00016550938
-0.00016552708
-0.0001655469
-0.00016556846
-0.00016559194
-0.00016561702
-0.0001656438
-0.0001656721
-0.0001657018
-0.00016573301
-0.00016576504
-0.00016579874
-0.00016583206
-0.00016586772
-0.00016590076
-0.00016593802
-0.00016596893
-0.00016600827
-0.00016603572
-0.00016607931
-0.00016610302
-0.00016615498
-0.00016617546
-0.00016624085
-0.00016625777
-0.00016634044
-0.0001663509
-0.00016645191
-0.00016645039
-0.00016656849
-0.00016654886
-0.00016668303
-0.00016664103
-0.00016679238
-0.00016672637
-0.00016689779
-0.0001668075
-0.00016700141
-0.00016688686
-0.00016710343
-0.00016696518
-0.000167202
-0.00016704234
-0.00016729482
-0.00016711926
-0.00016738088
-0.00016719914
-0.00016746076
-0.00016728638
-0.000167533
-0.0001673818
-0.00016758858
-0.0001674797
-0.00016761194
-0.00016757223
-0.00016758914
-0.00016765027
-0.00016753451
-0.00016802719
-0.00016685482
-0.00015795288
-0.00016755077
-0.00018350364
-0.00016746234
-0.00015943513
)
;

boundaryField
{
    left
    {
        type            calculated;
        value           uniform 0;
    }
    right
    {
        type            calculated;
        value           uniform 0;
    }
    walls
    {
        type            calculated;
        value           uniform 0;
    }
    centreline
    {
        type            calculated;
        value           uniform -0.00016590999;
    }
    frontAndBack
    {
        type            calculated;
        value           uniform 0;
    }
}


// ************************************************************************* //
