/*--------------------------------*- C++ -*----------------------------------*\
  =========                 |
  \\      /  F ield         | OpenFOAM: The Open Source CFD Toolbox
   \\    /   O peration     | Website:  https://openfoam.org
    \\  /    A nd           | Version:  8
     \\/     M anipulation  |
\*---------------------------------------------------------------------------*/
FoamFile
{
    version     2.0;
    format      ascii;
    class       volVectorField;
    location    "0.5";
    object      U;
}
// * * * * * * * * * * * * * * * * * * * * * * * * * * * * * * * * * * * * * //

dimensions      [0 1 -1 0 0 0 0];

internalField   nonuniform List<vector> 
200
(
(0 -0.00028255756 0)
(0 -0.00088383069 0)
(0 -0.0012601768 0)
(0 -0.0013749936 0)
(0 -0.0014209193 0)
(0 -0.0014229526 0)
(0 -0.0014275767 0)
(0 -0.0014251199 0)
(0 -0.001426012 0)
(0 -0.0014246622 0)
(0 -0.0014246797 0)
(0 -0.0014238369 0)
(0 -0.0014235278 0)
(0 -0.0014228791 0)
(0 -0.0014224401 0)
(0 -0.0014218645 0)
(0 -0.0014213713 0)
(0 -0.0014208219 0)
(0 -0.0014203045 0)
(0 -0.001419763 0)
(0 -0.0014192334 0)
(0 -0.0014186928 0)
(0 -0.0014181561 0)
(0 -0.0014176138 0)
(0 -0.0014170721 0)
(0 -0.0014165272 0)
(0 -0.0014159817 0)
(0 -0.0014154339 0)
(0 -0.001414885 0)
(0 -0.0014143343 0)
(0 -0.0014137824 0)
(0 -0.0014132289 0)
(0 -0.0014126739 0)
(0 -0.0014121175 0)
(0 -0.0014115595 0)
(0 -0.0014109999 0)
(0 -0.0014104386 0)
(0 -0.0014098756 0)
(0 -0.0014093106 0)
(0 -0.0014087436 0)
(0 -0.0014081744 0)
(0 -0.0014076028 0)
(0 -0.0014070286 0)
(0 -0.0014064516 0)
(0 -0.0014058717 0)
(0 -0.0014052885 0)
(0 -0.0014047018 0)
(0 -0.0014041116 0)
(0 -0.0014035174 0)
(0 -0.0014029191 0)
(0 -0.0014023165 0)
(0 -0.0014017095 0)
(0 -0.0014010979 0)
(0 -0.0014004816 0)
(0 -0.0013998605 0)
(0 -0.0013992346 0)
(0 -0.0013986038 0)
(0 -0.0013979684 0)
(0 -0.0013973282 0)
(0 -0.0013966836 0)
(0 -0.0013960347 0)
(0 -0.0013953817 0)
(0 -0.001394725 0)
(0 -0.0013940649 0)
(0 -0.0013934017 0)
(0 -0.0013927359 0)
(0 -0.0013920679 0)
(0 -0.001391398 0)
(0 -0.0013907268 0)
(0 -0.0013900546 0)
(0 -0.0013893819 0)
(0 -0.0013887091 0)
(0 -0.0013880364 0)
(0 -0.0013873643 0)
(0 -0.0013866929 0)
(0 -0.0013860225 0)
(0 -0.0013853532 0)
(0 -0.0013846853 0)
(0 -0.0013840187 0)
(0 -0.0013833536 0)
(0 -0.0013826899 0)
(0 -0.0013820277 0)
(0 -0.0013813671 0)
(0 -0.001380708 0)
(0 -0.0013800506 0)
(0 -0.0013793949 0)
(0 -0.0013787412 0)
(0 -0.0013780897 0)
(0 -0.0013774407 0)
(0 -0.0013767948 0)
(0 -0.0013761523 0)
(0 -0.001375514 0)
(0 -0.0013748803 0)
(0 -0.0013742524 0)
(0 -0.0013736305 0)
(0 -0.0013730165 0)
(0 -0.0013724099 0)
(0 -0.0013718139 0)
(0 -0.001371226 0)
(0 -0.0013706527 0)
(0 -0.001370087 0)
(0 -0.001369542 0)
(0 -0.0013690009 0)
(0 -0.0013684913 0)
(0 -0.0013679751 0)
(0 -0.0013675109 0)
(0 -0.0013670153 0)
(0 -0.0013666124 0)
(0 -0.0013661239 0)
(0 -0.0013658098 0)
(0 -0.0013652967 0)
(0 -0.0013651224 0)
(0 -0.0013645186 0)
(0 -0.0013645798 0)
(0 -0.0013637542 0)
(0 -0.0013642333 0)
(0 -0.0013629346 0)
(0 -0.0013641748 0)
(0 -0.0013619322 0)
(0 -0.0013645707 0)
(0 -0.0013605193 0)
(0 -0.0013657185 0)
(0 -0.0013582975 0)
(0 -0.0013681391 0)
(0 -0.0013545826 0)
(0 -0.0013727212 0)
(0 -0.0013482253 0)
(0 -0.0013809385 0)
(0 -0.0013373531 0)
(0 -0.0013951467 0)
(0 -0.0013190332 0)
(0 -0.0014189452 0)
(0 -0.0012889008 0)
(0 -0.0014575337 0)
(0 -0.0012408431 0)
(0 -0.0015179624 0)
(0 -0.0011668349 0)
(0 -0.001609206 0)
(0 -0.0010569453 0)
(0 -0.0017421062 0)
(0 -0.00089942055 0)
(0 -0.0019292851 0)
(0 -0.00068077159 0)
(0 -0.0021850378 0)
(0 -0.00038594126 0)
(0 -0.0025250512 0)
(0 1.269199e-06 0)
(0 -0.0029658052 0)
(0 0.00049744846 0)
(0 -0.0035237019 0)
(0 0.0011186446 0)
(0 -0.0042141524 0)
(0 0.001879505 0)
(0 -0.0050508528 0)
(0 0.0027926684 0)
(0 -0.0060453509 0)
(0 0.0038684605 0)
(0 -0.0072068733 0)
(0 0.0051148531 0)
(0 -0.0085423317 0)
(0 0.0065375999 0)
(0 -0.010056447 0)
(0 0.008140454 0)
(0 -0.01175196 0)
(0 0.0099253955 0)
(0 -0.01362992 0)
(0 0.011892846 0)
(0 -0.015689982 0)
(0 0.014041911 0)
(0 -0.017930709 0)
(0 0.016370684 0)
(0 -0.020349878 0)
(0 0.018876638 0)
(0 -0.02294485 0)
(0 0.021557094 0)
(0 -0.02571307 0)
(0 0.024409797 0)
(0 -0.028652742 0)
(0 0.027433659 0)
(0 -0.031763725 0)
(0 0.030629754 0)
(0 -0.035048681 0)
(0 0.034002616 0)
(0 -0.038514504 0)
(0 0.037561843 0)
(0 -0.042173949 0)
(0 0.041323878 0)
(0 -0.046047376 0)
(0 0.045313702 0)
(0 -0.05016442 0)
(0 0.049566174 0)
(0 -0.054565143 0)
(0 0.054126756 0)
(0 -0.059298939 0)
(0 0.059049301 0)
(0 -0.064412893 0)
(0 0.064386151 0)
(0 -0.069992 0)
(0 0.070222976 0)
(0 -0.076150835 0)
)
;

boundaryField
{
    left
    {
        type            noSlip;
    }
    right
    {
        type            noSlip;
    }
    walls
    {
        type            noSlip;
    }
    centreline
    {
        type            noSlip;
    }
    frontAndBack
    {
        type            noSlip;
    }
}


// ************************************************************************* //
