/*--------------------------------*- C++ -*----------------------------------*\
  =========                 |
  \\      /  F ield         | OpenFOAM: The Open Source CFD Toolbox
   \\    /   O peration     | Website:  https://openfoam.org
    \\  /    A nd           | Version:  8
     \\/     M anipulation  |
\*---------------------------------------------------------------------------*/
FoamFile
{
    version     2.0;
    format      ascii;
    class       volScalarField;
    location    "1";
    object      N;
}
// * * * * * * * * * * * * * * * * * * * * * * * * * * * * * * * * * * * * * //

dimensions      [0 -3 0 0 0 0 0];

internalField   nonuniform List<scalar> 
200
(
3.1828173e+10
2.8393009e+10
6.7468797e+09
7.6105949e+08
70485810
5314361.7
324242.36
16422.348
705.97142
26.408902
0.96755834
0.12570636
0.10078843
0.10011593
0.10010041
0.10010004
0.10010107
0.10010081
0.10010154
0.1001016
0.10010206
0.10010235
0.10010276
0.10010318
0.10010363
0.10010417
0.10010469
0.10010525
0.10010568
0.10010622
0.10010657
0.10010687
0.10010708
0.10010711
0.10010688
0.10010643
0.10010602
0.10010455
0.10010239
0.10009937
0.10009533
0.10009006
0.10008342
0.1000752
0.10006534
0.10005379
0.10004056
0.10002575
0.10000959
0.099992363
0.099974458
0.099956327
0.099938523
0.099921587
0.099906102
0.099892563
0.099881499
0.099873276
0.099868191
0.099866363
0.099867841
0.099872494
0.099880159
0.099890448
0.099903026
0.099917394
0.099933095
0.099949625
0.099966536
0.09998339
0.099999809
0.10001548
0.10003015
0.10004362
0.10005577
0.10006654
0.1000759
0.10008388
0.10009053
0.10009593
0.10010017
0.10010337
0.10010562
0.10010704
0.10010771
0.10010776
0.10010725
0.10010626
0.10010488
0.10010316
0.10010116
0.10009893
0.1000965
0.10009392
0.10009123
0.10008845
0.10008562
0.10008276
0.10007989
0.10007703
0.10007422
0.10007147
0.1000688
0.10006623
0.10006379
0.1000615
0.10005935
0.10005734
0.10005548
0.10005377
0.10005221
0.1000508
0.10004955
0.10004846
0.10004754
0.10004675
0.10004611
0.10004556
0.10004513
0.10004474
0.10004437
0.10004392
0.10004334
0.1000425
0.10004129
0.1000395
0.10003705
0.10003367
0.10002926
0.1000236
0.10001668
0.10000832
0.099998647
0.099987687
0.099975737
0.099963065
0.099950168
0.09993751
0.099925719
0.099915328
0.099906923
0.099900978
0.099897851
0.099897785
0.099900823
0.099906925
0.099915768
0.099927064
0.099940208
0.09995478
0.099970024
0.099985558
0.10000059
0.10001494
0.10002785
0.10003942
0.10004897
0.10005689
0.10006259
0.10006671
0.10006869
0.10006945
0.10006835
0.10006657
0.10006333
0.10006001
0.10005564
0.10005181
0.10004716
0.10004361
0.10003931
0.10003656
0.10003272
0.10003109
0.10002778
0.1000273
0.10002416
0.10002437
0.10002137
0.10002206
0.10001879
0.10001761
0.10001515
0.10000539
0.10001613
0.099983348
0.1000104
0.099960705
0.099992244
0.099942914
0.099967163
0.099926069
0.099943881
0.099916251
0.099928758
0.099917086
0.099928161
0.099919489
0.099959772
0.099799408
)
;

boundaryField
{
    left
    {
        type            zeroGradient;
    }
    right
    {
        type            zeroGradient;
    }
    walls
    {
        type            zeroGradient;
    }
    centreline
    {
        type            zeroGradient;
    }
    frontAndBack
    {
        type            zeroGradient;
    }
}


// ************************************************************************* //
