/*--------------------------------*- C++ -*----------------------------------*\
  =========                 |
  \\      /  F ield         | OpenFOAM: The Open Source CFD Toolbox
   \\    /   O peration     | Website:  https://openfoam.org
    \\  /    A nd           | Version:  8
     \\/     M anipulation  |
\*---------------------------------------------------------------------------*/
FoamFile
{
    version     2.0;
    format      ascii;
    class       volScalarField;
    location    "1";
    object      p;
}
// * * * * * * * * * * * * * * * * * * * * * * * * * * * * * * * * * * * * * //

dimensions      [1 -1 -2 0 0 0 0];

internalField   nonuniform List<scalar> 
200
(
101493.59
101467.33
101462.75
101456.71
101463.4
101453.97
101464.03
101453.44
101463.67
101455.14
101462.85
101457.35
101462.08
101459.16
101462.01
101460.5
101462.49
101461.71
101463.14
101462.87
101463.89
101464.01
101464.83
101465.23
101466.01
101466.63
101467.43
101468.13
101468.92
101469.59
101470.29
101470.81
101471.28
101471.49
101471.56
101471.25
101470.92
101469.63
101467.55
101464.34
101459.95
101454.06
101446.51
101437.01
101425.42
101411.59
101395.51
101377.22
101356.93
101334.91
101311.63
101287.59
101263.48
101239.98
101217.85
101197.81
101180.59
101166.75
101156.82
101151.1
101149.75
101152.75
101159.94
101170.97
101185.42
101202.72
101222.26
101243.38
101265.47
101287.9
101310.12
101331.63
101352.04
101371.03
101388.37
101403.91
101417.58
101429.35
101439.29
101447.46
101453.98
101458.99
101462.63
101465.04
101466.37
101466.76
101466.34
101465.22
101463.51
101461.31
101458.7
101455.75
101452.53
101449.1
101445.51
101441.81
101438.03
101434.22
101430.41
101426.62
101422.91
101419.28
101415.77
101412.41
101409.23
101406.24
101403.44
101400.83
101398.42
101396.2
101394.2
101392.4
101390.82
101389.44
101388.29
101387.32
101386.55
101385.92
101385.45
101385.05
101384.7
101384.27
101383.74
101382.89
101381.63
101379.7
101376.95
101373.07
101367.91
101361.15
101352.74
101342.44
101330.37
101316.49
101301.17
101284.66
101267.65
101250.62
101234.47
101219.82
101207.6
101198.32
101192.72
101190.98
101193.49
101199.99
101210.45
101224.19
101240.85
101259.44
101279.45
101299.79
101320.02
101339.13
101356.87
101372.41
101385.83
101396.5
101404.79
101410.27
101413.57
101414.41
101413.61
101410.9
101407.31
101402.47
101397.46
101391.81
101386.57
101381.09
101376.6
101372.06
101368.15
101364.94
101361.94
101360.06
101357.62
101356.47
101354.56
101353.82
101351.71
101348.17
101348.03
101333.5
101350.49
101304.66
101344.84
101272.67
101324.16
101249.42
101290.78
101226.65
101259.52
101211.78
101238.89
101209.02
101240.48
101203.93
101313.92
101117.64
)
;

boundaryField
{
    left
    {
        type            zeroGradient;
    }
    right
    {
        type            zeroGradient;
    }
    walls
    {
        type            zeroGradient;
    }
    centreline
    {
        type            fixedValue;
        value           uniform 101325;
    }
    frontAndBack
    {
        type            zeroGradient;
    }
}


// ************************************************************************* //
