/*--------------------------------*- C++ -*----------------------------------*\
  =========                 |
  \\      /  F ield         | OpenFOAM: The Open Source CFD Toolbox
   \\    /   O peration     | Website:  https://openfoam.org
    \\  /    A nd           | Version:  8
     \\/     M anipulation  |
\*---------------------------------------------------------------------------*/
FoamFile
{
    version     2.0;
    format      ascii;
    class       volScalarField;
    location    "1";
    object      rho;
}
// * * * * * * * * * * * * * * * * * * * * * * * * * * * * * * * * * * * * * //

dimensions      [1 -3 0 0 0 0 0];

internalField   nonuniform List<scalar> 
200
(
0.89117482
0.89054833
0.64676829
0.5987612
0.59434048
0.59391785
0.59394619
0.5938858
0.5939423
0.5938939
0.59393668
0.5939053
0.59393206
0.59391453
0.59393095
0.59392139
0.59393269
0.59392765
0.59393568
0.59393357
0.5939393
0.59393924
0.59394375
0.5939452
0.5939494
0.59395206
0.59395632
0.59395951
0.59396389
0.59396714
0.59397115
0.59397397
0.59397704
0.59397861
0.5939801
0.59397967
0.59397946
0.59397542
0.59396815
0.59395554
0.59393791
0.59391339
0.59388147
0.59384038
0.59378961
0.59372782
0.59365514
0.59357112
0.59347675
0.59337281
0.59326153
0.59314494
0.59302632
0.59290873
0.5927961
0.59269187
0.59259992
0.59252313
0.59246455
0.59242596
0.59240865
0.59241285
0.59243813
0.59248314
0.59254603
0.59262413
0.59271467
0.59281437
0.59292018
0.59302887
0.5931377
0.59324398
0.59334565
0.59344089
0.59352844
0.59360735
0.59367718
0.59373768
0.59378904
0.59383154
0.59386573
0.59389221
0.59391171
0.59392493
0.59393263
0.59393548
0.59393416
0.59392927
0.59392137
0.59391095
0.59389845
0.59388425
0.59386872
0.59385213
0.59383476
0.59381683
0.59379857
0.59378014
0.59376175
0.59374353
0.59372563
0.5937082
0.59369142
0.59367538
0.59366025
0.59364601
0.59363272
0.59362032
0.59360891
0.59359843
0.59358898
0.59358052
0.59357315
0.59356677
0.59356149
0.59355708
0.59355362
0.59355089
0.59354897
0.59354742
0.59354625
0.59354482
0.59354301
0.5935399
0.59353509
0.59352726
0.59351582
0.59349917
0.59347663
0.5934466
0.59340871
0.59336171
0.59330603
0.59324123
0.59316905
0.59309036
0.59300843
0.59292536
0.59284562
0.592772
0.59270931
0.59265992
0.59262794
0.59261419
0.59262116
0.59264746
0.59269373
0.59275616
0.59283394
0.59292138
0.59301716
0.59311462
0.593213
0.59330553
0.59339285
0.59346864
0.59353548
0.59358757
0.5936296
0.59365625
0.593674
0.59367769
0.59367556
0.59366176
0.59364621
0.59362182
0.59359969
0.59357119
0.59354829
0.59352017
0.5935016
0.59347781
0.59346192
0.59344417
0.5934331
0.59342132
0.59341379
0.5934051
0.593401
0.59339413
0.59338919
0.59336798
0.59337507
0.59330229
0.5933914
0.59316459
0.59337153
0.5930043
0.59328239
0.59289435
0.59312246
0.59278441
0.59297234
0.59270803
0.59287497
0.59268201
0.59289795
0.59262092
0.59331439
0.59218141
)
;

boundaryField
{
    left
    {
        type            calculated;
        value           nonuniform List<scalar> 
200
(
0.89117482
0.89054833
0.64676829
0.5987612
0.59434048
0.59391785
0.59394619
0.5938858
0.5939423
0.5938939
0.59393668
0.5939053
0.59393206
0.59391453
0.59393095
0.59392139
0.59393269
0.59392765
0.59393568
0.59393357
0.5939393
0.59393924
0.59394375
0.5939452
0.5939494
0.59395206
0.59395632
0.59395951
0.59396389
0.59396714
0.59397115
0.59397397
0.59397704
0.59397861
0.5939801
0.59397967
0.59397946
0.59397542
0.59396815
0.59395554
0.59393791
0.59391339
0.59388147
0.59384038
0.59378961
0.59372782
0.59365514
0.59357112
0.59347675
0.59337281
0.59326153
0.59314494
0.59302632
0.59290873
0.5927961
0.59269187
0.59259992
0.59252313
0.59246455
0.59242596
0.59240865
0.59241285
0.59243813
0.59248314
0.59254603
0.59262413
0.59271467
0.59281437
0.59292018
0.59302887
0.5931377
0.59324398
0.59334565
0.59344089
0.59352844
0.59360735
0.59367718
0.59373768
0.59378904
0.59383154
0.59386573
0.59389221
0.59391171
0.59392493
0.59393263
0.59393548
0.59393416
0.59392927
0.59392137
0.59391095
0.59389845
0.59388425
0.59386872
0.59385213
0.59383476
0.59381683
0.59379857
0.59378014
0.59376175
0.59374353
0.59372563
0.5937082
0.59369142
0.59367538
0.59366025
0.59364601
0.59363272
0.59362032
0.59360891
0.59359843
0.59358898
0.59358052
0.59357315
0.59356677
0.59356149
0.59355708
0.59355362
0.59355089
0.59354897
0.59354742
0.59354625
0.59354482
0.59354301
0.5935399
0.59353509
0.59352726
0.59351582
0.59349917
0.59347663
0.5934466
0.59340871
0.59336171
0.59330603
0.59324123
0.59316905
0.59309036
0.59300843
0.59292536
0.59284562
0.592772
0.59270931
0.59265992
0.59262794
0.59261419
0.59262116
0.59264746
0.59269373
0.59275616
0.59283394
0.59292138
0.59301716
0.59311462
0.593213
0.59330553
0.59339285
0.59346864
0.59353548
0.59358757
0.5936296
0.59365625
0.593674
0.59367769
0.59367556
0.59366176
0.59364621
0.59362182
0.59359969
0.59357119
0.59354829
0.59352017
0.5935016
0.59347781
0.59346192
0.59344417
0.5934331
0.59342132
0.59341379
0.5934051
0.593401
0.59339413
0.59338919
0.59336798
0.59337507
0.59330229
0.5933914
0.59316459
0.59337153
0.5930043
0.59328239
0.59289435
0.59312246
0.59278441
0.59297234
0.59270803
0.59287497
0.59268201
0.59289795
0.59262092
0.59331439
0.59218141
)
;
    }
    right
    {
        type            calculated;
        value           nonuniform List<scalar> 
200
(
0.89117482
0.89054833
0.64676829
0.5987612
0.59434048
0.59391785
0.59394619
0.5938858
0.5939423
0.5938939
0.59393668
0.5939053
0.59393206
0.59391453
0.59393095
0.59392139
0.59393269
0.59392765
0.59393568
0.59393357
0.5939393
0.59393924
0.59394375
0.5939452
0.5939494
0.59395206
0.59395632
0.59395951
0.59396389
0.59396714
0.59397115
0.59397397
0.59397704
0.59397861
0.5939801
0.59397967
0.59397946
0.59397542
0.59396815
0.59395554
0.59393791
0.59391339
0.59388147
0.59384038
0.59378961
0.59372782
0.59365514
0.59357112
0.59347675
0.59337281
0.59326153
0.59314494
0.59302632
0.59290873
0.5927961
0.59269187
0.59259992
0.59252313
0.59246455
0.59242596
0.59240865
0.59241285
0.59243813
0.59248314
0.59254603
0.59262413
0.59271467
0.59281437
0.59292018
0.59302887
0.5931377
0.59324398
0.59334565
0.59344089
0.59352844
0.59360735
0.59367718
0.59373768
0.59378904
0.59383154
0.59386573
0.59389221
0.59391171
0.59392493
0.59393263
0.59393548
0.59393416
0.59392927
0.59392137
0.59391095
0.59389845
0.59388425
0.59386872
0.59385213
0.59383476
0.59381683
0.59379857
0.59378014
0.59376175
0.59374353
0.59372563
0.5937082
0.59369142
0.59367538
0.59366025
0.59364601
0.59363272
0.59362032
0.59360891
0.59359843
0.59358898
0.59358052
0.59357315
0.59356677
0.59356149
0.59355708
0.59355362
0.59355089
0.59354897
0.59354742
0.59354625
0.59354482
0.59354301
0.5935399
0.59353509
0.59352726
0.59351582
0.59349917
0.59347663
0.5934466
0.59340871
0.59336171
0.59330603
0.59324123
0.59316905
0.59309036
0.59300843
0.59292536
0.59284562
0.592772
0.59270931
0.59265992
0.59262794
0.59261419
0.59262116
0.59264746
0.59269373
0.59275616
0.59283394
0.59292138
0.59301716
0.59311462
0.593213
0.59330553
0.59339285
0.59346864
0.59353548
0.59358757
0.5936296
0.59365625
0.593674
0.59367769
0.59367556
0.59366176
0.59364621
0.59362182
0.59359969
0.59357119
0.59354829
0.59352017
0.5935016
0.59347781
0.59346192
0.59344417
0.5934331
0.59342132
0.59341379
0.5934051
0.593401
0.59339413
0.59338919
0.59336798
0.59337507
0.59330229
0.5933914
0.59316459
0.59337153
0.5930043
0.59328239
0.59289435
0.59312246
0.59278441
0.59297234
0.59270803
0.59287497
0.59268201
0.59289795
0.59262092
0.59331439
0.59218141
)
;
    }
    walls
    {
        type            calculated;
        value           uniform 0.60600601;
    }
    centreline
    {
        type            calculated;
        value           uniform 0.59325508;
    }
    frontAndBack
    {
        type            calculated;
        value           nonuniform List<scalar> 
400
(
0.89117482
0.89054833
0.64676829
0.5987612
0.59434048
0.59391785
0.59394619
0.5938858
0.5939423
0.5938939
0.59393668
0.5939053
0.59393206
0.59391453
0.59393095
0.59392139
0.59393269
0.59392765
0.59393568
0.59393357
0.5939393
0.59393924
0.59394375
0.5939452
0.5939494
0.59395206
0.59395632
0.59395951
0.59396389
0.59396714
0.59397115
0.59397397
0.59397704
0.59397861
0.5939801
0.59397967
0.59397946
0.59397542
0.59396815
0.59395554
0.59393791
0.59391339
0.59388147
0.59384038
0.59378961
0.59372782
0.59365514
0.59357112
0.59347675
0.59337281
0.59326153
0.59314494
0.59302632
0.59290873
0.5927961
0.59269187
0.59259992
0.59252313
0.59246455
0.59242596
0.59240865
0.59241285
0.59243813
0.59248314
0.59254603
0.59262413
0.59271467
0.59281437
0.59292018
0.59302887
0.5931377
0.59324398
0.59334565
0.59344089
0.59352844
0.59360735
0.59367718
0.59373768
0.59378904
0.59383154
0.59386573
0.59389221
0.59391171
0.59392493
0.59393263
0.59393548
0.59393416
0.59392927
0.59392137
0.59391095
0.59389845
0.59388425
0.59386872
0.59385213
0.59383476
0.59381683
0.59379857
0.59378014
0.59376175
0.59374353
0.59372563
0.5937082
0.59369142
0.59367538
0.59366025
0.59364601
0.59363272
0.59362032
0.59360891
0.59359843
0.59358898
0.59358052
0.59357315
0.59356677
0.59356149
0.59355708
0.59355362
0.59355089
0.59354897
0.59354742
0.59354625
0.59354482
0.59354301
0.5935399
0.59353509
0.59352726
0.59351582
0.59349917
0.59347663
0.5934466
0.59340871
0.59336171
0.59330603
0.59324123
0.59316905
0.59309036
0.59300843
0.59292536
0.59284562
0.592772
0.59270931
0.59265992
0.59262794
0.59261419
0.59262116
0.59264746
0.59269373
0.59275616
0.59283394
0.59292138
0.59301716
0.59311462
0.593213
0.59330553
0.59339285
0.59346864
0.59353548
0.59358757
0.5936296
0.59365625
0.593674
0.59367769
0.59367556
0.59366176
0.59364621
0.59362182
0.59359969
0.59357119
0.59354829
0.59352017
0.5935016
0.59347781
0.59346192
0.59344417
0.5934331
0.59342132
0.59341379
0.5934051
0.593401
0.59339413
0.59338919
0.59336798
0.59337507
0.59330229
0.5933914
0.59316459
0.59337153
0.5930043
0.59328239
0.59289435
0.59312246
0.59278441
0.59297234
0.59270803
0.59287497
0.59268201
0.59289795
0.59262092
0.59331439
0.59218141
0.89117482
0.89054833
0.64676829
0.5987612
0.59434048
0.59391785
0.59394619
0.5938858
0.5939423
0.5938939
0.59393668
0.5939053
0.59393206
0.59391453
0.59393095
0.59392139
0.59393269
0.59392765
0.59393568
0.59393357
0.5939393
0.59393924
0.59394375
0.5939452
0.5939494
0.59395206
0.59395632
0.59395951
0.59396389
0.59396714
0.59397115
0.59397397
0.59397704
0.59397861
0.5939801
0.59397967
0.59397946
0.59397542
0.59396815
0.59395554
0.59393791
0.59391339
0.59388147
0.59384038
0.59378961
0.59372782
0.59365514
0.59357112
0.59347675
0.59337281
0.59326153
0.59314494
0.59302632
0.59290873
0.5927961
0.59269187
0.59259992
0.59252313
0.59246455
0.59242596
0.59240865
0.59241285
0.59243813
0.59248314
0.59254603
0.59262413
0.59271467
0.59281437
0.59292018
0.59302887
0.5931377
0.59324398
0.59334565
0.59344089
0.59352844
0.59360735
0.59367718
0.59373768
0.59378904
0.59383154
0.59386573
0.59389221
0.59391171
0.59392493
0.59393263
0.59393548
0.59393416
0.59392927
0.59392137
0.59391095
0.59389845
0.59388425
0.59386872
0.59385213
0.59383476
0.59381683
0.59379857
0.59378014
0.59376175
0.59374353
0.59372563
0.5937082
0.59369142
0.59367538
0.59366025
0.59364601
0.59363272
0.59362032
0.59360891
0.59359843
0.59358898
0.59358052
0.59357315
0.59356677
0.59356149
0.59355708
0.59355362
0.59355089
0.59354897
0.59354742
0.59354625
0.59354482
0.59354301
0.5935399
0.59353509
0.59352726
0.59351582
0.59349917
0.59347663
0.5934466
0.59340871
0.59336171
0.59330603
0.59324123
0.59316905
0.59309036
0.59300843
0.59292536
0.59284562
0.592772
0.59270931
0.59265992
0.59262794
0.59261419
0.59262116
0.59264746
0.59269373
0.59275616
0.59283394
0.59292138
0.59301716
0.59311462
0.593213
0.59330553
0.59339285
0.59346864
0.59353548
0.59358757
0.5936296
0.59365625
0.593674
0.59367769
0.59367556
0.59366176
0.59364621
0.59362182
0.59359969
0.59357119
0.59354829
0.59352017
0.5935016
0.59347781
0.59346192
0.59344417
0.5934331
0.59342132
0.59341379
0.5934051
0.593401
0.59339413
0.59338919
0.59336798
0.59337507
0.59330229
0.5933914
0.59316459
0.59337153
0.5930043
0.59328239
0.59289435
0.59312246
0.59278441
0.59297234
0.59270803
0.59287497
0.59268201
0.59289795
0.59262092
0.59331439
0.59218141
)
;
    }
}


// ************************************************************************* //
