/*--------------------------------*- C++ -*----------------------------------*\
  =========                 |
  \\      /  F ield         | OpenFOAM: The Open Source CFD Toolbox
   \\    /   O peration     | Website:  https://openfoam.org
    \\  /    A nd           | Version:  8
     \\/     M anipulation  |
\*---------------------------------------------------------------------------*/
FoamFile
{
    version     2.0;
    format      ascii;
    class       volScalarField;
    location    "1";
    object      T;
}
// * * * * * * * * * * * * * * * * * * * * * * * * * * * * * * * * * * * * * //

dimensions      [0 0 0 1 0 0 0];

internalField   nonuniform List<scalar> 
200
(
252.64434
252.71819
343.35499
370.12473
372.83771
373.0632
373.08166
373.0801
373.08229
373.08102
373.08276
373.08207
373.08288
373.08297
373.0833
373.08366
373.08396
373.08427
373.08457
373.08494
373.08515
373.08565
373.08585
373.08645
373.08669
373.08734
373.08767
373.08832
373.08862
373.0892
373.08944
373.08983
373.08994
373.09008
373.08984
373.08954
373.08914
373.08797
373.08608
373.08357
373.08007
373.07563
373.06991
373.06293
373.05447
373.04464
373.0333
373.02066
373.00683
372.99214
372.97681
372.96135
372.94612
372.93168
372.91845
372.90691
372.89745
372.89047
372.88614
372.88462
372.8859
372.88992
372.8965
372.90534
372.91612
372.92844
372.9419
372.95607
372.97055
372.985
372.99906
373.01249
373.02505
373.03659
373.047
373.05622
373.06424
373.07108
373.07678
373.08141
373.08504
373.08778
373.08972
373.09094
373.09153
373.09157
373.09114
373.09031
373.08913
373.08767
373.08596
373.08406
373.08199
373.07979
373.07749
373.07512
373.0727
373.07025
373.0678
373.06536
373.06296
373.06062
373.05834
373.05615
373.05407
373.05211
373.05028
373.04857
373.04698
373.04552
373.0442
373.043
373.04194
373.04101
373.04023
373.03956
373.03901
373.03855
373.03818
373.03785
373.03753
373.03714
373.03665
373.03593
373.03489
373.03337
373.03126
373.02837
373.02459
373.01976
373.01382
373.00668
372.99839
372.98902
372.97879
372.96796
372.95691
372.9461
372.93601
372.92714
372.91995
372.91489
372.91221
372.9122
372.91477
372.92005
372.92757
372.93733
372.9485
372.96108
372.97401
372.98744
373.00016
373.01261
373.02347
373.03358
373.04152
373.04856
373.05316
373.05699
373.05834
373.05936
373.05803
373.05692
373.0537
373.05136
373.04707
373.04437
373.03977
373.03741
373.033
373.03144
373.02729
373.02684
373.023
373.02371
373.01985
373.0213
373.01739
373.0194
373.01512
373.01565
373.01184
373.00537
373.01232
372.98683
373.00667
372.96817
372.98981
372.95367
372.96656
372.93985
372.94432
372.93232
372.92752
372.9363
372.91748
372.95045
372.92991
372.89947
)
;

boundaryField
{
    left
    {
        type            zeroGradient;
    }
    right
    {
        type            zeroGradient;
    }
    walls
    {
        type            fixedValue;
        value           uniform 366;
    }
    centreline
    {
        type            fixedValue;
        value           uniform 373;
    }
    frontAndBack
    {
        type            zeroGradient;
    }
}


// ************************************************************************* //
