/*--------------------------------*- C++ -*----------------------------------*\
  =========                 |
  \\      /  F ield         | OpenFOAM: The Open Source CFD Toolbox
   \\    /   O peration     | Website:  https://openfoam.org
    \\  /    A nd           | Version:  8
     \\/     M anipulation  |
\*---------------------------------------------------------------------------*/
FoamFile
{
    version     2.0;
    format      ascii;
    class       volVectorField;
    location    "1";
    object      U;
}
// * * * * * * * * * * * * * * * * * * * * * * * * * * * * * * * * * * * * * //

dimensions      [0 1 -1 0 0 0 0];

internalField   nonuniform List<vector> 
200
(
(0 -2.0660103 0)
(0 2.4021777 0)
(0 -1.9075142 0)
(0 2.1671418 0)
(0 -1.6712895 0)
(0 1.8321465 0)
(0 -1.3281486 0)
(0 1.4547681 0)
(0 -0.97216185 0)
(0 1.1018777 0)
(0 -0.6617311 0)
(0 0.81395085 0)
(0 -0.42676268 0)
(0 0.60276663 0)
(0 -0.26325852 0)
(0 0.45145631 0)
(0 -0.14747282 0)
(0 0.33799951 0)
(0 -0.064703671 0)
(0 0.25392801 0)
(0 -0.01073396 0)
(0 0.1959232 0)
(0 0.019340129 0)
(0 0.1580165 0)
(0 0.032459799 0)
(0 0.13521098 0)
(0 0.033655866 0)
(0 0.11825318 0)
(0 0.030155964 0)
(0 0.10278774 0)
(0 0.023273182 0)
(0 0.086402465 0)
(0 0.013243639 0)
(0 0.067518817 0)
(0 -0.0010835781 0)
(0 0.043478842 0)
(0 -0.020693544 0)
(0 0.01688848 0)
(0 -0.047392127 0)
(0 -0.024437041 0)
(0 -0.09224599 0)
(0 -0.084257168 0)
(0 -0.1590853 0)
(0 -0.16862249 0)
(0 -0.25417005 0)
(0 -0.28320036 0)
(0 -0.38172964 0)
(0 -0.43052043 0)
(0 -0.54160531 0)
(0 -0.60734078 0)
(0 -0.72716565 0)
(0 -0.80363077 0)
(0 -0.92489798 0)
(0 -1.0028441 0)
(0 -1.1157007 0)
(0 -1.1844275 0)
(0 -1.2783233 0)
(0 -1.3275836 0)
(0 -1.3938005 0)
(0 -1.4160198 0)
(0 -1.4495775 0)
(0 -1.4417499 0)
(0 -1.4420682 0)
(0 -1.4060024 0)
(0 -1.3769699 0)
(0 -1.318281 0)
(0 -1.2672397 0)
(0 -1.1938347 0)
(0 -1.1296173 0)
(0 -1.0499931 0)
(0 -0.98107491 0)
(0 -0.90270024 0)
(0 -0.83593152 0)
(0 -0.76423997 0)
(0 -0.70415602 0)
(0 -0.64218963 0)
(0 -0.59103125 0)
(0 -0.53971219 0)
(0 -0.49773062 0)
(0 -0.45629113 0)
(0 -0.42260267 0)
(0 -0.38934726 0)
(0 -0.36210131 0)
(0 -0.33520825 0)
(0 -0.31253681 0)
(0 -0.29001131 0)
(0 -0.27032508 0)
(0 -0.2505793 0)
(0 -0.23258913 0)
(0 -0.21449226 0)
(0 -0.19733841 0)
(0 -0.18017264 0)
(0 -0.16336921 0)
(0 -0.14678348 0)
(0 -0.1301266 0)
(0 -0.11403429 0)
(0 -0.097521219 0)
(0 -0.082008081 0)
(0 -0.065754377 0)
(0 -0.051014834 0)
(0 -0.035202461 0)
(0 -0.021510875 0)
(0 -0.0063588652 0)
(0 0.0059272637 0)
(0 0.020226117 0)
(0 0.03073911 0)
(0 0.044180965 0)
(0 0.052843596 0)
(0 0.065637441 0)
(0 0.072173305 0)
(0 0.084470055 0)
(0 0.088958329 0)
(0 0.10076199 0)
(0 0.10306106 0)
(0 0.11478562 0)
(0 0.1142697 0)
(0 0.12623836 0)
(0 0.1231199 0)
(0 0.13573143 0)
(0 0.12871675 0)
(0 0.1417971 0)
(0 0.13010555 0)
(0 0.14304619 0)
(0 0.1249413 0)
(0 0.13622279 0)
(0 0.10887883 0)
(0 0.11597564 0)
(0 0.075705121 0)
(0 0.075610572 0)
(0 0.01835054 0)
(0 0.0081125451 0)
(0 -0.069590316 0)
(0 -0.091164293 0)
(0 -0.19073426 0)
(0 -0.22197952 0)
(0 -0.3413808 0)
(0 -0.37644209 0)
(0 -0.50968598 0)
(0 -0.53850953 0)
(0 -0.67636438 0)
(0 -0.68715389 0)
(0 -0.81877223 0)
(0 -0.80048354 0)
(0 -0.91787886 0)
(0 -0.86284742 0)
(0 -0.96264939 0)
(0 -0.86834366 0)
(0 -0.95294988 0)
(0 -0.8222118 0)
(0 -0.89883015 0)
(0 -0.73733817 0)
(0 -0.81568069 0)
(0 -0.62994916 0)
(0 -0.71945836 0)
(0 -0.51488428 0)
(0 -0.62296975 0)
(0 -0.40167417 0)
(0 -0.53370439 0)
(0 -0.29490926 0)
(0 -0.45337774 0)
(0 -0.19598115 0)
(0 -0.38147076 0)
(0 -0.10302049 0)
(0 -0.31818475 0)
(0 -0.015125903 0)
(0 -0.26288157 0)
(0 0.065673791 0)
(0 -0.21540725 0)
(0 0.13719228 0)
(0 -0.17565312 0)
(0 0.19571584 0)
(0 -0.13951978 0)
(0 0.23578971 0)
(0 -0.1030712 0)
(0 0.25693187 0)
(0 -0.063603245 0)
(0 0.25961839 0)
(0 -0.024790109 0)
(0 0.24565959 0)
(0 0.0040224921 0)
(0 0.22551615 0)
(0 -0.014717892 0)
(0 0.27519496 0)
(0 -0.17707137 0)
(0 0.39594243 0)
(0 -0.46833641 0)
(0 0.63025777 0)
(0 -0.96685676 0)
(0 1.012784 0)
(0 -1.6683253 0)
(0 1.5215661 0)
(0 -2.4966181 0)
(0 2.0747723 0)
(0 -3.3406653 0)
(0 2.6200091 0)
(0 -4.1208979 0)
(0 3.1896334 0)
(0 -5.0258562 0)
(0 4.3583277 0)
(0 -6.9578464 0)
)
;

boundaryField
{
    left
    {
        type            noSlip;
    }
    right
    {
        type            noSlip;
    }
    walls
    {
        type            noSlip;
    }
    centreline
    {
        type            noSlip;
    }
    frontAndBack
    {
        type            noSlip;
    }
}


// ************************************************************************* //
