/*--------------------------------*- C++ -*----------------------------------*\
  =========                 |
  \\      /  F ield         | OpenFOAM: The Open Source CFD Toolbox
   \\    /   O peration     | Website:  https://openfoam.org
    \\  /    A nd           | Version:  8
     \\/     M anipulation  |
\*---------------------------------------------------------------------------*/
FoamFile
{
    version     2.0;
    format      ascii;
    class       volScalarField;
    location    "0.2";
    object      N;
}
// * * * * * * * * * * * * * * * * * * * * * * * * * * * * * * * * * * * * * //

dimensions      [0 -3 0 0 0 0 0];

internalField   nonuniform List<scalar> 
200
(
7505674.1
0.10054082
0.10007737
0.10000904
0.10000137
0.10000067
0.10000062
0.10000062
0.10000062
0.10000062
0.10000062
0.10000062
0.10000062
0.10000062
0.10000062
0.10000062
0.10000062
0.10000062
0.10000062
0.10000062
0.10000062
0.10000062
0.10000062
0.10000061
0.10000061
0.10000061
0.10000061
0.10000061
0.10000061
0.10000061
0.10000061
0.10000061
0.10000061
0.10000061
0.10000061
0.10000061
0.10000061
0.10000061
0.10000061
0.10000061
0.10000061
0.10000061
0.10000061
0.10000061
0.10000061
0.10000061
0.10000061
0.10000061
0.10000061
0.10000061
0.10000061
0.10000061
0.10000061
0.10000061
0.10000061
0.10000061
0.10000061
0.10000061
0.10000061
0.10000061
0.10000061
0.1000006
0.1000006
0.1000006
0.1000006
0.1000006
0.1000006
0.1000006
0.1000006
0.1000006
0.1000006
0.1000006
0.1000006
0.1000006
0.1000006
0.1000006
0.1000006
0.1000006
0.1000006
0.1000006
0.1000006
0.1000006
0.1000006
0.10000059
0.10000059
0.10000059
0.10000059
0.10000059
0.10000059
0.10000059
0.10000059
0.10000059
0.10000059
0.10000059
0.10000059
0.10000059
0.10000059
0.10000059
0.10000059
0.10000058
0.10000058
0.10000058
0.10000058
0.10000058
0.10000058
0.10000058
0.10000058
0.10000058
0.10000058
0.10000058
0.10000057
0.10000057
0.10000057
0.10000057
0.10000057
0.10000057
0.10000057
0.10000057
0.10000057
0.10000056
0.10000056
0.10000056
0.10000056
0.10000056
0.10000056
0.10000056
0.10000056
0.10000055
0.10000055
0.10000055
0.10000055
0.10000055
0.10000055
0.10000054
0.10000054
0.10000054
0.10000054
0.10000054
0.10000054
0.10000053
0.10000053
0.10000053
0.10000053
0.10000052
0.10000052
0.10000052
0.10000052
0.10000051
0.10000051
0.10000051
0.10000051
0.1000005
0.1000005
0.10000049
0.1000005
0.10000048
0.1000005
0.10000047
0.10000049
0.10000046
0.10000049
0.10000045
0.10000048
0.10000043
0.10000048
0.10000042
0.10000048
0.10000039
0.10000048
0.10000037
0.10000048
0.10000033
0.10000049
0.10000029
0.10000052
0.10000023
0.10000056
0.10000014
0.10000062
0.10000004
0.10000069
0.099999902
0.1000008
0.099999741
0.10000092
0.099999555
0.10000107
0.099999347
0.10000123
0.099999123
0.10000142
0.099998867
0.10000155
0.099998673
0.10000172
0.099998454
0.10000179
0.099998338
0.10000181
0.099998254
)
;

boundaryField
{
    left
    {
        type            zeroGradient;
    }
    right
    {
        type            zeroGradient;
    }
    walls
    {
        type            zeroGradient;
    }
    centreline
    {
        type            zeroGradient;
    }
    frontAndBack
    {
        type            zeroGradient;
    }
}


// ************************************************************************* //
