/*--------------------------------*- C++ -*----------------------------------*\
  =========                 |
  \\      /  F ield         | OpenFOAM: The Open Source CFD Toolbox
   \\    /   O peration     | Website:  https://openfoam.org
    \\  /    A nd           | Version:  8
     \\/     M anipulation  |
\*---------------------------------------------------------------------------*/
FoamFile
{
    version     2.0;
    format      ascii;
    class       volScalarField;
    location    "0.2";
    object      p;
}
// * * * * * * * * * * * * * * * * * * * * * * * * * * * * * * * * * * * * * //

dimensions      [1 -1 -2 0 0 0 0];

internalField   nonuniform List<scalar> 
200
(
4247.0296
4247.0297
4247.0297
4247.0297
4247.0297
4247.0296
4247.0296
4247.0296
4247.0296
4247.0296
4247.0296
4247.0296
4247.0296
4247.0296
4247.0296
4247.0296
4247.0296
4247.0296
4247.0296
4247.0295
4247.0295
4247.0295
4247.0295
4247.0295
4247.0295
4247.0295
4247.0295
4247.0295
4247.0295
4247.0295
4247.0295
4247.0294
4247.0294
4247.0294
4247.0294
4247.0294
4247.0294
4247.0294
4247.0294
4247.0294
4247.0293
4247.0293
4247.0293
4247.0293
4247.0293
4247.0293
4247.0293
4247.0293
4247.0292
4247.0292
4247.0292
4247.0292
4247.0292
4247.0292
4247.0291
4247.0291
4247.0291
4247.0291
4247.0291
4247.0291
4247.029
4247.029
4247.029
4247.029
4247.029
4247.029
4247.0289
4247.0289
4247.0289
4247.0289
4247.0289
4247.0288
4247.0288
4247.0288
4247.0288
4247.0287
4247.0287
4247.0287
4247.0287
4247.0286
4247.0286
4247.0286
4247.0286
4247.0285
4247.0285
4247.0285
4247.0285
4247.0284
4247.0284
4247.0284
4247.0283
4247.0283
4247.0283
4247.0283
4247.0282
4247.0282
4247.0282
4247.0281
4247.0281
4247.0281
4247.028
4247.028
4247.0279
4247.0279
4247.0279
4247.0278
4247.0278
4247.0277
4247.0277
4247.0276
4247.0276
4247.0276
4247.0275
4247.0275
4247.0274
4247.0274
4247.0273
4247.0272
4247.0272
4247.0271
4247.0271
4247.027
4247.0269
4247.0269
4247.0268
4247.0268
4247.0267
4247.0266
4247.0265
4247.0265
4247.0264
4247.0263
4247.0262
4247.0262
4247.0261
4247.026
4247.0259
4247.0258
4247.0257
4247.0256
4247.0255
4247.0254
4247.0253
4247.0252
4247.0251
4247.0249
4247.0249
4247.0247
4247.0247
4247.0243
4247.0244
4247.024
4247.0242
4247.0236
4247.024
4247.0232
4247.0238
4247.0227
4247.0237
4247.0221
4247.0235
4247.0215
4247.0233
4247.0208
4247.0231
4247.02
4247.023
4247.019
4247.023
4247.0177
4247.0232
4247.0161
4247.0238
4247.0138
4247.025
4247.0108
4247.0269
4247.0068
4247.0297
4247.0016
4247.0335
4246.9952
4247.0384
4246.9874
4247.0445
4246.9784
4247.0515
4246.9684
4247.0594
4246.9572
4247.0668
4246.9469
4247.0763
4246.9345
4247.0828
4246.9254
4247.0865
4246.9194
4247.0876
4246.9169
)
;

boundaryField
{
    left
    {
        type            zeroGradient;
    }
    right
    {
        type            zeroGradient;
    }
    walls
    {
        type            zeroGradient;
    }
    centreline
    {
        type            fixedValue;
        value           uniform 4247;
    }
    frontAndBack
    {
        type            zeroGradient;
    }
}


// ************************************************************************* //
