/*--------------------------------*- C++ -*----------------------------------*\
  =========                 |
  \\      /  F ield         | OpenFOAM: The Open Source CFD Toolbox
   \\    /   O peration     | Website:  https://openfoam.org
    \\  /    A nd           | Version:  8
     \\/     M anipulation  |
\*---------------------------------------------------------------------------*/
FoamFile
{
    version     2.0;
    format      ascii;
    class       surfaceScalarField;
    location    "0.2";
    object      phi;
}
// * * * * * * * * * * * * * * * * * * * * * * * * * * * * * * * * * * * * * //

dimensions      [1 0 -1 0 0 0 0];

internalField   nonuniform List<scalar> 
199
(
-0.00029863059
-0.00042768873
-0.00045687745
-0.00046158229
-0.00046239256
-0.00046274711
-0.00046306139
-0.0004633746
-0.00046368982
-0.00046400724
-0.00046432691
-0.00046464884
-0.00046497305
-0.00046529956
-0.0004656284
-0.00046595959
-0.00046629315
-0.0004666291
-0.00046696747
-0.00046730828
-0.00046765156
-0.00046799734
-0.00046834565
-0.00046869651
-0.00046904995
-0.00046940601
-0.00046976472
-0.0004701261
-0.00047049019
-0.00047085703
-0.00047122665
-0.00047159908
-0.00047197436
-0.00047235253
-0.00047273362
-0.00047311767
-0.00047350472
-0.0004738948
-0.00047428794
-0.0004746842
-0.0004750836
-0.00047548618
-0.00047589198
-0.00047630103
-0.00047671337
-0.00047712904
-0.00047754806
-0.00047797048
-0.00047839633
-0.00047882564
-0.00047925845
-0.00047969479
-0.0004801347
-0.0004805782
-0.00048102534
-0.00048147613
-0.00048193063
-0.00048238886
-0.00048285086
-0.00048331666
-0.0004837863
-0.00048425981
-0.00048473724
-0.00048521861
-0.00048570397
-0.00048619335
-0.00048668679
-0.00048718434
-0.00048768604
-0.00048819191
-0.00048870202
-0.00048921639
-0.00048973508
-0.00049025812
-0.00049078557
-0.00049131747
-0.00049185388
-0.00049239484
-0.00049294041
-0.00049349065
-0.00049404563
-0.00049460542
-0.00049517009
-0.00049573973
-0.00049631443
-0.00049689429
-0.00049747943
-0.00049806997
-0.00049866604
-0.00049926779
-0.00049987538
-0.00050048899
-0.00050110881
-0.00050173504
-0.00050236791
-0.00050300765
-0.00050365451
-0.00050430876
-0.00050497069
-0.00050564058
-0.00050631875
-0.00050700552
-0.00050770123
-0.00050840622
-0.00050912085
-0.00050984548
-0.00051058048
-0.00051132624
-0.00051208312
-0.00051285153
-0.00051363184
-0.00051442445
-0.00051522972
-0.00051604804
-0.00051687977
-0.00051772529
-0.00051858494
-0.00051945905
-0.00052034794
-0.00052125193
-0.00052217128
-0.00052310626
-0.0005240571
-0.00052502398
-0.00052600706
-0.00052700646
-0.00052802221
-0.0005290543
-0.00053010264
-0.00053116702
-0.00053224714
-0.00053334258
-0.00053445278
-0.00053557703
-0.00053671454
-0.00053786429
-0.00053902539
-0.00054019658
-0.00054137718
-0.00054256586
-0.00054376267
-0.00054496639
-0.00054617859
-0.00054739816
-0.00054862888
-0.00054986955
-0.00055112638
-0.00055239741
-0.00055369074
-0.0005550027
-0.00055634187
-0.00055770197
-0.00055909053
-0.00056049819
-0.00056193083
-0.00056337634
-0.00056484043
-0.00056630861
-0.00056779094
-0.00056926853
-0.00057076437
-0.00057224653
-0.00057376621
-0.0005752568
-0.00057682674
-0.00057833028
-0.0005799898
-0.00058149851
-0.00058329716
-0.00058477979
-0.00058677807
-0.00058817636
-0.00059044688
-0.00059167825
-0.0005942996
-0.00059525438
-0.00059829294
-0.00059881812
-0.0006023198
-0.00060222653
-0.00060627682
-0.00060546965
-0.00061027294
-0.00060896889
-0.00061463966
-0.0006132105
-0.00061942129
-0.00061777098
-0.00062725115
-0.0006177289
-0.00057160837
-0.00062401127
-0.00066677086
-0.0006324778
-0.00062580192
-0.00063762219
-0.00063315273
-0.00064080479
-0.00063351909
)
;

boundaryField
{
    left
    {
        type            calculated;
        value           uniform 0;
    }
    right
    {
        type            calculated;
        value           uniform 0;
    }
    walls
    {
        type            calculated;
        value           uniform 0;
    }
    centreline
    {
        type            calculated;
        value           uniform -0.00064709648;
    }
    frontAndBack
    {
        type            calculated;
        value           uniform 0;
    }
}


// ************************************************************************* //
