/*--------------------------------*- C++ -*----------------------------------*\
  =========                 |
  \\      /  F ield         | OpenFOAM: The Open Source CFD Toolbox
   \\    /   O peration     | Website:  https://openfoam.org
    \\  /    A nd           | Version:  8
     \\/     M anipulation  |
\*---------------------------------------------------------------------------*/
FoamFile
{
    version     2.0;
    format      ascii;
    class       volScalarField;
    location    "0.2";
    object      T;
}
// * * * * * * * * * * * * * * * * * * * * * * * * * * * * * * * * * * * * * //

dimensions      [0 0 0 1 0 0 0];

internalField   nonuniform List<scalar> 
200
(
294.17386
301.2311
302.74925
302.97254
302.9976
302.99985
303.00002
303.00003
303.00003
303.00003
303.00003
303.00003
303.00003
303.00003
303.00003
303.00003
303.00003
303.00003
303.00003
303.00003
303.00003
303.00003
303.00003
303.00003
303.00003
303.00003
303.00003
303.00003
303.00003
303.00003
303.00003
303.00003
303.00003
303.00003
303.00003
303.00003
303.00003
303.00003
303.00003
303.00003
303.00003
303.00003
303.00003
303.00003
303.00003
303.00003
303.00003
303.00003
303.00003
303.00003
303.00003
303.00003
303.00003
303.00003
303.00003
303.00003
303.00003
303.00003
303.00003
303.00003
303.00003
303.00003
303.00003
303.00003
303.00003
303.00003
303.00003
303.00003
303.00003
303.00003
303.00003
303.00003
303.00003
303.00003
303.00003
303.00003
303.00003
303.00003
303.00003
303.00003
303.00003
303.00003
303.00003
303.00003
303.00003
303.00003
303.00003
303.00003
303.00003
303.00003
303.00003
303.00003
303.00003
303.00003
303.00003
303.00003
303.00003
303.00003
303.00003
303.00003
303.00003
303.00003
303.00003
303.00003
303.00003
303.00003
303.00003
303.00003
303.00003
303.00003
303.00003
303.00003
303.00003
303.00003
303.00003
303.00003
303.00003
303.00003
303.00003
303.00003
303.00003
303.00003
303.00003
303.00003
303.00003
303.00003
303.00003
303.00003
303.00003
303.00003
303.00003
303.00003
303.00003
303.00003
303.00003
303.00003
303.00003
303.00003
303.00003
303.00003
303.00003
303.00003
303.00003
303.00003
303.00003
303.00003
303.00003
303.00003
303.00003
303.00003
303.00003
303.00003
303.00003
303.00003
303.00003
303.00003
303.00003
303.00003
303.00003
303.00003
303.00003
303.00003
303.00003
303.00002
303.00003
303.00002
303.00003
303.00002
303.00003
303.00002
303.00003
303.00002
303.00003
303.00002
303.00003
303.00001
303.00003
303.00001
303.00003
303
303.00003
303
303.00004
302.99999
303.00004
302.99998
303.00005
302.99997
303.00005
302.99996
303.00006
302.99995
303.00006
302.99994
303.00006
302.99993
303.00006
302.99993
303.00005
302.99991
)
;

boundaryField
{
    left
    {
        type            zeroGradient;
    }
    right
    {
        type            zeroGradient;
    }
    walls
    {
        type            fixedValue;
        value           uniform 293;
    }
    centreline
    {
        type            fixedValue;
        value           uniform 303;
    }
    frontAndBack
    {
        type            zeroGradient;
    }
}


// ************************************************************************* //
