/*--------------------------------*- C++ -*----------------------------------*\
  =========                 |
  \\      /  F ield         | OpenFOAM: The Open Source CFD Toolbox
   \\    /   O peration     | Website:  https://openfoam.org
    \\  /    A nd           | Version:  8
     \\/     M anipulation  |
\*---------------------------------------------------------------------------*/
FoamFile
{
    version     2.0;
    format      ascii;
    class       volVectorField;
    location    "0.2";
    object      U;
}
// * * * * * * * * * * * * * * * * * * * * * * * * * * * * * * * * * * * * * //

dimensions      [0 1 -1 0 0 0 0];

internalField   nonuniform List<vector> 
200
(
(0 -0.0013522584 0)
(0 -0.0032696935 0)
(0 -0.003736989 0)
(0 -0.0037926806 0)
(0 -0.0038062282 0)
(0 -0.0038092696 0)
(0 -0.0038105214 0)
(0 -0.0038148405 0)
(0 -0.0038157445 0)
(0 -0.0038197872 0)
(0 -0.0038212543 0)
(0 -0.0038247895 0)
(0 -0.0038267752 0)
(0 -0.0038299537 0)
(0 -0.003832286 0)
(0 -0.0038352681 0)
(0 -0.003837814 0)
(0 -0.0038407066 0)
(0 -0.0038433852 0)
(0 -0.0038462503 0)
(0 -0.0038490175 0)
(0 -0.0038518888 0)
(0 -0.0038547216 0)
(0 -0.0038576171 0)
(0 -0.0038605042 0)
(0 -0.0038634335 0)
(0 -0.0038663699 0)
(0 -0.0038693384 0)
(0 -0.0038723219 0)
(0 -0.0038753329 0)
(0 -0.0038783632 0)
(0 -0.0038814189 0)
(0 -0.0038844962 0)
(0 -0.0038875983 0)
(0 -0.0038907235 0)
(0 -0.0038938734 0)
(0 -0.0038970475 0)
(0 -0.0039002467 0)
(0 -0.0039034708 0)
(0 -0.0039067205 0)
(0 -0.0039099958 0)
(0 -0.0039132972 0)
(0 -0.003916625 0)
(0 -0.0039199794 0)
(0 -0.0039233607 0)
(0 -0.0039267693 0)
(0 -0.0039302054 0)
(0 -0.0039336693 0)
(0 -0.0039371614 0)
(0 -0.0039406818 0)
(0 -0.0039442308 0)
(0 -0.0039478089 0)
(0 -0.0039514161 0)
(0 -0.0039550529 0)
(0 -0.0039587194 0)
(0 -0.0039624159 0)
(0 -0.0039661428 0)
(0 -0.0039699003 0)
(0 -0.0039736887 0)
(0 -0.0039775082 0)
(0 -0.0039813592 0)
(0 -0.003985242 0)
(0 -0.0039891568 0)
(0 -0.0039931039 0)
(0 -0.0039970837 0)
(0 -0.0040010965 0)
(0 -0.0040051425 0)
(0 -0.0040092222 0)
(0 -0.0040133357 0)
(0 -0.0040174836 0)
(0 -0.004021666 0)
(0 -0.0040258834 0)
(0 -0.0040301361 0)
(0 -0.0040344244 0)
(0 -0.0040387488 0)
(0 -0.0040431095 0)
(0 -0.0040475071 0)
(0 -0.0040519419 0)
(0 -0.0040564144 0)
(0 -0.0040609251 0)
(0 -0.0040654744 0)
(0 -0.004070063 0)
(0 -0.0040746914 0)
(0 -0.0040793603 0)
(0 -0.0040840704 0)
(0 -0.0040888225 0)
(0 -0.0040936176 0)
(0 -0.0040984565 0)
(0 -0.0041033404 0)
(0 -0.0041082703 0)
(0 -0.0041132477 0)
(0 -0.0041182738 0)
(0 -0.0041233503 0)
(0 -0.0041284786 0)
(0 -0.0041336607 0)
(0 -0.0041388983 0)
(0 -0.0041441936 0)
(0 -0.0041495486 0)
(0 -0.0041549656 0)
(0 -0.004160447 0)
(0 -0.0041659953 0)
(0 -0.0041716131 0)
(0 -0.0041773031 0)
(0 -0.0041830682 0)
(0 -0.0041889112 0)
(0 -0.0041948351 0)
(0 -0.004200843 0)
(0 -0.0042069379 0)
(0 -0.0042131229 0)
(0 -0.0042194013 0)
(0 -0.0042257762 0)
(0 -0.0042322508 0)
(0 -0.0042388282 0)
(0 -0.0042455115 0)
(0 -0.0042523039 0)
(0 -0.0042592083 0)
(0 -0.0042662277 0)
(0 -0.0042733649 0)
(0 -0.0042806225 0)
(0 -0.0042880031 0)
(0 -0.0042955092 0)
(0 -0.0043031429 0)
(0 -0.0043109061 0)
(0 -0.0043188009 0)
(0 -0.0043268279 0)
(0 -0.0043349902 0)
(0 -0.0043432835 0)
(0 -0.0043517194 0)
(0 -0.0043602723 0)
(0 -0.0043689946 0)
(0 -0.0043777721 0)
(0 -0.0043868325 0)
(0 -0.0043957074 0)
(0 -0.0044053076 0)
(0 -0.004413857 0)
(0 -0.0044246982 0)
(0 -0.0044316137 0)
(0 -0.0044458678 0)
(0 -0.0044474081 0)
(0 -0.0044711307 0)
(0 -0.0044575076 0)
(0 -0.0045059235 0)
(0 -0.0044538987 0)
(0 -0.0045614499 0)
(0 -0.0044213376 0)
(0 -0.0046577677 0)
(0 -0.0043346708 0)
(0 -0.0048255466 0)
(0 -0.0041586274 0)
(0 -0.0051042647 0)
(0 -0.0038515976 0)
(0 -0.0055366898 0)
(0 -0.0033718555 0)
(0 -0.0061626282 0)
(0 -0.0026826981 0)
(0 -0.00701515 0)
(0 -0.0017544849 0)
(0 -0.0081200926 0)
(0 -0.00056389469 0)
(0 -0.009498048 0)
(0 0.00090877661 0)
(0 -0.011168256 0)
(0 0.0026842749 0)
(0 -0.013154727 0)
(0 0.0047918849 0)
(0 -0.015495526 0)
(0 0.0072807008 0)
(0 -0.018255612 0)
(0 0.010233885 0)
(0 -0.021540804 0)
(0 0.013781024 0)
(0 -0.025505859 0)
(0 0.018099938 0)
(0 -0.030348425 0)
(0 0.023402604 0)
(0 -0.036288407 0)
(0 0.029910845 0)
(0 -0.043542713 0)
(0 0.037833804 0)
(0 -0.052306376 0)
(0 0.047353788 0)
(0 -0.062743847 0)
(0 0.058618076 0)
(0 -0.074986061 0)
(0 0.071731974 0)
(0 -0.089122705 0)
(0 0.086755683 0)
(0 -0.10519301 0)
(0 0.10371678 0)
(0 -0.12317855 0)
(0 0.12257254 0)
(0 -0.14301157 0)
(0 0.14321388 0)
(0 -0.16469967 0)
(0 0.16560881 0)
(0 -0.18775351 0)
(0 0.18919397 0)
(0 -0.21184452 0)
(0 0.21369793 0)
(0 -0.23657966 0)
)
;

boundaryField
{
    left
    {
        type            noSlip;
    }
    right
    {
        type            noSlip;
    }
    walls
    {
        type            noSlip;
    }
    centreline
    {
        type            noSlip;
    }
    frontAndBack
    {
        type            noSlip;
    }
}


// ************************************************************************* //
