/*--------------------------------*- C++ -*----------------------------------*\
  =========                 |
  \\      /  F ield         | OpenFOAM: The Open Source CFD Toolbox
   \\    /   O peration     | Website:  https://openfoam.org
    \\  /    A nd           | Version:  8
     \\/     M anipulation  |
\*---------------------------------------------------------------------------*/
FoamFile
{
    version     2.0;
    format      ascii;
    class       volScalarField;
    location    "1";
    object      N;
}
// * * * * * * * * * * * * * * * * * * * * * * * * * * * * * * * * * * * * * //

dimensions      [0 -3 0 0 0 0 0];

internalField   nonuniform List<scalar> 
200
(
1.2970446e+11
12065559
692.23321
0.13925062
0.10000225
0.10000046
0.10000068
0.1000008
0.10000086
0.10000089
0.10000091
0.10000092
0.10000093
0.10000093
0.10000093
0.10000093
0.10000093
0.10000093
0.10000094
0.10000094
0.10000094
0.10000094
0.10000095
0.10000095
0.10000095
0.10000095
0.10000095
0.10000095
0.10000096
0.10000095
0.10000096
0.10000095
0.10000096
0.10000095
0.10000096
0.10000095
0.10000096
0.10000095
0.10000096
0.10000095
0.10000096
0.10000094
0.10000096
0.10000093
0.10000095
0.10000093
0.10000095
0.10000092
0.10000095
0.10000091
0.10000094
0.1000009
0.10000094
0.1000009
0.10000093
0.10000089
0.10000093
0.10000088
0.10000093
0.10000088
0.10000093
0.10000088
0.10000093
0.10000088
0.10000094
0.10000087
0.10000094
0.10000087
0.10000095
0.10000087
0.10000095
0.10000087
0.10000095
0.10000087
0.10000096
0.10000087
0.10000096
0.10000086
0.10000096
0.10000086
0.10000096
0.10000085
0.10000096
0.10000085
0.10000096
0.10000084
0.10000096
0.10000084
0.10000096
0.10000083
0.10000096
0.10000083
0.10000096
0.10000082
0.10000096
0.10000081
0.10000096
0.10000081
0.10000097
0.1000008
0.10000097
0.1000008
0.10000097
0.1000008
0.10000098
0.1000008
0.10000099
0.10000079
0.10000099
0.10000079
0.100001
0.10000079
0.100001
0.10000079
0.10000101
0.10000078
0.10000101
0.10000078
0.10000102
0.10000077
0.10000103
0.10000076
0.10000103
0.10000075
0.10000104
0.10000073
0.10000104
0.10000072
0.10000105
0.10000072
0.10000104
0.10000069
0.10000105
0.10000067
0.10000105
0.10000064
0.10000105
0.10000061
0.10000104
0.10000058
0.10000104
0.10000055
0.10000103
0.10000049
0.10000102
0.1000005
0.10000097
0.10000044
0.10000106
0.10000036
0.10000095
0.10000042
0.10000092
0.10000039
0.10000097
0.10000036
0.10000088
0.10000039
0.10000088
0.10000038
0.10000089
0.10000034
0.10000079
0.10000041
0.10000084
0.10000034
0.10000078
0.10000034
0.10000076
0.10000035
0.10000071
0.10000037
0.10000072
0.10000034
0.1000007
0.10000032
0.10000059
0.10000039
0.10000061
0.10000035
0.10000052
0.10000039
0.10000049
0.10000037
0.10000037
0.10000045
0.10000027
0.1000005
0.10000018
0.10000053
0.10000004
0.10000061
0.1
0.10000057
0.099999898
0.10000061
0.099999713
0.10000079
0.099999238
0.10000003
)
;

boundaryField
{
    left
    {
        type            zeroGradient;
    }
    right
    {
        type            zeroGradient;
    }
    walls
    {
        type            zeroGradient;
    }
    centreline
    {
        type            zeroGradient;
    }
    frontAndBack
    {
        type            zeroGradient;
    }
}


// ************************************************************************* //
