/*--------------------------------*- C++ -*----------------------------------*\
  =========                 |
  \\      /  F ield         | OpenFOAM: The Open Source CFD Toolbox
   \\    /   O peration     | Website:  https://openfoam.org
    \\  /    A nd           | Version:  8
     \\/     M anipulation  |
\*---------------------------------------------------------------------------*/
FoamFile
{
    version     2.0;
    format      ascii;
    class       volScalarField;
    location    "1";
    object      p;
}
// * * * * * * * * * * * * * * * * * * * * * * * * * * * * * * * * * * * * * //

dimensions      [1 -1 -2 0 0 0 0];

internalField   nonuniform List<scalar> 
200
(
101325.42
101325.42
101325.42
101325.42
101325.42
101325.42
101325.42
101325.42
101325.42
101325.42
101325.42
101325.42
101325.42
101325.42
101325.42
101325.42
101325.42
101325.42
101325.42
101325.42
101325.42
101325.41
101325.42
101325.41
101325.42
101325.41
101325.42
101325.41
101325.42
101325.41
101325.42
101325.41
101325.42
101325.41
101325.42
101325.41
101325.42
101325.41
101325.43
101325.41
101325.43
101325.41
101325.43
101325.4
101325.43
101325.4
101325.43
101325.4
101325.43
101325.4
101325.44
101325.39
101325.44
101325.39
101325.44
101325.39
101325.44
101325.38
101325.45
101325.38
101325.45
101325.38
101325.45
101325.37
101325.46
101325.37
101325.46
101325.36
101325.46
101325.36
101325.47
101325.36
101325.47
101325.35
101325.48
101325.34
101325.48
101325.34
101325.49
101325.33
101325.49
101325.33
101325.5
101325.32
101325.5
101325.31
101325.51
101325.3
101325.51
101325.3
101325.52
101325.29
101325.53
101325.28
101325.53
101325.27
101325.54
101325.26
101325.55
101325.25
101325.55
101325.24
101325.56
101325.23
101325.57
101325.22
101325.57
101325.21
101325.58
101325.2
101325.59
101325.19
101325.6
101325.18
101325.61
101325.17
101325.61
101325.15
101325.62
101325.14
101325.63
101325.13
101325.64
101325.12
101325.64
101325.1
101325.65
101325.09
101325.66
101325.08
101325.66
101325.07
101325.67
101325.05
101325.68
101325.04
101325.68
101325.03
101325.69
101325.02
101325.69
101325
101325.69
101324.99
101325.69
101324.98
101325.69
101324.97
101325.69
101324.96
101325.68
101324.95
101325.68
101324.94
101325.67
101324.93
101325.67
101324.92
101325.66
101324.91
101325.65
101324.9
101325.64
101324.9
101325.63
101324.89
101325.61
101324.88
101325.6
101324.88
101325.59
101324.87
101325.58
101324.86
101325.56
101324.85
101325.55
101324.83
101325.55
101324.82
101325.54
101324.8
101325.54
101324.78
101325.53
101324.76
101325.53
101324.74
101325.52
101324.73
101325.51
101324.72
101325.48
101324.74
101325.42
101324.79
101325.32
101324.9
101325.16
101325.06
)
;

boundaryField
{
    left
    {
        type            zeroGradient;
    }
    right
    {
        type            zeroGradient;
    }
    walls
    {
        type            zeroGradient;
    }
    centreline
    {
        type            fixedValue;
        value           uniform 101325;
    }
    frontAndBack
    {
        type            zeroGradient;
    }
}


// ************************************************************************* //
