/*--------------------------------*- C++ -*----------------------------------*\
  =========                 |
  \\      /  F ield         | OpenFOAM: The Open Source CFD Toolbox
   \\    /   O peration     | Website:  https://openfoam.org
    \\  /    A nd           | Version:  8
     \\/     M anipulation  |
\*---------------------------------------------------------------------------*/
FoamFile
{
    version     2.0;
    format      ascii;
    class       surfaceScalarField;
    location    "1";
    object      phi;
}
// * * * * * * * * * * * * * * * * * * * * * * * * * * * * * * * * * * * * * //

dimensions      [1 0 -1 0 0 0 0];

internalField   nonuniform List<scalar> 
199
(
-1.1014842e-05
-1.9134958e-05
-2.7265359e-05
-3.5449783e-05
-4.3692343e-05
-5.1988354e-05
-6.034396e-05
-6.8751726e-05
-7.7220684e-05
-8.5740297e-05
-9.4322842e-05
-0.00010295423
-0.00011165052
-0.00012039337
-0.00012920346
-0.0001380571
-0.00014698093
-0.00015594425
-0.00016498162
-0.00017405292
-0.00018320338
-0.00019238026
-0.00020164306
-0.00021092227
-0.00022029623
-0.00022967353
-0.00023915695
-0.00024862704
-0.00025821778
-0.00026777437
-0.00027747007
-0.00028710612
-0.00029690466
-0.00030661292
-0.00031651305
-0.00032628658
-0.00033628825
-0.00034612076
-0.00035622504
-0.00036611069
-0.00037631934
-0.00038625228
-0.00039656802
-0.00040654046
-0.00041695917
-0.00042692417
-0.00043729568
-0.0004470881
-0.00045667702
-0.00046681638
-0.00047540236
-0.00048834765
-0.00049963829
-0.00051015658
-0.00052069997
-0.00053120067
-0.00054177393
-0.00055236889
-0.00056299979
-0.00057365301
-0.00058433865
-0.00059503386
-0.00060577083
-0.00061650222
-0.00062728434
-0.00063804822
-0.00064886484
-0.00065965421
-0.00067049077
-0.00068129474
-0.00069213517
-0.00070294109
-0.0007137697
-0.00072456469
-0.00073536643
-0.0007461374
-0.00075689717
-0.00076763057
-0.00077833283
-0.00078901463
-0.00079964353
-0.0008102594
-0.00082079868
-0.0008313337
-0.0008417661
-0.00085220374
-0.0008625099
-0.00087283099
-0.00088298857
-0.00089317063
-0.00090315409
-0.00091317134
-0.0009229522
-0.00093277593
-0.00094232305
-0.00095192208
-0.0009612017
-0.00097054155
-0.00097951946
-0.00098856472
-0.00099720451
-0.0010059179
-0.0010141822
-0.0010225253
-0.0010303752
-0.0010383074
-0.0010457013
-0.0010531789
-0.0010600712
-0.0010670471
-0.001073389
-0.0010798152
-0.0010855573
-0.0010913881
-0.0010964847
-0.0011016818
-0.0011060946
-0.0011106299
-0.0011143309
-0.0011181885
-0.0011211605
-0.0011243362
-0.0011265715
-0.001129069
-0.0011305638
-0.001132386
-0.0011331277
-0.0011342592
-0.0011342043
-0.0011345845
-0.001133628
-0.0011331176
-0.0011310592
-0.0011294093
-0.0011259301
-0.0011227712
-0.0011174401
-0.0011123105
-0.0011046426
-0.0010970774
-0.0010866557
-0.0010763343
-0.001062976
-0.0010498843
-0.0010337803
-0.0010182962
-0.0010000203
-0.0009828228
-0.00096313864
-0.00094492012
-0.00092443406
-0.00090554343
-0.00088440042
-0.00086465447
-0.00084251076
-0.00082134849
-0.00079768306
-0.00077457739
-0.00074911044
-0.00072389989
-0.00069675608
-0.00066960804
-0.00064110151
-0.00061219515
-0.00058251418
-0.00055182466
-0.00052096946
-0.00048835713
-0.00045631533
-0.00042171144
-0.00038856513
-0.00035199225
-0.00031784447
-0.00027934661
-0.00024426365
-0.00020395797
-0.00016803793
-0.00012627052
-8.9706512e-05
-4.7176347e-05
-1.0211396e-05
3.1944328e-05
6.9163392e-05
0.00010929224
0.00014698322
0.00018285791
0.00022196556
0.00025067259
0.00029314317
0.00031089056
0.00035965956
0.00036176068
0.00042029419
0.00040186396
0.00047321426
0.00043178096
0.00051946933
0.00046382735
0.00059907113
)
;

boundaryField
{
    left
    {
        type            calculated;
        value           uniform 0;
    }
    right
    {
        type            calculated;
        value           uniform 0;
    }
    walls
    {
        type            calculated;
        value           uniform 0;
    }
    centreline
    {
        type            calculated;
        value           uniform 0.00048922416;
    }
    frontAndBack
    {
        type            calculated;
        value           uniform 0;
    }
}


// ************************************************************************* //
