/*--------------------------------*- C++ -*----------------------------------*\
  =========                 |
  \\      /  F ield         | OpenFOAM: The Open Source CFD Toolbox
   \\    /   O peration     | Website:  https://openfoam.org
    \\  /    A nd           | Version:  8
     \\/     M anipulation  |
\*---------------------------------------------------------------------------*/
FoamFile
{
    version     2.0;
    format      ascii;
    class       volScalarField;
    location    "1";
    object      T;
}
// * * * * * * * * * * * * * * * * * * * * * * * * * * * * * * * * * * * * * //

dimensions      [0 0 0 1 0 0 0];

internalField   nonuniform List<scalar> 
200
(
276.11905
370.9324
372.98436
373.00352
373.00125
372.99965
372.99874
372.99826
372.99801
372.99789
372.99782
372.99778
372.99776
372.99776
372.99775
372.99775
372.99774
372.99773
372.99772
372.9977
372.99769
372.99768
372.99767
372.99767
372.99766
372.99766
372.99766
372.99765
372.99765
372.99765
372.99764
372.99764
372.99763
372.99763
372.99763
372.99763
372.99763
372.99763
372.99764
372.99764
372.99765
372.99766
372.99767
372.99768
372.99769
372.9977
372.99772
372.99772
372.99774
372.99775
372.99776
372.99777
372.99779
372.99778
372.99781
372.9978
372.99783
372.99781
372.99784
372.99782
372.99785
372.99782
372.99785
372.99781
372.99785
372.9978
372.99785
372.99779
372.99785
372.99778
372.99784
372.99777
372.99784
372.99775
372.99785
372.99774
372.99785
372.99774
372.99786
372.99773
372.99787
372.99772
372.99789
372.99772
372.99791
372.99771
372.99793
372.99771
372.99795
372.9977
372.99798
372.9977
372.998
372.9977
372.99802
372.9977
372.99804
372.99769
372.99806
372.99767
372.99807
372.99765
372.99807
372.99762
372.99808
372.99759
372.99808
372.99757
372.99808
372.99754
372.99808
372.99751
372.99808
372.99748
372.99809
372.99746
372.99809
372.99744
372.99809
372.99743
372.99809
372.99743
372.99809
372.99744
372.99808
372.99745
372.9981
372.99747
372.99808
372.99743
372.99815
372.99752
372.99812
372.99755
372.99815
372.99761
372.99816
372.99771
372.99821
372.99781
372.9982
372.99789
372.99822
372.99809
372.99827
372.99803
372.99845
372.99825
372.99805
372.99856
372.99848
372.99829
372.99854
372.99839
372.99831
372.99851
372.9986
372.99839
372.99856
372.99844
372.99844
372.99865
372.99874
372.99837
372.99846
372.99868
372.99857
372.99874
372.99853
372.99874
372.99863
372.99871
372.99842
372.99893
372.99834
372.9991
372.99863
372.99888
372.99839
372.99915
372.99854
372.99914
372.99841
372.99938
372.99865
372.99927
372.99871
372.99932
372.99869
372.99959
372.99876
372.99971
372.9983
373.00049
372.99793
373.0011
372.9977
373.00138
372.99809
372.99979
)
;

boundaryField
{
    left
    {
        type            zeroGradient;
    }
    right
    {
        type            zeroGradient;
    }
    walls
    {
        type            fixedValue;
        value           uniform 371;
    }
    centreline
    {
        type            fixedValue;
        value           uniform 373;
    }
    frontAndBack
    {
        type            zeroGradient;
    }
}


// ************************************************************************* //
