/*--------------------------------*- C++ -*----------------------------------*\
  =========                 |
  \\      /  F ield         | OpenFOAM: The Open Source CFD Toolbox
   \\    /   O peration     | Website:  https://openfoam.org
    \\  /    A nd           | Version:  8
     \\/     M anipulation  |
\*---------------------------------------------------------------------------*/
FoamFile
{
    version     2.0;
    format      ascii;
    class       volVectorField;
    location    "1";
    object      U;
}
// * * * * * * * * * * * * * * * * * * * * * * * * * * * * * * * * * * * * * //

dimensions      [0 1 -1 0 0 0 0];

internalField   nonuniform List<vector> 
200
(
(0 8.3745491e-05 0)
(0 -9.3340737e-05 0)
(0 8.1822546e-05 0)
(0 -0.00011231046 0)
(0 9.2484078e-05 0)
(0 -0.00014205024 0)
(0 0.0001137409 0)
(0 -0.00018306286 0)
(0 0.00014664747 0)
(0 -0.00023654822 0)
(0 0.00019253127 0)
(0 -0.00030395167 0)
(0 0.00025294616 0)
(0 -0.00038692783 0)
(0 0.00032964083 0)
(0 -0.00048731361 0)
(0 0.00042453696 0)
(0 -0.0006071115 0)
(0 0.00053971775 0)
(0 -0.00074848279 0)
(0 0.00067742569 0)
(0 -0.00091374894 0)
(0 0.00084006692 0)
(0 -0.0011053977 0)
(0 0.0010302189 0)
(0 -0.001326091 0)
(0 0.0012506376 0)
(0 -0.0015786707 0)
(0 0.0015042622 0)
(0 -0.0018661606 0)
(0 0.0017942131 0)
(0 -0.0021917616 0)
(0 0.0021237838 0)
(0 -0.0025588404 0)
(0 0.0024964248 0)
(0 -0.0029709102 0)
(0 0.0029157192 0)
(0 -0.0034316041 0)
(0 0.0033853522 0)
(0 -0.0039446397 0)
(0 0.0039090719 0)
(0 -0.004513776 0)
(0 0.0044906402 0)
(0 -0.0051427518 0)
(0 0.0051337649 0)
(0 -0.0058351889 0)
(0 0.0058419715 0)
(0 -0.0065944124 0)
(0 0.0066183362 0)
(0 -0.0074232937 0)
(0 0.0074650851 0)
(0 -0.0083235509 0)
(0 0.0083840788 0)
(0 -0.0093017927 0)
(0 0.0093929287 0)
(0 -0.010378349 0)
(0 0.010503564 0)
(0 -0.011560233 0)
(0 0.011722487 0)
(0 -0.012853211 0)
(0 0.013054944 0)
(0 -0.014262347 0)
(0 0.014506088 0)
(0 -0.015792981 0)
(0 0.016081527 0)
(0 -0.017450996 0)
(0 0.017787431 0)
(0 -0.019242791 0)
(0 0.019630411 0)
(0 -0.021175114 0)
(0 0.02161735 0)
(0 -0.023254903 0)
(0 0.023755262 0)
(0 -0.025489174 0)
(0 0.026051187 0)
(0 -0.027884928 0)
(0 0.028512124 0)
(0 -0.030449102 0)
(0 0.031144985 0)
(0 -0.033188523 0)
(0 0.03395655 0)
(0 -0.036109868 0)
(0 0.036953437 0)
(0 -0.03921963 0)
(0 0.040142056 0)
(0 -0.042524082 0)
(0 0.04352859 0)
(0 -0.046029246 0)
(0 0.047118953 0)
(0 -0.049740857 0)
(0 0.050918771 0)
(0 -0.053664342 0)
(0 0.05493335 0)
(0 -0.057804795 0)
(0 0.059167661 0)
(0 -0.06216696 0)
(0 0.06362632 0)
(0 -0.066755218 0)
(0 0.068313589 0)
(0 -0.071573597 0)
(0 0.073233376 0)
(0 -0.076625771 0)
(0 0.078389248 0)
(0 -0.081915073 0)
(0 0.083784431 0)
(0 -0.087444503 0)
(0 0.089421838 0)
(0 -0.093216745 0)
(0 0.095304065 0)
(0 -0.099234166 0)
(0 0.10143341 0)
(0 -0.10549883 0)
(0 0.10781185 0)
(0 -0.11201247 0)
(0 0.11444104 0)
(0 -0.11877648 0)
(0 0.12132224 0)
(0 -0.12579184 0)
(0 0.12845627 0)
(0 -0.13305909 0)
(0 0.13584342 0)
(0 -0.14057819 0)
(0 0.14348338 0)
(0 -0.14834849 0)
(0 0.15137511 0)
(0 -0.15636855 0)
(0 0.15951676 0)
(0 -0.16463605 0)
(0 0.16790556 0)
(0 -0.17314767 0)
(0 0.17653773 0)
(0 -0.18189894 0)
(0 0.18540844 0)
(0 -0.19088412 0)
(0 0.19451165 0)
(0 -0.20009605 0)
(0 0.20384015 0)
(0 -0.20952612 0)
(0 0.21338533 0)
(0 -0.21916419 0)
(0 0.22313711 0)
(0 -0.2289987 0)
(0 0.23308377 0)
(0 -0.23901673 0)
(0 0.24321186 0)
(0 -0.24920425 0)
(0 0.25350616 0)
(0 -0.25954621 0)
(0 0.26395 0)
(0 -0.27002661 0)
(0 0.27452571 0)
(0 -0.28062861 0)
(0 0.28521538 0)
(0 -0.29133459 0)
(0 0.2960015 0)
(0 -0.30212676 0)
(0 0.30686732 0)
(0 -0.31298797 0)
(0 0.31779726 0)
(0 -0.32390274 0)
(0 0.32877721 0)
(0 -0.33485808 0)
(0 0.33979526 0)
(0 -0.345844 0)
(0 0.35084271 0)
(0 -0.35685401 0)
(0 0.36191494 0)
(0 -0.36788571 0)
(0 0.3730121 0)
(0 -0.37894167 0)
(0 0.38413957 0)
(0 -0.39003018 0)
(0 0.39530861 0)
(0 -0.40116575 0)
(0 0.40653674 0)
(0 -0.41236921 0)
(0 0.41784784 0)
(0 -0.4236676 0)
(0 0.42927129 0)
(0 -0.4350931 0)
(0 0.44084026 0)
(0 -0.44668056 0)
(0 0.45258815 0)
(0 -0.45846261 0)
(0 0.46454223 0)
(0 -0.47046128 0)
(0 0.47671304 0)
(0 -0.48267424 0)
(0 0.4890775 0)
(0 -0.49505396 0)
(0 0.50155397 0)
(0 -0.50747862 0)
(0 0.51396899 0)
(0 -0.51971575 0)
(0 0.52601905 0)
(0 -0.53138441 0)
(0 0.5372377 0)
(0 -0.54192575 0)
(0 0.54697625 0)
(0 -0.55064373 0)
)
;

boundaryField
{
    left
    {
        type            noSlip;
    }
    right
    {
        type            noSlip;
    }
    walls
    {
        type            noSlip;
    }
    centreline
    {
        type            noSlip;
    }
    frontAndBack
    {
        type            noSlip;
    }
}


// ************************************************************************* //
