/*--------------------------------*- C++ -*----------------------------------*\
  =========                 |
  \\      /  F ield         | OpenFOAM: The Open Source CFD Toolbox
   \\    /   O peration     | Website:  https://openfoam.org
    \\  /    A nd           | Version:  8
     \\/     M anipulation  |
\*---------------------------------------------------------------------------*/
FoamFile
{
    version     2.0;
    format      ascii;
    class       volScalarField;
    location    "0.500023";
    object      k;
}
// * * * * * * * * * * * * * * * * * * * * * * * * * * * * * * * * * * * * * //

dimensions      [0 2 -2 0 0 0 0];

internalField   nonuniform List<scalar> 
6800
(
23.0724
49.0827
46.4589
42.0427
37.6905
29.7557
21.1282
13.1473
8.73757
6.91253
17.1354
39.6418
41.092
38.8723
32.244
21.7897
13.3441
9.12353
6.56208
5.01782
18.4094
37.303
38.7679
35.2706
25.3868
15.414
10.1519
6.92862
4.7189
3.54445
19.2895
35.4409
36.7655
31.5701
19.2773
11.709
7.25121
4.99093
3.65525
3.00971
20.0528
34.7508
35.7095
26.7936
14.8044
8.65965
5.88864
4.28425
3.23574
2.57466
20.6245
35.2907
34.5179
21.3433
11.4853
7.30407
4.86601
3.43935
2.66843
2.27909
21.1682
37.0628
32.7698
16.9492
9.60252
5.87315
4.07454
3.13944
2.49496
2.17712
21.5098
38.7742
29.1757
13.9567
7.92672
5.2951
3.74599
2.74616
2.23333
1.99462
21.8725
40.8868
25.3601
12.3596
7.14944
4.53001
3.22845
2.56771
2.15417
1.94446
22.035
42.32
21.9424
10.5929
6.0504
4.2454
3.09699
2.38321
2.01077
1.83399
177.272
216.358
220.71
220.459
225.835
236.439
249.037
260.627
267.291
269.508
171.992
208.455
216.168
220.89
232.029
248.735
267.051
283.097
293.598
297.297
162.512
196.15
208.808
222.923
243.743
268.165
287.889
299.588
305.761
303.936
152.141
185.197
206.318
232.117
263.442
285.638
293.748
290.018
280.088
254.386
143.95
183.711
216.986
256.802
282.735
283.164
270.822
241.165
214.157
156.953
139.336
194.507
248.48
279.542
272.796
246.955
199.002
141.629
104.081
66.7314
140.673
222.17
271.531
256.405
209.902
137.481
90.8216
61.5002
50.0505
34.7846
141.024
239.4
225.134
159.597
94.0326
64.1619
48.5884
37.163
32.332
23.2139
126.157
170.521
114.274
71.6206
53.247
43.2429
34.9697
28.5887
24.6108
16.359
81.7307
77.7462
59.834
48.2398
41.8381
35.81
28.935
22.8569
15.1563
9.57206
266.352
252.805
238.494
224.782
212.437
201.759
192.565
184.606
177.648
171.506
166.032
161.121
156.684
152.649
148.957
145.562
142.419
139.491
136.745
134.156
131.702
129.365
127.13
124.984
122.915
120.91
118.959
117.05
115.177
113.336
111.524
109.745
107.999
106.291
104.621
102.993
101.408
99.8663
98.3685
96.9153
95.5072
94.1453
92.8307
91.565
90.349
89.1836
88.0683
87.0032
85.9871
85.0197
84.0993
83.2258
82.3974
81.6138
80.8728
80.1735
79.5136
78.8913
78.3042
77.7498
77.2251
76.7273
76.253
75.7987
75.3613
74.9386
74.5279
74.1292
73.7424
73.3686
73.0088
72.6622
72.3263
71.997
71.67
71.3399
71.0033
70.6558
70.2953
69.9186
69.5246
69.1113
68.6782
68.2244
67.7505
67.2569
66.745
66.2161
65.6719
65.1143
64.5454
63.9667
63.3813
62.7886
62.1959
61.5941
61.0052
60.3937
59.8284
59.1931
294.663
279.499
262.914
247.52
234.023
222.211
211.905
202.925
195.058
188.12
181.946
176.409
171.406
166.855
162.692
158.86
155.305
151.983
148.859
145.905
143.1
140.427
137.869
135.414
133.046
130.751
128.517
126.33
124.184
122.078
120.014
117.995
116.022
114.099
112.227
110.407
108.639
106.924
105.26
103.648
102.087
100.578
99.1226
97.7208
96.373
95.0797
93.8403
92.6557
91.5245
90.4466
89.4207
88.4467
87.5231
86.649
85.8223
85.0413
84.3033
83.6055
82.9454
82.3185
81.7209
81.1495
80.6009
80.0701
79.5547
79.0525
78.5611
78.0826
77.6198
77.1751
76.7503
76.3438
75.9502
75.5645
75.1818
74.7954
74.4022
73.998
73.5801
73.145
72.6918
72.2187
71.7255
71.2116
70.6777
70.1245
69.5536
68.9667
68.3655
67.7522
67.1288
66.4972
65.8605
65.2179
64.5774
63.9289
63.2968
62.6401
62.0397
61.3581
301.575
288.957
272.576
257.6
244.468
232.898
222.681
213.719
205.835
198.868
192.662
187.101
182.077
177.511
173.339
169.492
165.903
162.531
159.344
156.318
153.436
150.678
148.033
145.489
143.029
140.634
138.287
135.99
133.738
131.524
129.351
127.221
125.14
123.111
121.136
119.216
117.35
115.537
113.776
112.067
110.411
108.808
107.262
105.773
104.339
102.959
101.629
100.348
99.1137
97.9294
96.7955
95.7148
94.6879
93.7153
92.7971
91.9307
91.1142
90.3419
89.6111
88.9145
88.2487
87.6074
86.9848
86.3738
85.7746
85.1823
84.5935
84.0116
83.4416
82.8985
82.3951
81.928
81.4802
81.0431
80.6056
80.1589
79.7042
79.2354
78.7516
78.2514
77.7332
77.1931
76.6298
76.0427
75.4327
74.8016
74.1513
73.4847
72.8038
72.112
71.4111
70.7039
69.9932
69.2793
68.5694
67.8534
67.1581
66.436
65.7816
65.028
248.292
238.839
228.179
218.311
209.737
202.243
195.637
189.87
184.775
180.268
176.237
172.632
169.371
166.409
163.721
161.211
158.776
156.426
154.163
151.993
149.882
147.849
145.863
143.936
142.043
140.155
138.266
136.356
134.438
132.519
130.617
128.739
126.896
125.093
123.333
121.618
119.943
118.311
116.721
115.172
113.669
112.209
110.798
109.431
108.105
106.817
105.561
104.339
103.149
101.998
100.895
99.847
98.8579
97.9274
97.0594
96.2451
95.4871
94.7691
94.0959
93.4462
92.8147
92.2028
91.6081
91.0079
90.4111
89.8121
89.2051
88.5894
87.9514
87.3415
86.8408
86.4376
86.0418
85.6415
85.2318
84.7924
84.3382
83.8727
83.3899
82.8833
82.3509
81.7887
81.1957
80.5726
79.9214
79.2454
78.5474
77.8318
77.1011
76.36
75.6092
74.8542
74.0952
73.3355
72.5793
71.8201
71.0807
70.3174
69.625
68.828
145.824
136.169
129.049
123.972
120.754
118.729
117.551
117.071
116.827
116.885
117.122
117.557
118.061
118.598
119.164
119.499
119.457
119.392
119.324
119.366
119.18
119.123
118.892
118.69
118.412
118.004
117.483
116.847
116.122
115.321
114.482
113.613
112.726
111.838
110.939
110.046
109.142
108.242
107.344
106.451
105.577
104.719
103.902
103.111
102.344
101.56
100.748
99.9313
99.0872
98.2481
97.436
96.6643
95.9479
95.2871
94.6924
94.1302
93.6397
93.1525
92.7226
92.3164
91.9226
91.5184
91.1015
90.6778
90.2468
89.7738
89.2766
88.7594
88.1063
87.3072
86.9835
86.9951
86.8335
86.5887
86.2858
85.9536
85.5937
85.1979
84.8097
84.4208
84.0019
83.5317
83.0101
82.4422
81.8334
81.1917
80.5217
79.8308
79.1226
78.4032
77.673
76.9407
76.2021
75.4662
74.7278
73.9931
73.2661
72.5303
71.841
71.0832
62.5746
58.7546
55.8856
53.7086
52.3004
51.2538
50.7884
50.4606
50.5212
50.7523
51.2722
51.9206
52.8574
53.7724
54.9713
56.3345
57.9136
59.5158
61.2872
63.0433
64.8552
66.6287
68.3442
70.0435
71.6314
73.1107
74.4404
75.6218
76.6673
77.5906
78.431
79.1708
79.7923
80.3765
80.8519
81.3059
81.6683
82.0133
82.2912
82.5607
82.8014
83.0241
83.3091
83.5433
83.8585
83.9708
83.9407
83.9112
83.7006
83.4258
83.1683
82.8779
82.6242
82.4516
82.3518
82.1934
82.2586
82.1209
82.2881
82.2188
82.3437
82.4426
82.2631
82.2261
82.3211
82.1289
82.0535
82.0277
81.9227
81.7286
81.6618
81.3974
81.3314
81.4128
81.1594
81.0655
81.0946
80.7658
80.6322
80.6511
80.6025
80.3881
80.0841
79.7094
79.2733
78.7915
78.272
77.7229
77.1547
76.5697
75.9687
75.369
74.7564
74.1482
73.5227
72.9092
72.2747
71.6654
71.0409
70.4272
33.1172
31.2378
29.6333
28.2966
27.1885
26.2374
25.4434
24.7685
24.2054
23.751
23.3866
23.1144
22.9629
22.8498
22.8262
22.7309
22.7939
22.9446
23.3028
23.7603
24.3039
24.9275
25.566
26.3313
27.0911
27.9607
28.7754
29.7358
30.5724
31.6133
32.5003
33.6921
34.6874
36.0785
37.2384
38.6259
40.0086
41.4523
42.802
44.4944
45.9111
47.3811
49.2276
50.4804
52.2016
53.5773
54.6595
56.4731
57.1646
57.8629
58.374
58.2163
58.3596
58.7598
59.3442
60.0349
60.8048
61.6119
62.4161
63.2266
64.0159
64.7735
65.4836
66.144
66.7731
67.3249
67.8319
68.2997
68.7131
69.0628
69.3947
69.6834
69.9724
70.2302
70.4572
70.6522
70.8832
70.8434
70.8549
70.899
70.9421
70.977
71.0567
71.0199
70.8781
70.6725
70.4254
70.1392
69.8349
69.514
69.1774
68.8473
68.484
68.113
67.7054
67.3097
66.8607
66.4664
65.9784
65.6578
22.1617
20.9057
19.7445
18.7057
17.7403
16.846
16.0106
15.2233
14.505
13.8172
13.1926
12.6054
12.0682
11.5399
11.0899
10.6829
10.3299
10.0238
9.78216
9.58856
9.44106
9.34319
9.26915
9.25419
9.24031
9.27189
9.33568
9.45704
9.56397
9.75501
9.88955
10.1497
10.3417
10.675
10.9685
11.3506
11.7766
12.2901
12.8187
13.542
14.3303
15.0552
16.2277
17.1026
18.1598
19.3383
20.5384
21.6313
22.9504
24.224
25.7947
26.7294
27.4659
27.3145
27.8933
28.9374
30.2556
31.7517
33.3265
34.9373
36.5394
38.1146
39.6443
41.1
42.4911
43.7843
44.9861
46.0987
47.1247
48.0663
48.9379
49.7512
50.5129
51.2237
51.8986
52.5215
53.1191
53.669
54.1722
54.6356
55.054
55.4374
55.7726
56.06
56.2891
56.4684
56.6131
56.706
56.8319
56.8764
57.0175
57.0957
57.0497
56.9644
56.8628
56.7271
56.6138
56.4287
56.2794
56.3069
15.4011
14.309
13.2794
12.3039
11.3992
10.5673
9.80332
9.1207
8.49775
7.94197
7.44927
6.99467
6.60366
6.26425
5.96891
5.70824
5.47948
5.27547
5.09509
4.93208
4.78796
4.65555
4.54029
4.43157
4.33975
4.25057
4.17576
4.10774
4.04469
3.99918
3.94575
3.91922
3.8837
3.86391
3.86928
3.87179
3.87928
3.91517
3.93446
3.9926
4.06969
4.15499
4.309
4.44815
4.60501
4.83475
5.03989
5.32042
5.55119
5.95149
6.15322
6.5484
6.86853
7.08768
7.56837
7.70429
8.1718
8.7998
9.57813
10.475
11.4654
12.5225
13.6265
14.7628
15.9133
17.091
18.2842
19.4913
20.6938
21.8944
23.0715
24.2366
25.3684
26.4787
27.5531
28.5995
29.6058
30.5859
31.5159
32.4157
33.2516
34.0638
34.8035
35.5234
36.162
36.779
37.3218
37.854
38.3165
38.7811
39.1799
39.61
39.9534
40.2989
40.5642
40.8307
41.0411
41.2667
41.3886
41.9338
8.85848
8.09268
7.41547
6.84965
6.3711
5.9583
5.59753
5.27908
4.99473
4.74039
4.5104
4.30107
4.11093
3.93835
3.78169
3.63937
3.5101
3.39245
3.2853
3.18741
3.09797
3.01579
2.94055
2.87087
2.80666
2.74655
2.69099
2.63892
2.59006
2.54483
2.50143
2.46091
2.42117
2.38441
2.34667
2.315
2.28075
2.24898
2.21798
2.18767
2.16284
2.13732
2.12091
2.10244
2.09111
2.08592
2.08662
2.09062
2.09383
2.11329
2.13076
2.15754
2.17402
2.22412
2.24966
2.24486
2.23575
2.24493
2.349
2.45017
2.55075
2.56465
2.65563
2.79936
3.00228
3.26501
3.56784
3.9346
4.32444
4.78088
5.24371
5.77498
6.29903
6.89277
7.46898
8.11731
8.73706
9.43346
10.0882
10.822
11.4955
12.2514
12.929
13.6903
14.359
15.1214
15.7743
16.5299
17.158
17.9022
18.4981
19.2292
19.7885
20.4922
20.9975
21.6737
22.1116
22.7758
23.0828
24.0695
5.00087
4.79801
4.59366
4.39193
4.19637
4.00893
3.83194
3.66565
3.51109
3.36754
3.23488
3.11335
3.00185
2.89945
2.80503
2.71777
2.63679
2.56146
2.49119
2.4255
2.36408
2.30654
2.25272
2.20227
2.15535
2.11118
2.06989
2.03051
1.99355
1.95796
1.92445
1.89197
1.8613
1.83149
1.80316
1.77561
1.74941
1.72401
1.69974
1.67613
1.65384
1.63169
1.61129
1.5906
1.57184
1.55241
1.53562
1.51715
1.50205
1.48483
1.47156
1.45609
1.44409
1.43057
1.41847
1.40668
1.39397
1.38445
1.37297
1.36681
1.35845
1.35149
1.35028
1.3512
1.35366
1.36359
1.37458
1.40103
1.4219
1.46847
1.49954
1.56533
1.60846
1.6946
1.74915
1.86147
1.93085
2.07399
2.15988
2.33699
2.44119
2.65463
2.77822
3.02975
3.17327
3.46385
3.628
3.95879
4.14406
4.51532
4.7222
5.13241
5.3613
5.80578
6.05615
6.53303
6.79868
7.30887
7.5364
8.29575
3.58915
3.45977
3.33171
3.20657
3.08642
2.97215
2.86456
2.76359
2.66946
2.5816
2.50017
2.42436
2.35419
2.28883
2.22828
2.17178
2.11933
2.07021
2.02442
1.98133
1.94092
1.90267
1.86658
1.83221
1.79959
1.76831
1.73846
1.70962
1.68199
1.6551
1.62929
1.60404
1.57983
1.55604
1.53337
1.51104
1.48994
1.46912
1.44964
1.43032
1.4124
1.39453
1.37804
1.36145
1.34619
1.3307
1.31647
1.3019
1.2886
1.27491
1.26255
1.24975
1.23829
1.22632
1.21554
1.20417
1.1939
1.18313
1.17323
1.16331
1.15308
1.14364
1.13312
1.12377
1.1125
1.10311
1.09124
1.08267
1.07193
1.06523
1.05646
1.05203
1.04664
1.04326
1.0412
1.04225
1.04228
1.04361
1.04467
1.04914
1.05248
1.06145
1.06716
1.08165
1.09074
1.11077
1.12389
1.15048
1.16822
1.20184
1.22432
1.26679
1.29365
1.34647
1.37952
1.44849
1.48181
1.57472
1.61507
1.79202
2.73511
2.66174
2.58858
2.51585
2.44492
2.37602
2.31004
2.24671
2.18662
2.12929
2.07517
2.02364
1.97509
1.92884
1.88526
1.84367
1.80445
1.76694
1.73154
1.69764
1.66563
1.63493
1.60595
1.57813
1.55187
1.52665
1.50284
1.47997
1.45835
1.43755
1.41784
1.39884
1.38076
1.36328
1.34656
1.33033
1.31473
1.29951
1.28482
1.27044
1.25649
1.2428
1.22951
1.21643
1.20375
1.19124
1.17917
1.16722
1.15578
1.14439
1.1336
1.12278
1.11264
1.1024
1.09286
1.08319
1.0742
1.06507
1.05655
1.04794
1.03982
1.03169
1.02394
1.01625
1.00883
1.00156
0.994464
0.987585
0.980812
0.974357
0.967897
0.961903
0.955747
0.950239
0.944365
0.93936
0.933758
0.929204
0.923867
0.919702
0.914667
0.910824
0.906161
0.902758
0.898548
0.89556
0.891802
0.889259
0.885914
0.883865
0.880949
0.879405
0.877044
0.875859
0.874393
0.873669
0.873232
0.873861
0.8743
0.878616
2.19901
2.15427
2.10847
2.0616
2.01482
1.9684
1.9232
1.87911
1.83677
1.79584
1.75688
1.71941
1.68396
1.64994
1.61788
1.58711
1.55818
1.53038
1.50426
1.47908
1.45542
1.43252
1.41099
1.39003
1.37031
1.35098
1.33278
1.31485
1.29795
1.28121
1.26544
1.24975
1.23499
1.22025
1.20642
1.19257
1.17961
1.16658
1.15444
1.14217
1.13078
1.11921
1.10849
1.09752
1.08741
1.07697
1.06738
1.05741
1.0483
1.03875
1.03007
1.02092
1.01266
1.00387
0.996
0.987559
0.980064
0.971952
0.964814
0.957015
0.950224
0.942734
0.936286
0.929107
0.923004
0.916142
0.910391
0.903849
0.898456
0.892235
0.887209
0.881304
0.876649
0.871046
0.866751
0.861429
0.857476
0.8524
0.848763
0.843891
0.840531
0.835818
0.832702
0.828114
0.825207
0.820713
0.817974
0.813558
0.810946
0.806587
0.804054
0.799754
0.797224
0.792892
0.790374
0.78596
0.783298
0.778965
0.775643
0.770201
1.85139
1.82276
1.79292
1.76178
1.73027
1.69855
1.66738
1.63661
1.60682
1.57772
1.5498
1.52265
1.49675
1.4716
1.44769
1.42446
1.40243
1.381
1.36072
1.34094
1.32225
1.30397
1.28674
1.26983
1.25391
1.23822
1.22349
1.2089
1.19523
1.18161
1.16887
1.15611
1.14418
1.13216
1.12096
1.10959
1.09902
1.08822
1.07822
1.06793
1.05843
1.04859
1.03956
1.03013
1.02152
1.01247
1.00425
0.995537
0.987682
0.979297
0.971783
0.963695
0.956512
0.948706
0.941835
0.934301
0.927732
0.920459
0.914187
0.907168
0.901189
0.894416
0.888723
0.882186
0.876771
0.870462
0.865314
0.85922
0.854329
0.848437
0.843792
0.838087
0.833676
0.82814
0.823952
0.818569
0.814587
0.809341
0.80555
0.800424
0.796807
0.791785
0.788327
0.783395
0.780079
0.775223
0.772036
0.767243
0.764173
0.75943
0.756464
0.751759
0.74889
0.744233
0.741411
0.736763
0.734089
0.729358
0.727315
0.719905
1.6277
1.60821
1.58764
1.56573
1.54328
1.52031
1.4975
1.47467
1.45238
1.43032
1.40901
1.38807
1.36798
1.3483
1.32951
1.31113
1.29363
1.27649
1.26022
1.24424
1.2291
1.21418
1.20007
1.18611
1.17292
1.15981
1.14745
1.13509
1.12346
1.11177
1.10078
1.08968
1.07927
1.06869
1.0588
1.04869
1.03927
1.02958
1.02059
1.01129
1.00269
0.99374
0.985505
0.976876
0.968986
0.96066
0.953095
0.945052
0.937796
0.930022
0.923064
0.915547
0.908878
0.901612
0.895229
0.88821
0.88211
0.875337
0.869521
0.862994
0.857462
0.851174
0.845921
0.839864
0.834878
0.82904
0.824306
0.818668
0.814172
0.808716
0.804438
0.799144
0.795067
0.789917
0.786024
0.781
0.777275
0.772362
0.76879
0.763977
0.760546
0.755818
0.752518
0.747867
0.744691
0.740104
0.737043
0.732512
0.729561
0.725078
0.722224
0.71778
0.71502
0.710625
0.707921
0.703523
0.70099
0.696499
0.694565
0.687527
1.48328
1.46879
1.45341
1.43679
1.41965
1.4019
1.38418
1.36624
1.34862
1.331
1.31389
1.2969
1.28053
1.26432
1.24879
1.23343
1.21876
1.20425
1.19043
1.17673
1.16372
1.1508
1.13854
1.12633
1.11477
1.10322
1.0923
1.08135
1.07102
1.06061
1.05082
1.0409
1.03161
1.02214
1.01329
1.00423
0.995798
0.987103
0.97905
0.97069
0.962983
0.95493
0.947545
0.939768
0.932684
0.925164
0.918355
0.911073
0.90453
0.897472
0.891177
0.884328
0.878268
0.871615
0.865782
0.859316
0.853701
0.847413
0.842007
0.835888
0.830687
0.824729
0.819726
0.813925
0.809116
0.803464
0.798846
0.793338
0.788906
0.783536
0.779288
0.774051
0.76998
0.764868
0.76097
0.755977
0.752243
0.747358
0.743784
0.738996
0.735575
0.730875
0.727601
0.722974
0.719843
0.715277
0.712279
0.707768
0.704888
0.700434
0.697653
0.693257
0.690557
0.686207
0.683596
0.679245
0.676868
0.672577
0.669631
0.664654
1.38757
1.37581
1.36335
1.34978
1.33575
1.32109
1.30642
1.29143
1.27668
1.26179
1.2473
1.23279
1.21878
1.20479
1.19137
1.17799
1.1652
1.15246
1.14032
1.1282
1.11669
1.10517
1.09426
1.0833
1.07295
1.06252
1.05268
1.04273
1.03336
1.02384
1.0149
1.00577
0.997225
0.98845
0.980257
0.971804
0.963939
0.955782
0.948222
0.94034
0.933066
0.925439
0.918436
0.91105
0.904306
0.897149
0.890655
0.883716
0.877465
0.870735
0.86472
0.858187
0.8524
0.846056
0.84049
0.834325
0.828971
0.822977
0.817824
0.811989
0.807028
0.801343
0.796567
0.791023
0.786424
0.781015
0.776587
0.771306
0.767047
0.761888
0.757796
0.752755
0.748825
0.743898
0.740126
0.735308
0.731688
0.726973
0.723498
0.718883
0.715542
0.711025
0.707804
0.703384
0.70027
0.695942
0.692924
0.688676
0.685762
0.681562
0.678771
0.674582
0.671933
0.667725
0.6652
0.661051
0.658448
0.654394
0.652614
0.646069
1.3216
1.31141
1.30063
1.28884
1.27667
1.2639
1.25111
1.23797
1.22503
1.21189
1.19908
1.18618
1.17371
1.16119
1.14917
1.13712
1.12559
1.11404
1.10303
1.09197
1.08147
1.07091
1.0609
1.05079
1.04125
1.03158
1.02247
1.0132
1.00449
0.995595
0.987264
0.978714
0.970731
0.962499
0.954841
0.946901
0.939542
0.931872
0.924793
0.917372
0.910554
0.903366
0.89679
0.889814
0.88347
0.876693
0.870571
0.863984
0.858073
0.851663
0.845952
0.839707
0.834189
0.828105
0.822773
0.81684
0.81169
0.805902
0.80093
0.795282
0.79048
0.784965
0.780331
0.774944
0.770473
0.765209
0.7609
0.755755
0.751604
0.746572
0.742577
0.737652
0.733809
0.728987
0.725293
0.720568
0.717017
0.712384
0.708972
0.704424
0.701145
0.696676
0.693522
0.689126
0.686093
0.68176
0.678843
0.674563
0.671759
0.667524
0.664831
0.660629
0.658042
0.653881
0.651363
0.647209
0.644847
0.640629
0.638804
0.632466
1.27438
1.26513
1.25535
1.24469
1.2337
1.22218
1.21064
1.19876
1.18704
1.17511
1.16347
1.1517
1.14031
1.12884
1.1178
1.10669
1.09605
1.08535
1.07514
1.06485
1.05507
1.0452
1.03583
1.02635
1.01739
1.00828
0.999692
0.990929
0.982698
0.974259
0.966359
0.958222
0.950629
0.94277
0.935463
0.927863
0.920824
0.913464
0.906675
0.899541
0.892989
0.886064
0.879736
0.873007
0.866892
0.860348
0.854438
0.848068
0.842355
0.836149
0.830624
0.824574
0.81923
0.813329
0.808159
0.802398
0.797397
0.791771
0.786937
0.78144
0.776766
0.771392
0.766876
0.761621
0.75726
0.752121
0.747913
0.742886
0.738829
0.73391
0.730002
0.725186
0.721425
0.716708
0.71309
0.708466
0.704988
0.700453
0.697108
0.692655
0.689441
0.685064
0.681973
0.677666
0.674694
0.670447
0.66759
0.663393
0.660648
0.656495
0.653858
0.649739
0.647206
0.64313
0.640663
0.636591
0.634284
0.630146
0.628355
0.622155
1.2397
1.23098
1.22181
1.21187
1.20166
1.19095
1.18023
1.16918
1.15828
1.14717
1.13631
1.12531
1.11466
1.10391
1.09355
1.08311
1.0731
1.06301
1.05338
1.04365
1.0344
1.02504
1.01615
1.00714
0.998616
0.989934
0.981753
0.973386
0.965527
0.957455
0.949901
0.942103
0.934833
0.927291
0.920286
0.912982
0.906225
0.899143
0.892618
0.885742
0.879437
0.872753
0.866656
0.860152
0.854252
0.847919
0.842207
0.836034
0.830504
0.824483
0.819125
0.81325
0.80806
0.802323
0.797299
0.791691
0.786826
0.781343
0.776634
0.771272
0.766712
0.761465
0.757055
0.751917
0.747652
0.742621
0.738498
0.733571
0.729589
0.72476
0.720917
0.716183
0.712478
0.707834
0.704262
0.699705
0.696264
0.691788
0.688473
0.684074
0.680881
0.676555
0.673479
0.669219
0.666258
0.662056
0.659208
0.655055
0.652317
0.648207
0.645576
0.641499
0.638975
0.634938
0.632487
0.628454
0.626161
0.622068
0.620293
0.614188
1.21368
1.20525
1.19648
1.18701
1.17733
1.16718
1.15703
1.14658
1.13626
1.12573
1.11545
1.10502
1.09491
1.0847
1.07485
1.06491
1.05538
1.04575
1.03656
1.02726
1.0184
1.00943
1.00091
0.992263
0.984072
0.975725
0.967847
0.959788
0.952205
0.944415
0.937113
0.929575
0.922534
0.915229
0.908435
0.901347
0.894785
0.887898
0.881555
0.874858
0.86872
0.8622
0.856258
0.849905
0.844148
0.837953
0.832375
0.826331
0.820924
0.815023
0.809781
0.804017
0.798936
0.793303
0.788379
0.782871
0.778099
0.772712
0.768089
0.762816
0.758339
0.753177
0.748844
0.743789
0.739596
0.734644
0.730591
0.725737
0.721821
0.717061
0.713282
0.708614
0.704969
0.700386
0.696874
0.692374
0.688991
0.684568
0.681311
0.67696
0.673827
0.669543
0.666528
0.662307
0.659404
0.655242
0.652447
0.648334
0.645649
0.641576
0.638999
0.634954
0.632486
0.628483
0.626084
0.622089
0.61984
0.615798
0.614034
0.608027
1.19381
1.18557
1.17705
1.16789
1.15857
1.14882
1.13908
1.12905
1.11916
1.10905
1.09919
1.08918
1.07948
1.06966
1.0602
1.05063
1.04146
1.03218
1.02332
1.01434
1.00579
0.997122
0.988888
0.980513
0.972582
0.96449
0.956849
0.949027
0.941661
0.934091
0.926986
0.919653
0.912794
0.905681
0.899054
0.892146
0.885738
0.879022
0.872822
0.866285
0.860282
0.853914
0.848097
0.841888
0.83625
0.830192
0.824725
0.818811
0.813509
0.807732
0.80259
0.796942
0.791954
0.786429
0.781592
0.776184
0.771495
0.766199
0.761653
0.756465
0.752061
0.746978
0.742712
0.73773
0.733599
0.728715
0.724718
0.719927
0.716062
0.711361
0.707627
0.703012
0.699406
0.694875
0.691397
0.686943
0.683588
0.67921
0.675975
0.67167
0.668548
0.664316
0.661296
0.657138
0.654214
0.650128
0.647294
0.643271
0.640535
0.636552
0.633934
0.62996
0.62748
0.623493
0.621141
0.617202
0.614805
0.610955
0.609275
0.603344
1.17842
1.17027
1.16191
1.15294
1.14388
1.13439
1.12496
1.11521
1.10565
1.09585
1.08631
1.0766
1.06722
1.05769
1.04853
1.03925
1.03036
1.02135
1.01275
1.00403
0.995731
0.987287
0.979289
0.971124
0.963413
0.955516
0.94808
0.940435
0.93326
0.925854
0.918926
0.911744
0.905049
0.898075
0.891599
0.88482
0.878551
0.871955
0.865882
0.859456
0.853571
0.847305
0.841599
0.835483
0.829947
0.823975
0.818604
0.812771
0.807558
0.801855
0.796795
0.791218
0.786305
0.780847
0.776078
0.770736
0.766108
0.760875
0.756385
0.751259
0.746904
0.74188
0.73766
0.732734
0.728646
0.723816
0.719857
0.715118
0.711289
0.706638
0.702936
0.69837
0.694794
0.690308
0.686857
0.682448
0.679119
0.674781
0.671574
0.667302
0.664216
0.660001
0.657037
0.65287
0.650028
0.645902
0.643178
0.639093
0.636475
0.632437
0.629909
0.625925
0.623474
0.619536
0.617178
0.613241
0.611096
0.607199
0.604597
0.600236
1.16628
1.15819
1.14992
1.1411
1.13221
1.12292
1.11371
1.1042
1.09487
1.08532
1.07603
1.06657
1.05743
1.04814
1.03923
1.03017
1.02151
1.01272
1.00434
0.995817
0.987725
0.979471
0.971662
0.963671
0.956136
0.948399
0.941125
0.933627
0.926603
0.91933
0.912541
0.90548
0.898914
0.892051
0.885693
0.879015
0.872856
0.866352
0.860379
0.854039
0.848244
0.842059
0.836435
0.830397
0.824936
0.819038
0.813734
0.80797
0.802819
0.797182
0.792179
0.786665
0.781806
0.776409
0.771691
0.766407
0.761828
0.756651
0.75221
0.747135
0.742828
0.737853
0.733677
0.728799
0.724753
0.719967
0.716049
0.711352
0.707561
0.702949
0.699283
0.694753
0.69121
0.686757
0.683335
0.678956
0.675654
0.671346
0.668161
0.663916
0.660846
0.65666
0.653703
0.64957
0.646723
0.642641
0.639899
0.635863
0.633221
0.629229
0.626684
0.622731
0.620281
0.616337
0.614027
0.610146
0.607899
0.60409
0.601527
0.597178
1.15706
1.14899
1.14075
1.13203
1.12325
1.11412
1.10505
1.09573
1.08657
1.07722
1.06811
1.05885
1.04989
1.0408
1.03206
1.02319
1.01469
1.00607
0.997846
0.989481
0.981527
0.973418
0.965732
0.957873
0.950448
0.942829
0.935652
0.928259
0.92132
0.91414
0.907427
0.900449
0.893948
0.887158
0.88086
0.874246
0.86814
0.861694
0.855771
0.849482
0.843735
0.837596
0.832018
0.826023
0.820607
0.814749
0.809489
0.803763
0.798655
0.793055
0.788094
0.782616
0.777798
0.772438
0.767758
0.762511
0.757969
0.752828
0.74842
0.743382
0.739106
0.734167
0.730021
0.725176
0.721158
0.716404
0.712512
0.707846
0.704078
0.699495
0.695851
0.691348
0.687826
0.683399
0.679997
0.675642
0.672361
0.668071
0.664908
0.660678
0.657633
0.653458
0.650527
0.646404
0.643583
0.639508
0.636792
0.632764
0.630146
0.626162
0.623642
0.619698
0.617269
0.613337
0.611042
0.607182
0.604943
0.601163
0.5986
0.59429
1.15039
1.1423
1.13405
1.12538
1.11665
1.10761
1.09863
1.08942
1.08036
1.07113
1.06212
1.05298
1.04411
1.03513
1.02647
1.01769
1.00926
1.00072
0.992547
0.984247
0.976334
0.968276
0.960618
0.952796
0.945386
0.937793
0.930623
0.92325
0.91631
0.909146
0.902428
0.895464
0.888958
0.882182
0.875879
0.869282
0.863173
0.856747
0.850826
0.844562
0.83882
0.832712
0.827139
0.821176
0.815769
0.809948
0.804704
0.79902
0.793935
0.788382
0.783452
0.778024
0.773245
0.767937
0.763303
0.758109
0.753618
0.748533
0.74418
0.739198
0.734978
0.730095
0.726005
0.721216
0.717253
0.712553
0.708714
0.704099
0.700383
0.695849
0.692252
0.687795
0.684317
0.679933
0.67657
0.672254
0.669006
0.664754
0.661619
0.657426
0.654402
0.650263
0.647348
0.643258
0.64045
0.636406
0.633701
0.6297
0.627094
0.623134
0.620625
0.616703
0.614287
0.610375
0.608093
0.604247
0.602026
0.598249
0.595726
0.591417
1.14502
1.1369
1.12863
1.11995
1.11123
1.10221
1.09324
1.08404
1.07496
1.06571
1.05666
1.04748
1.03854
1.02951
1.02076
1.01193
1.00342
0.994827
0.986577
0.978193
0.970176
0.962028
0.954273
0.946381
0.938898
0.931264
0.924052
0.916671
0.909723
0.902584
0.895886
0.888975
0.882515
0.875815
0.86958
0.863077
0.857054
0.850733
0.844909
0.838759
0.833124
0.827134
0.821681
0.815845
0.810563
0.804868
0.799747
0.794186
0.789217
0.78378
0.778958
0.773638
0.768957
0.763747
0.759201
0.754096
0.749683
0.744677
0.740392
0.73548
0.731322
0.7265
0.722464
0.71773
0.713814
0.709164
0.705367
0.700797
0.697117
0.692625
0.689062
0.684643
0.681195
0.676847
0.673512
0.669232
0.666009
0.661793
0.65868
0.654524
0.651519
0.64742
0.644518
0.640474
0.637671
0.633681
0.630974
0.627031
0.624422
0.620516
0.618012
0.614133
0.611734
0.607854
0.605598
0.601782
0.599583
0.595849
0.59335
0.589086
1.14093
1.13264
1.12412
1.1151
1.10598
1.0965
1.08707
1.07738
1.06786
1.05818
1.04878
1.03926
1.0301
1.02086
1.01201
1.00309
0.994587
0.986007
0.977861
0.969666
0.961903
0.954056
0.946631
0.939088
0.93196
0.924685
0.917824
0.910787
0.904166
0.897343
0.890942
0.884314
0.878118
0.871667
0.865663
0.859376
0.853554
0.847419
0.841769
0.835778
0.830293
0.824437
0.81911
0.813383
0.808207
0.802603
0.797573
0.792088
0.787198
0.781827
0.777073
0.771811
0.767189
0.762031
0.757538
0.752479
0.748112
0.743148
0.738903
0.734029
0.729904
0.725117
0.72111
0.716406
0.712515
0.707891
0.704115
0.699568
0.695906
0.691434
0.687885
0.683484
0.680048
0.675714
0.67239
0.668122
0.664907
0.660701
0.657594
0.653448
0.650445
0.646359
0.643453
0.639427
0.636612
0.632645
0.629918
0.626005
0.62337
0.619494
0.616968
0.613106
0.610706
0.606837
0.604559
0.600736
0.59843
0.594684
0.593049
0.58736
1.12783
1.11884
1.10995
1.10088
1.09196
1.08289
1.07403
1.06505
1.05632
1.04749
1.03894
1.03031
1.02198
1.01357
1.00548
0.997301
0.98946
0.981509
0.973911
0.966188
0.958827
0.951325
0.944193
0.936902
0.92999
0.9229
0.916198
0.9093
0.902798
0.89608
0.88977
0.883222
0.877097
0.870709
0.864761
0.858524
0.852747
0.846653
0.841041
0.835082
0.829629
0.823799
0.818499
0.812793
0.807642
0.802054
0.797045
0.791573
0.786702
0.781341
0.776604
0.771351
0.766743
0.761593
0.757111
0.75206
0.747702
0.742745
0.738508
0.733641
0.729522
0.724741
0.720739
0.716041
0.712155
0.707536
0.703764
0.699221
0.695563
0.691093
0.687548
0.68315
0.679717
0.675386
0.672064
0.667798
0.664587
0.66038
0.65728
0.653128
0.650139
0.646034
0.643159
0.639094
0.636333
0.632302
0.629652
0.625656
0.623108
0.619153
0.616694
0.612787
0.610408
0.606543
0.604256
0.600393
0.598319
0.594492
0.592011
0.587737
1.65795
1.71771
1.80173
1.8782
2.03903
2.14409
2.43402
2.7496
3.26104
5.09281
1.53571
1.55715
1.62695
1.67978
1.77814
1.90555
2.02505
2.30252
2.52568
3.67469
1.44498
1.47361
1.49472
1.5525
1.59061
1.70307
1.77096
1.97088
2.1002
2.78176
1.39063
1.41204
1.42328
1.46078
1.48251
1.55287
1.59632
1.72919
1.8126
2.22125
1.34976
1.365
1.37223
1.39776
1.41139
1.45546
1.48217
1.56479
1.61755
1.86405
1.31594
1.32621
1.33089
1.34881
1.35785
1.38742
1.40424
1.45598
1.4884
1.63614
1.29065
1.29649
1.29932
1.31094
1.31684
1.3366
1.34749
1.3808
1.40083
1.48953
1.27041
1.27331
1.27468
1.28177
1.28535
1.29813
1.30505
1.32657
1.33916
1.39268
1.25409
1.25458
1.25484
1.25857
1.26044
1.26821
1.27235
1.28596
1.29369
1.32696
1.24092
1.23976
1.23921
1.24028
1.24084
1.24486
1.24697
1.25493
1.25924
1.2803
1.2305
1.22821
1.22645
1.22556
1.22529
1.22643
1.2271
1.23093
1.23296
1.24588
1.22198
1.21907
1.21619
1.21437
1.21261
1.2118
1.21143
1.21223
1.21273
1.21999
1.21531
1.21138
1.20815
1.20508
1.20269
1.2004
1.19877
1.19749
1.19673
1.2
1.2098
1.20549
1.20144
1.198
1.19439
1.19175
1.18841
1.18653
1.18332
1.18459
1.20533
1.20105
1.19605
1.19256
1.18782
1.18494
1.18033
1.17792
1.17264
1.17247
1.20186
1.19777
1.19192
1.18848
1.18283
1.17979
1.17422
1.17138
1.1656
1.16332
1.19912
1.19507
1.18874
1.18516
1.1791
1.17567
1.16975
1.16626
1.16044
1.15674
1.19717
1.19254
1.18637
1.18207
1.17621
1.17196
1.16623
1.16182
1.1561
1.15147
1.1961
1.191
1.18489
1.18006
1.17423
1.16943
1.16365
1.15869
1.15282
1.14764
1.19076
1.18449
1.17785
1.17191
1.1655
1.15971
1.15335
1.14755
1.14111
1.13522
1.61976
1.73494
1.93538
2.24315
2.77238
3.58334
5.44407
10.2465
32.6619
23.2874
1.62714
1.74797
1.94844
2.25857
2.75887
3.77171
5.904
10.4367
34.0596
23.3031
1.63064
1.74447
1.96704
2.30844
2.9087
3.77304
5.85791
11.0469
35.4066
23.2887
1.6423
1.75814
1.97815
2.30495
2.89554
4.03392
6.47744
11.1772
37.0982
23.2906
1.64364
1.75568
2.00181
2.38311
3.05476
4.04584
6.45898
12.1733
38.6895
23.1348
1.66988
1.7935
2.01715
2.38446
3.08655
4.37897
7.22527
12.3983
40.4444
23.0009
1.67476
1.80113
2.06357
2.50428
3.27214
4.43431
7.35118
13.7075
42.1411
22.7037
1.71988
1.85959
2.10843
2.52616
3.37154
4.88382
8.2552
14.3633
43.5803
22.5095
1.73321
1.88071
2.1775
2.72041
3.63773
5.03405
8.66012
16.4795
43.523
22.3556
1.80656
1.97046
2.27138
2.77718
3.80905
5.76522
9.79589
18.67
43.1075
22.2518
1.62477
1.74251
1.88095
2.12239
2.8609
3.17947
6.70218
9.84116
33.3296
27.683
1.62563
1.737
1.86704
2.12045
2.68301
3.11517
5.66034
9.74199
29.9685
25.5617
1.63227
1.74605
1.89775
2.1537
2.69024
3.17253
5.59888
9.7094
29.0491
24.2568
1.63001
1.74343
1.89958
2.17547
2.69449
3.17602
5.55276
9.4404
28.4154
23.6564
1.62775
1.73928
1.89693
2.18095
2.65401
3.2508
5.20199
9.33617
28.3976
23.2304
1.62439