/*--------------------------------*- C++ -*----------------------------------*\
  =========                 |
  \\      /  F ield         | OpenFOAM: The Open Source CFD Toolbox
   \\    /   O peration     | Website:  https://openfoam.org
    \\  /    A nd           | Version:  8
     \\/     M anipulation  |
\*---------------------------------------------------------------------------*/
FoamFile
{
    version     2.0;
    format      ascii;
    class       volScalarField;
    location    "0.500023";
    object      T;
}
// * * * * * * * * * * * * * * * * * * * * * * * * * * * * * * * * * * * * * //

dimensions      [0 0 0 1 0 0 0];

internalField   nonuniform List<scalar> 
6800
(
374.052
374.089
374.012
373.712
373.301
373.084
372.969
372.912
372.861
372.805
374.069
374.068
373.749
373.244
373.019
372.902
372.806
372.743
372.691
372.684
374.069
373.814
373.224
372.96
372.785
372.671
372.611
372.603
372.612
372.632
373.802
373.335
372.94
372.657
372.533
372.51
372.516
372.532
372.543
372.555
373.471
372.918
372.498
372.365
372.359
372.37
372.388
372.416
372.453
372.497
373.022
372.379
372.208
372.151
372.175
372.227
372.293
372.356
372.406
372.455
372.566
371.973
371.866
371.909
372.016
372.125
372.204
372.268
372.334
372.394
372.084
371.519
371.619
371.753
371.903
372.016
372.121
372.218
372.294
372.36
371.656
371.22
371.393
371.586
371.783
371.943
372.065
372.167
372.251
372.326
371.266
370.923
371.235
371.492
371.716
371.888
372.025
372.137
372.229
372.311
374.329
374.334
374.336
374.333
374.33
374.329
374.337
374.349
374.366
374.387
374.319
374.327
374.329
374.325
374.321
374.32
374.325
374.338
374.358
374.383
374.303
374.313
374.315
374.309
374.302
374.3
374.305
374.32
374.342
374.375
374.289
374.3
374.3
374.29
374.276
374.269
374.27
374.283
374.302
374.351
374.281
374.291
374.285
374.263
374.234
374.215
374.218
374.231
374.24
374.287
374.282
374.289
374.267
374.218
374.169
374.159
374.161
374.165
374.154
374.159
374.289
374.283
374.238
374.148
374.126
374.12
374.107
374.069
374.013
373.892
374.3
374.274
374.155
374.122
374.107
374.068
373.984
373.825
373.679
373.461
374.285
374.232
374.119
374.105
374.036
373.879
373.623
373.407
373.214
373.114
374.196
374.113
374.112
374.021
373.772
373.441
373.198
373.062
372.999
372.958
374.416
374.447
374.469
374.486
374.497
374.504
374.508
374.508
374.507
374.505
374.5
374.495
374.487
374.479
374.469
374.459
374.448
374.437
374.425
374.412
374.4
374.388
374.375
374.363
374.351
374.339
374.327
374.316
374.306
374.295
374.285
374.275
374.266
374.256
374.247
374.238
374.229
374.22
374.211
374.202
374.194
374.185
374.176
374.167
374.158
374.148
374.138
374.128
374.118
374.108
374.097
374.085
374.074
374.062
374.05
374.037
374.024
374.011
373.998
373.985
373.972
373.959
373.945
373.932
373.919
373.906
373.894
373.881
373.869
373.857
373.845
373.833
373.822
373.811
373.801
373.791
373.781
373.772
373.763
373.756
373.748
373.742
373.735
373.73
373.725
373.721
373.717
373.714
373.711
373.709
373.706
373.705
373.703
373.701
373.7
373.698
373.696
373.695
373.693
373.691
374.414
374.447
374.472
374.491
374.504
374.513
374.518
374.52
374.519
374.517
374.512
374.506
374.499
374.49
374.48
374.47
374.459
374.447
374.435
374.422
374.41
374.397
374.385
374.372
374.36
374.348
374.336
374.325
374.314
374.303
374.293
374.283
374.273
374.263
374.253
374.244
374.234
374.225
374.215
374.206
374.197
374.188
374.178
374.169
374.16
374.15
374.14
374.13
374.12
374.109
374.098
374.087
374.075
374.063
374.051
374.039
374.026
374.013
374
373.987
373.974
373.961
373.948
373.935
373.922
373.909
373.897
373.885
373.873
373.861
373.85
373.839
373.828
373.817
373.807
373.797
373.788
373.779
373.771
373.763
373.756
373.75
373.744
373.739
373.734
373.73
373.726
373.723
373.72
373.718
373.716
373.714
373.712
373.71
373.709
373.707
373.705
373.704
373.701
373.699
374.408
374.447
374.477
374.499
374.516
374.527
374.533
374.536
374.536
374.534
374.529
374.522
374.514
374.505
374.495
374.484
374.472
374.46
374.447
374.434
374.421
374.408
374.396
374.383
374.37
374.358
374.346
374.334
374.322
374.311
374.3
374.289
374.279
374.268
374.258
374.248
374.238
374.228
374.218
374.208
374.198
374.188
374.178
374.168
374.158
374.148
374.139
374.128
374.118
374.108
374.097
374.086
374.074
374.062
374.05
374.038
374.025
374.012
374
373.987
373.974
373.961
373.949
373.937
373.924
373.913
373.901
373.889
373.878
373.867
373.856
373.846
373.836
373.826
373.817
373.808
373.799
373.791
373.783
373.776
373.77
373.764
373.758
373.753
373.749
373.745
373.742
373.738
373.736
373.733
373.731
373.729
373.727
373.726
373.724
373.722
373.72
373.719
373.716
373.714
374.387
374.435
374.471
374.498
374.516
374.529
374.536
374.54
374.54
374.537
374.532
374.524
374.515
374.505
374.494
374.482
374.47
374.457
374.444
374.43
374.417
374.403
374.39
374.377
374.364
374.351
374.338
374.326
374.314
374.302
374.291
374.28
374.268
374.257
374.246
374.236
374.225
374.214
374.204
374.194
374.183
374.173
374.163
374.153
374.143
374.134
374.124
374.114
374.105
374.095
374.084
374.074
374.063
374.052
374.04
374.028
374.016
374.004
373.992
373.98
373.969
373.957
373.945
373.934
373.923
373.912
373.902
373.892
373.881
373.872
373.862
373.853
373.844
373.835
373.827
373.819
373.811
373.804
373.797
373.791
373.785
373.78
373.774
373.77
373.766
373.762
373.759
373.756
373.753
373.751
373.749
373.747
373.745
373.743
373.741
373.739
373.738
373.735
373.733
373.73
374.319
374.37
374.412
374.44
374.458
374.471
374.477
374.481
374.48
374.476
374.47
374.462
374.452
374.442
374.43
374.418
374.406
374.394
374.381
374.368
374.356
374.343
374.331
374.319
374.307
374.295
374.284
374.272
374.261
374.25
374.239
374.229
374.218
374.208
374.197
374.187
374.177
374.167
374.157
374.147
374.137
374.128
374.118
374.109
374.1
374.091
374.083
374.074
374.066
374.057
374.048
374.039
374.029
374.019
374.008
373.998
373.987
373.976
373.966
373.955
373.945
373.935
373.925
373.916
373.907
373.897
373.888
373.88
373.872
373.864
373.856
373.849
373.842
373.835
373.828
373.822
373.816
373.81
373.804
373.799
373.794
373.789
373.785
373.781
373.777
373.774
373.771
373.768
373.766
373.764
373.762
373.76
373.758
373.756
373.754
373.752
373.75
373.748
373.746
373.742
374.17
374.199
374.235
374.25
374.258
374.263
374.263
374.262
374.258
374.252
374.245
374.238
374.23
374.222
374.214
374.206
374.199
374.191
374.184
374.177
374.169
374.162
374.156
374.149
374.142
374.136
374.129
374.122
374.116
374.109
374.103
374.096
374.09
374.083
374.076
374.069
374.062
374.056
374.049
374.042
374.035
374.029
374.022
374.016
374.01
374.004
373.998
373.992
373.986
373.98
373.973
373.966
373.958
373.95
373.943
373.935
373.927
373.919
373.911
373.904
373.896
373.889
373.882
373.875
373.868
373.862
373.855
373.849
373.843
373.838
373.833
373.828
373.823
373.819
373.814
373.81
373.805
373.801
373.797
373.793
373.789
373.786
373.783
373.779
373.776
373.772
373.77
373.768
373.766
373.764
373.762
373.76
373.758
373.756
373.755
373.753
373.751
373.749
373.748
373.744
373.87
373.887
373.903
373.905
373.903
373.897
373.889
373.882
373.872
373.863
373.854
373.846
373.839
373.832
373.826
373.821
373.818
373.815
373.813
373.812
373.811
373.811
373.812
373.813
373.815
373.818
373.82
373.821
373.824
373.827
373.828
373.832
373.834
373.839
373.84
373.838
373.838
373.838
373.839
373.84
373.841
373.842
373.842
373.844
373.844
373.844
373.842
373.841
373.838
373.836
373.836
373.834
373.831
373.826
373.822
373.817
373.813
373.809
373.806
373.803
373.8
373.797
373.795
373.792
373.79
373.788
373.785
373.783
373.781
373.779
373.777
373.776
373.774
373.773
373.771
373.769
373.767
373.764
373.763
373.762
373.76
373.758
373.756
373.754
373.751
373.747
373.745
373.745
373.744
373.743
373.742
373.74
373.739
373.737
373.736
373.734
373.733
373.732
373.729
373.727
373.438
373.46
373.482
373.496
373.504
373.508
373.512
373.514
373.515
373.515
373.515
373.514
373.512
373.51
373.509
373.506
373.505
373.502
373.501
373.499
373.498
373.497
373.496
373.494
373.494
373.493
373.492
373.493
373.494
373.494
373.495
373.497
373.499
373.503
373.506
373.508
373.512
373.516
373.521
373.528
373.535
373.542
373.551
373.559
373.567
373.575
373.582
373.59
373.595
373.6
373.61
373.617
373.628
373.63
373.627
373.625
373.627
373.631
373.635
373.64
373.645
373.649
373.653
373.657
373.661
373.664
373.668
373.671
373.673
373.676
373.678
373.68
373.682
373.684
373.686
373.687
373.688
373.689
373.691
373.691
373.691
373.691
373.692
373.692
373.691
373.69
373.689
373.689
373.689
373.689
373.688
373.688
373.687
373.687
373.687
373.686
373.685
373.685
373.685
373.682
373.113
373.153
373.192
373.224
373.251
373.272
373.29
373.305
373.317
373.327
373.335
373.342
373.347
373.35
373.353
373.355
373.356
373.356
373.355
373.354
373.352
373.35
373.348
373.345
373.342
373.339
373.336
373.332
373.329
373.326
373.323
373.32
373.317
373.314
373.312
373.31
373.309
373.308
373.307
373.308
373.308
373.309
373.311
373.313
373.315
373.318
373.32
373.324
373.328
373.334
373.337
373.34
373.351
373.355
373.352
373.353
373.359
373.367
373.377
373.387
373.398
373.41
373.421
373.432
373.443
373.454
373.465
373.475
373.485
373.494
373.503
373.512
373.52
373.527
373.534
373.541
373.547
373.552
373.557
373.561
373.565
373.569
373.572
373.575
373.578
373.581
373.583
373.585
373.587
373.589
373.591
373.593
373.594
373.596
373.597
373.599
373.6
373.601
373.602
373.602
372.972
373
373.041
373.077
373.109
373.136
373.16
373.179
373.197
373.211
373.222
373.232
373.239
373.245
373.25
373.253
373.256
373.257
373.258
373.258
373.258
373.256
373.255
373.253
373.251
373.249
373.246
373.243
373.241
373.238
373.235
373.232
373.229
373.227
373.224
373.222
373.219
373.217
373.215
373.214
373.212
373.21
373.209
373.207
373.206
373.204
373.203
373.202
373.201
373.201
373.201
373.2
373.2
373.199
373.2
373.199
373.199
373.199
373.201
373.201
373.202
373.204
373.207
373.211
373.216
373.221
373.228
373.235
373.242
373.25
373.259
373.268
373.277
373.286
373.295
373.305
373.314
373.323
373.332
373.341
373.349
373.358
373.366
373.373
373.381
373.388
373.395
373.402
373.408
373.414
373.42
373.425
373.431
373.436
373.441
373.446
373.451
373.455
373.46
373.464
372.798
372.845
372.893
372.938
372.977
373.012
373.042
373.067
373.089
373.108
373.124
373.137
373.149
373.158
373.167
373.173
373.179
373.183
373.186
373.189
373.19
373.191
373.192
373.192
373.192
373.191
373.189
373.188
373.186
373.184
373.182
373.18
373.178
373.176
373.174
373.172
373.17
373.169
373.167
373.165
373.164
373.162
373.16
373.159
373.157
373.155
373.153
373.152
373.151
373.149
373.148
373.147
373.146
373.145
373.144
373.144
373.143
373.142
373.142
373.141
373.14
373.139
373.138
373.137
373.137
373.137
373.137
373.137
373.139
373.14
373.142
373.144
373.146
373.149
373.151
373.153
373.155
373.158
373.161
373.163
373.166
373.169
373.173
373.176
373.18
373.185
373.189
373.194
373.198
373.203
373.207
373.213
373.218
373.225
373.23
373.237
373.242
373.25
373.255
373.265
372.77
372.815
372.86
372.901
372.937
372.97
372.998
373.024
373.046
373.065
373.082
373.096
373.109
373.119
373.128
373.136
373.142
373.148
373.152
373.155
373.158
373.159
373.161
373.161
373.161
373.161
373.161
373.16
373.158
373.157
373.156
373.154
373.152
373.151
373.149
373.147
373.145
373.144
373.142
373.141
373.138
373.137
373.134
373.133
373.13
373.128
373.126
373.124
373.122
373.121
373.118
373.118
373.114
373.114
373.114
373.117
373.115
373.116
373.117
373.117
373.116
373.115
373.114
373.113
373.111
373.11
373.109
373.108
373.107
373.107
373.107
373.106
373.105
373.105
373.104
373.103
373.102
373.101
373.101
373.1
373.1
373.1
373.1
373.099
373.1
373.099
373.1
373.1
373.101
373.102
373.101
373.102
373.102
373.105
373.106
373.105
373.107
373.107
373.109
373.111
372.756
372.799
372.842
372.881
372.916
372.947
372.975
373
373.022
373.041
373.058
373.073
373.085
373.096
373.105
373.113
373.119
373.125
373.129
373.133
373.135
373.137
373.138
373.139
373.139
373.139
373.139
373.138
373.137
373.135
373.134
373.132
373.131
373.129
373.128
373.126
373.125
373.123
373.121
373.12
373.118
373.116
373.115
373.113
373.112
373.109
373.108
373.106
373.105
373.103
373.102
373.1
373.099
373.098
373.097
373.096
373.095
373.094
373.092
373.092
373.09
373.091
373.093
373.091
373.093
373.092
373.092
373.09
373.089
373.088
373.087
373.086
373.085
373.084
373.083
373.082
373.081
373.08
373.08
373.08
373.079
373.079
373.078
373.077
373.076
373.074
373.073
373.072
373.07
373.069
373.067
373.066
373.064
373.063
373.062
373.06
373.059
373.058
373.057
373.057
372.751
372.792
372.832
372.869
372.902
372.931
372.958
372.981
373.002
373.021
373.036
373.051
373.063
373.073
373.082
373.09
373.096
373.102
373.106
373.11
373.113
373.115
373.116
373.117
373.117
373.118
373.117
373.117
373.116
373.115
373.113
373.112
373.111
373.109
373.108
373.106
373.105
373.104
373.102
373.101
373.099
373.098
373.095
373.094
373.092
373.09
373.088
373.087
373.084
373.084
373.081
373.08
373.08
373.082
373.081
373.082
373.083
373.082
373.082
373.081
373.08
373.08
373.079
373.079
373.078
373.077
373.076
373.075
373.074
373.074
373.073
373.072
373.071
373.07
373.07
373.069
373.068
373.068
373.067
373.066
373.065
373.065
373.065
373.064
373.063
373.062
373.061
373.059
373.057
373.056
373.054
373.052
373.051
373.049
373.047
373.046
373.044
373.043
373.042
373.041
372.75
372.789
372.826
372.86
372.891
372.919
372.943
372.966
372.986
373.004
373.019
373.033
373.045
373.055
373.064
373.072
373.078
373.083
373.088
373.091
373.094
373.096
373.098
373.099
373.099
373.1
373.099
373.099
373.098
373.097
373.097
373.095
373.094
373.093
373.091
373.09
373.089
373.088
373.086
373.085
373.083
373.082
373.079
373.078
373.076
373.075
373.073
373.071
373.071
373.068
373.068
373.07
373.068
373.069
373.069
373.068
373.068
373.067
373.066
373.065
373.064
373.064
373.063
373.062
373.061
373.06
373.059
373.059
373.058
373.057
373.056
373.056
373.055
373.055
373.054
373.054
373.054
373.054
373.055
373.055
373.054
373.054
373.054
373.053
373.053
373.052
373.051
373.05
373.049
373.048
373.046
373.045
373.043
373.041
373.04
373.038
373.036
373.035
373.033
373.032
372.754
372.789
372.824
372.855
372.883
372.909
372.932
372.953
372.972
372.989
373.004
373.017
373.028
373.038
373.047
373.054
373.06
373.065
373.07
373.073
373.076
373.078
373.08
373.081
373.082
373.082
373.082
373.082
373.081
373.081
373.08
373.078
373.077
373.076
373.075
373.074
373.073
373.072
373.071
373.069
373.068
373.066
373.065
373.064
373.063
373.061
373.06
373.058
373.057
373.056
373.055
373.054
373.053
373.052
373.051
373.049
373.049
373.048
373.05
373.049
373.049
373.05
373.05
373.049
373.049
373.048
373.047
373.046
373.046
373.044
373.044
373.044
373.045
373.045
373.045
373.045
373.045
373.045
373.044
373.044
373.043
373.043
373.043
373.042
373.041
373.042
373.041
373.041
373.041
373.04
373.038
373.037
373.035
373.033
373.031
373.03
373.028
373.026
373.024
373.023
372.76
372.792
372.824
372.853
372.879
372.903
372.925
372.944
372.962
372.978
372.992
373.004
373.015
373.025
373.033
373.041
373.047
373.052
373.057
373.06
373.063
373.065
373.067
373.068
373.069
373.069
373.07
373.07
373.069
373.069
373.068
373.067
373.066
373.065
373.064
373.063
373.062
373.06
373.059
373.058
373.057
373.055
373.054
373.053
373.051
373.049
373.048
373.049
373.049
373.048
373.048
373.046
373.045
373.044
373.043
373.042
373.041
373.04
373.039
373.037
373.037
373.037
373.039
373.038
373.039
373.039
373.039
373.038
373.038
373.037
373.037
373.037
373.036
373.036
373.035
373.035
373.034
373.034
373.033
373.033
373.033
373.033
373.032
373.032
373.031
373.031
373.031
373.032
373.031
373.032
373.031
373.03
373.029
373.027
373.026
373.024
373.022
373.02
373.018
373.017
372.77
372.798
372.827
372.854
372.878
372.899
372.919
372.938
372.954
372.969
372.982
372.994
373.004
373.013
373.021
373.028
373.034
373.039
373.043
373.047
373.05
373.052
373.054
373.055
373.056
373.056
373.057
373.057
373.057
373.056
373.055
373.055
373.054
373.053
373.052
373.051
373.05
373.049
373.048
373.048
373.047
373.046
373.045
373.044
373.042
373.042
373.041
373.041
373.04
373.039
373.039
373.038
373.037
373.036
373.035
373.035
373.034
373.033
373.032
373.032
373.031
373.031
373.03
373.03
373.029
373.028
373.028
373.027
373.026
373.026
373.026
373.027
373.027
373.027
373.028
373.028
373.027
373.027
373.027
373.027
373.026
373.026
373.026
373.026
373.025
373.025
373.025
373.025
373.025
373.025
373.025
373.025
373.024
373.022
373.02
373.019
373.017
373.015
373.013
373.012
372.781
372.806
372.833
372.857
372.879
372.898
372.917
372.934
372.949
372.963
372.975
372.986
372.996
373.005
373.012
373.019
373.025
373.03
373.034
373.037
373.04
373.042
373.044
373.046
373.046
373.047
373.048
373.048
373.048
373.047
373.047
373.046
373.045
373.045
373.044
373.043
373.042
373.041
373.04
373.039
373.038
373.037
373.036
373.035
373.034
373.033
373.033
373.032
373.032
373.031
373.03
373.029
373.028
373.027
373.026
373.025
373.025
373.025
373.025
373.025
373.025
373.024
373.024
373.023
373.022
373.022
373.021
373.021
373.021
373.021
373.021
373.021
373.02
373.02
373.019
373.019
373.02
373.02
373.02
373.02
373.022
373.022
373.023
373.023
373.023
373.023
373.022
373.022
373.022
373.022
373.021
373.02
373.019
373.017
373.016
373.014
373.012
373.011
373.008
373.008
372.796
372.818
372.841
372.863
372.882
372.9
372.917
372.932
372.946
372.959
372.97
372.981
372.99
372.998
373.005
373.011
373.016
373.021
373.025
373.028
373.031
373.033
373.035
373.036
373.037
373.038
373.038
373.038
373.039
373.038
373.038
373.037
373.037
373.036
373.035
373.034
373.034
373.033
373.032
373.032
373.031
373.03
373.029
373.029
373.028
373.027
373.026
373.026
373.025
373.024
373.023
373.023
373.021
373.021
373.019
373.019
373.019
373.02
373.019
373.02
373.02
373.02
373.019
373.019
373.018
373.018
373.017
373.017
373.017
373.017
373.016
373.017
373.016
373.016
373.016
373.016
373.016
373.016
373.017
373.018
373.018
373.018
373.019
373.019
373.018
373.018
373.018
373.017
373.017
373.017
373.017
373.016
373.015
373.014
373.012
373.011
373.009
373.007
373.005
373.004
372.811
372.831
372.851
372.871
372.888
372.904
372.919
372.933
372.946
372.957
372.968
372.977
372.986
372.993
373
373.005
373.011
373.015
373.019
373.022
373.024
373.026
373.028
373.029
373.03
373.031
373.032
373.032
373.032
373.032
373.032
373.031
373.031
373.03
373.029
373.029
373.028
373.027
373.027
373.026
373.025
373.025
373.024
373.024
373.023
373.022
373.021
373.02
373.02
373.018
373.018
373.017
373.017
373.016
373.015
373.015
373.015
373.016
373.016
373.015
373.015
373.015
373.014
373.013
373.013
373.012
373.012
373.012
373.012
373.012
373.013
373.015
373.014
373.015
373.015
373.015
373.015
373.014
373.014
373.014
373.014
373.013
373.013
373.014
373.013
373.013
373.013
373.013
373.013
373.013
373.013
373.013
373.012
373.011
373.009
373.008
373.006
373.005
373.002
373.002
372.829
372.846
372.864
372.881
372.896
372.91
372.924
372.936
372.947
372.958
372.967
372.976
372.983
372.99
372.996
373.001
373.006
373.01
373.013
373.016
373.018
373.02
373.022
373.023
373.024
373.025
373.025
373.025
373.026
373.026
373.025
373.025
373.024
373.024
373.023
373.023
373.022
373.021
373.021
373.02
373.02
373.019
373.018
373.018
373.017
373.017
373.016
373.015
373.015
373.014
373.014
373.013
373.013
373.012
373.013
373.013
373.013
373.012
373.012
373.012
373.011
373.011
373.01
373.01
373.009
373.009
373.008
373.008
373.008
373.007
373.007
373.007
373.007
373.007
373.007
373.007
373.007
373.008
373.009
373.009
373.009
373.01
373.01
373.01
373.01
373.01
373.01
373.01
373.01
373.01
373.01
373.01
373.01
373.009
373.008
373.007
373.005
373.004
373.002
373.001
372.847
372.862
372.877
372.892
372.905
372.918
372.929
372.94
372.95
372.959
372.968
372.975
372.982
372.988
372.994
372.998
373.002
373.006
373.009
373.012
373.014
373.016
373.017
373.019
373.019
373.02
373.02
373.021
373.021
373.021
373.021
373.021
373.02
373.02
373.019
373.019
373.018
373.018
373.017
373.017
373.016
373.015
373.015
373.014
373.014
373.013
373.013
373.013
373.012
373.012
373.012
373.011
373.01
373.01
373.009
373.008
373.008
373.007
373.007
373.007
373.007
373.007
373.008
373.008
373.008
373.007
373.007
373.007
373.007
373.006
373.006
373.006
373.006
373.006
373.005
373.005
373.006
373.006
373.006
373.006
373.006
373.006
373.007
373.007
373.007
373.007
373.007
373.008
373.007
373.008
373.007
373.008
373.007
373.007
373.006
373.005
373.003
373.002
373
373
372.867
372.879
372.892
372.905
372.916
372.927
372.937
372.946
372.955
372.963
372.97
372.976
372.982
372.987
372.992
372.996
373
373.003
373.006
373.008
373.01
373.012
373.013
373.014
373.015
373.015
373.016
373.016
373.016
373.016
373.016
373.016
373.015
373.015
373.014
373.014
373.013
373.013
373.012
373.012
373.011
373.011
373.01
373.009
373.009
373.009
373.009
373.009
373.009
373.008
373.008
373.007
373.007
373.006
373.006
373.005
373.005
373.004
373.004
373.003
373.003
373.003
373.003
373.003
373.003
373.003
373.003
373.003
373.003
373.003
373.003
373.003
373.002
373.002
373.002
373.002
373.002
373.002
373.003
373.003
373.003
373.003
373.003
373.003
373.003
373.004
373.004
373.005
373.005
373.005
373.005
373.005
373.005
373.005
373.005
373.005
373.003
373.003
373.001
373
372.887
372.897
372.907
372.918
372.927
372.936
372.945
372.952
372.96
372.966
372.973
372.978
372.983
372.988
372.992
372.995
372.998
373.001
373.003
373.005
373.007
373.008
373.009
373.01
373.011
373.011
373.012
373.012
373.012
373.012
373.012
373.012
373.012
373.011
373.011
373.01
373.01
373.009
373.009
373.008
373.008
373.008
373.008
373.007
373.007
373.006
373.006
373.005
373.005
373.004
373.004
373.003
373.003
373.002
373.002
373.002
373.002
373.003
373.002
373.003
373.003
373.003
373.003
373.002
373.002
373.002
373.002
373.001
373.001
373.001
373.001
373
373
373
373
373
373
373
373
373.001
373.001
373.001
373.002
373.002
373.003
373.003
373.003
373.003
373.003
373.003
373.003
373.003
373.003
373.003
373.003
373.002
373.001
373.001
372.999
372.999
372.907
372.915
372.923
372.932
372.939
372.946
372.953
372.96
372.966
372.971
372.976
372.98
372.985
372.988
372.991
372.994
372.997
372.999
373.001
373.003
373.004
373.005
373.006
373.006
373.007
373.007
373.008
373.008
373.008
373.008
373.008
373.007
373.007
373.007
373.006
373.006
373.005
373.005
373.004
373.004
373.004
373.003
373.003
373.003
373.003
373.002
373.002
373.002
373.001
373.001
373
373
373
372.999
372.999
372.999
372.999
372.999
372.999
372.999
372.999
372.999
372.999
372.999
372.998
372.998
372.998
372.998
372.998
372.998
372.997
372.998
372.998
372.998
372.999
372.998
372.999
372.999
372.999
373
373
373.001
373.001
373.001
373.001
373.001
373.001
373.001
373.002
373.002
373.002
373.002
373.002
373.002
373.002
373.002
373.002
373.002
373.001
373
372.927
372.933
372.939
372.946
372.952
372.957
372.962
372.967
372.972
372.976
372.98
372.984
372.987
372.99
372.992
372.994
372.996
372.998
372.999
373
373.001
373.002
373.003
373.003
373.003
373.004
373.004
373.004
373.004
373.004
373.004
373.004
373.003
373.003
373.003
373.002
373.002
373.002
373.001
373.001
373.001
373
373
373
372.999
372.999
372.999
372.998
372.998
372.998
372.997
372.997
372.996
372.996
372.996
372.996
372.996
372.996
372.996
372.996
372.995
372.995
372.995
372.995
372.995
372.996
372.996
372.996
372.996
372.997
372.997
372.998
372.998
372.998
372.998
372.999
373
373
373
373.001
373.001
373.001
373.001
373.002
373.002
373.002
373.002
373.002
373.002
373.002
373.003
373.003
373.003
373.003
373.002
373.002
373.001
373
372.999
372.999
372.947
372.951
372.956
372.96
372.965
372.968
372.972
372.976
372.979
372.982
372.984
372.987
372.989
372.991
372.992
372.994
372.995
372.996
372.997
372.998
372.998
372.999
372.999
372.999
372.999
372.999
372.999
372.999
372.999
372.999
372.999
372.998
372.998
372.998
372.997
372.997
372.997
372.996
372.996
372.996
372.995
372.995
372.995
372.995
372.995
372.994
372.994
372.994
372.994
372.994
372.993
372.993
372.993
372.993
372.993
372.993
372.994
372.994
372.994
372.994
372.995
372.995
372.996
372.996
372.996
372.997
372.997
372.998
372.998
372.998
372.998
372.999
372.999
373
373.001
373.001
373.002
373.002
373.003
373.003
373.003
373.004
373.004
373.004
373.004
373.004
373.004
373.004
373.004
373.004
373.004
373.004
373.004
373.004
373.004
373.003
373.003
373.002
373.001
373.001
372.968
372.97
372.972
372.975
372.977
372.979
372.981
372.983
372.984
372.986
372.987
372.988
372.989
372.99
372.991
372.991
372.992
372.992
372.992
372.993
372.993
372.993
372.993
372.993
372.993
372.994
372.994
372.994
372.994
372.994
372.993
372.993
372.993
372.993
372.993
372.993
372.993
372.993
372.992
372.992
372.992
372.992
372.992
372.992
372.992
372.992
372.992
372.992
372.992
372.992
372.992
372.992
372.992
372.992
372.992
372.993
372.993
372.993
372.993
372.994
372.994
372.994
372.995
372.995
372.995
372.996
372.996
372.997
372.997
372.998
372.998
372.999
373
373
373.001
373.002
373.002
373.003
373.003
373.004
373.004
373.005
373.005
373.005
373.005
373.005
373.005
373.005
373.005
373.005
373.005
373.005
373.005
373.005
373.004
373.004
373.003
373.003
373.003
373.002
372.984
372.985
372.986
372.986
372.986
372.987
372.987
372.987
372.987
372.987
372.987
372.988
372.988
372.988
372.988
372.988
372.988
372.989
372.989
372.989
372.989
372.989
372.99
372.99
372.99
372.99
372.99
372.99
372.99
372.991
372.991
372.991
372.991
372.991
372.991
372.991
372.991
372.991
372.991
372.991
372.991
372.991
372.991
372.991
372.99
372.99
372.99
372.99
372.99
372.99
372.991
372.991
372.991
372.991
372.992
372.992
372.992
372.992
372.993
372.993
372.994
372.994
372.994
372.995
372.995
372.996
372.996
372.997
372.997
372.998
372.999
372.999
373
373.001
373.001
373.002
373.003
373.003
373.004
373.005
373.005
373.005
373.006
373.006
373.006
373.006
373.006
373.006
373.006
373.006
373.006
373.006
373.006
373.006
373.006
373.005
373.005
373.005
373.004
373.004
372.387
372.395
372.416
372.448
372.483
372.538
372.572
372.636
372.674
372.749
372.452
372.455
372.468
372.492
372.515
372.558
372.586
372.635
372.673
372.725
372.504
372.505
372.514
372.531
372.549
372.581
372.604
372.64
372.674
372.715
372.551
372.549
372.555
372.566
372.581
372.603
372.628
372.651
372.682
372.715
372.593
372.59
372.592
372.6
372.612
372.626
372.648
372.666
372.69
372.718
372.632
372.628
372.629
372.633
372.642
372.652
372.668
372.684
372.702
372.726
372.668
372.663
372.662
372.664
372.67
372.678
372.689
372.703
372.717
372.736
372.702
372.696
372.694
372.695
372.698
372.704
372.712
372.723
372.733
372.749
372.733
372.727
372.725
372.724
372.726
372.73
372.735
372.743
372.751
372.764
372.762
372.757
372.754
372.753
372.753
372.756
372.76
372.765
372.772
372.781
372.789
372.784
372.781
372.779
372.779
372.781
372.783
372.787
372.792
372.799
372.816
372.811
372.808
372.806
372.806
372.806
372.808
372.81
372.814
372.819
372.84
372.836
372.833
372.831
372.83
372.83
372.831
372.833
372.835
372.839
372.864
372.86
372.857
372.855
372.854
372.854
372.855
372.856
372.857
372.86
372.886
372.883
372.88
372.879
372.878
372.877
372.877
372.878
372.879
372.881
372.908
372.905
372.903
372.902
372.901
372.9
372.9
372.901
372.901
372.903
372.929
372.927
372.925
372.924
372.923
372.923
372.922
372.922
372.923
372.924
372.95
372.949
372.947
372.946
372.946
372.945
372.945
372.945
372.945
372.945
372.97
372.969
372.968
372.968
372.967
372.967
372.966
372.966
372.966
372.966
372.989
372.988
372.988
372.987
372.987
372.986
372.986
372.985
372.984
372.984
373.136
373.129
373.099
373.053
372.988
372.899
372.773
372.595
372.356
372.077
372.984
372.962
372.921
372.862
372.777
372.663
372.506
372.287
372.003
371.722
372.844
372.805
372.753
372.679
372.577
372.439
372.251
371.997
371.669
371.397
372.715
372.663
372.596
372.51
372.391
372.232
372.021
371.733
371.368
371.153
372.605
372.537
372.461
372.361
372.228
372.052
371.819
371.505
371.106
370.905
372.509
372.432
372.345
372.235
372.09
371.901
371.655
371.32
370.9
370.715
372.433
372.348
372.254
372.136
371.985
371.787
371.531
371.187
370.747
370.616
372.373
372.286
372.187
372.066
371.911
371.71
371.451
371.108
370.671
370.65
372.334
372.245
372.146
372.023
371.87
371.672
371.417
371.09
370.677
370.754
372.313
372.227
372.129
372.01
371.862
371.674
371.431
371.132
370.762
370.968
374.084
374.167
374.252
374.343
374.444
374.555
374.674
374.793
374.902
374.919
374.068
374.15
374.232
374.319
374.417
374.523
374.636
374.749
374.854
374.866
374.028
374.105
374.181
374.263
374.352
374.449
374.549
374.648
374.743
374.752
373.969
374.037
374.107
374.177
374.257
374.338
374.423
374.495
374.567
374.553
373.89
373.948
374.008
374.067
374.13
374.196
374.259
374.306
374.341
374.305
373.794
373.842
373.888
373.934
373.979
374.02
374.061
374.076
374.072
374
373.682
373.719
373.75
373.78
373.809
373.825
373.834
373.817
373.768
373.657
373.56
373.582
373.601
373.608
373.615
373.608
373.584
373.53
373.436
373.275
373.429
373.438
373.44
373.431
373.412
373.379
373.32
373.225
373.083
372.881
373.295
373.29
373.273
373.244
373.2
373.139
373.048
372.911
372.72
372.473
373
373
373
373
373
373
373
373
373
373
373
373
373.001
373.001
373.001
373.001
373.001
373.001
373.001
373.001
373.002
373.002
373.002
373.002
373.002
373.003
373.003
373.003
373.004
373.004
373.004
373.005
373.005
373.006
373.006
373.007
373.007
373.008
373.009
373.009
373.01
373.011
373.012
373.013
373.014
373.015
373.016
373.017
373.019
373.02
373.022
373.024
373.025
373.028
373.029
373.032
373.034
373.037
373.04
373.042
373.046
373.049
373.053
373.057
373.062
373.066
373.071
373.076
373.082
373.088
373.095
373.101
373.11
373.117
373.127
373.135
373.146
373.156
373.169
373.181
373.195
373.209
373.226
373.243
373.263
373.282
373.306
373.329
373.357
373.386
373.42
373.455
373.497
373.542
373.595
373.652
373.722
373.798
373.89
374.003
373
373
373
373
373
373
373
373
373
373
373
373
373.001
373.001
373.001
373.001
373.001
373.001
373.001
373.001
373.002
373.002
373.002
373.002
373.002
373.003
373.003
373.003
373.004
373.004
373.004
373.005
373.005
373.006
373.006
373.007