/*--------------------------------*- C++ -*----------------------------------*\
  =========                 |
  \\      /  F ield         | OpenFOAM: The Open Source CFD Toolbox
   \\    /   O peration     | Website:  https://openfoam.org
    \\  /    A nd           | Version:  8
     \\/     M anipulation  |
\*---------------------------------------------------------------------------*/
FoamFile
{
    version     2.0;
    format      ascii;
    class       volVectorField;
    location    "0.500023";
    object      U;
}
// * * * * * * * * * * * * * * * * * * * * * * * * * * * * * * * * * * * * * //

dimensions      [0 1 -1 0 0 0 0];

internalField   nonuniform List<vector> 
6800
(
(15.3048 4.29679 -8.22742e-15)
(46.957 -11.5812 0)
(64.8884 -12.4499 1.74374e-15)
(75.7795 -11.706 -2.91449e-15)
(82.6998 -10.6855 -2.93358e-19)
(87.1804 -9.57868 2.72118e-19)
(90.0836 -8.538 -2.25084e-15)
(91.9604 -7.61499 2.14739e-15)
(93.195 -6.78043 0)
(93.9827 -6.0667 -9.91634e-16)
(29.6842 -0.796489 9.72909e-15)
(58.8487 -16.2313 -9.98034e-16)
(75.0161 -13.9664 0)
(83.9272 -12.1954 0)
(89.157 -10.5842 0)
(92.3076 -9.09748 1.15714e-15)
(94.1758 -7.84657 -1.10632e-15)
(95.2518 -6.83712 2.12712e-15)
(95.8611 -6.02195 1.02854e-15)
(96.1452 -5.46421 -9.96098e-16)
(43.763 -4.52823 -3.35744e-15)
(70.2223 -20.2084 -1.72985e-15)
(84.067 -14.7478 0)
(90.871 -12.2544 -2.55464e-15)
(94.4793 -10.1552 -1.19363e-15)
(96.4131 -8.37968 -5.59337e-19)
(97.3711 -6.98704 2.20089e-15)
(97.7734 -5.91616 -2.13296e-15)
(97.876 -5.08161 2.07693e-15)
(97.7746 -4.49599 -2.02315e-15)
(58.2096 -6.41429 2.59518e-15)
(81.2706 -22.9911 3.8135e-18)
(92.2936 -14.5357 0)
(96.9281 -11.7685 1.23643e-15)
(99.0033 -9.29939 3.25692e-19)
(99.8368 -7.35123 1.13757e-15)
(100.013 -5.88714 0)
(99.8647 -4.78371 2.16018e-15)
(99.5686 -3.93407 6.05755e-19)
(99.1727 -3.32016 0)
(72.2578 -6.12732 1.06326e-15)
(91.7746 -24.2283 7.11757e-16)
(99.7352 -13.1654 6.42243e-16)
(102.276 -10.6296 1.21025e-15)
(102.936 -7.9106 -5.85442e-16)
(102.799 -5.92846 5.72829e-16)
(102.312 -4.46473 -1.12016e-15)
(101.706 -3.37149 1.64967e-15)
(101.081 -2.53707 -2.16035e-15)
(100.438 -1.92426 -2.65513e-15)
(85.3106 -3.6983 -1.84122e-15)
(101.497 -23.7606 6.60508e-16)
(106.347 -10.5889 -6.23461e-16)
(106.991 -8.76345 5.98174e-16)
(106.382 -5.89866 -1.76539e-15)
(105.406 -4.0379 1.15793e-15)
(104.354 -2.65282 0)
(103.357 -1.62528 -1.12666e-15)
(102.445 -0.852791 5.55658e-16)
(101.579 -0.277886 5.48483e-16)
(96.9082 0.663532 0)
(110.208 -21.5715 6.2949e-16)
(112.036 -6.85398 6.10863e-16)
(111.06 -6.13117 4.68662e-19)
(109.346 -3.22615 -5.92603e-16)
(107.665 -1.649 5.89118e-16)
(106.13 -0.417775 5.84379e-16)
(104.794 0.479297 5.80028e-16)
(103.627 1.13135 -2.2991e-15)
(102.554 1.63225 1.70738e-15)
(106.695 6.63848 3.72744e-16)
(117.685 -17.7356 -6.08236e-16)
(116.69 -2.09835 -6.04346e-16)
(114.415 -2.75073 -9.01766e-16)
(111.773 0.0917766 1.80679e-15)
(109.515 1.23408 -6.0165e-16)
(107.577 2.23662 -6.01859e-16)
(105.951 2.93311 6.00408e-16)
(104.564 3.40193 -1.19521e-15)
(103.304 3.79719 -8.93151e-16)
(114.445 13.8388 -1.73748e-16)
(123.728 -12.4082 1.48002e-16)
(120.196 3.46962 0)
(116.958 1.32206 3.02787e-16)
(113.578 3.97776 0)
(110.872 4.55682 -4.64251e-16)
(108.608 5.26553 4.6657e-16)
(106.747 5.69155 0)
(105.185 5.9193 -1.56225e-16)
(103.763 6.18469 4.68862e-16)
(120.027 21.8592 0)
(128.163 -5.81311 -1.46208e-16)
(122.47 9.59703 -7.56217e-17)
(118.604 5.98837 7.67524e-17)
(114.663 8.30391 2.79675e-31)
(111.638 8.24017 -1.60204e-16)
(109.136 8.59042 1.61623e-16)
(107.105 8.68479 1.63571e-16)
(105.423 8.62595 1.64762e-16)
(103.87 8.74101 -4.96552e-16)
(-6.18244 3.01291 0)
(-9.40388 2.11416 -2.82753e-16)
(-12.9567 1.52422 0)
(-15.3052 1.04563 0)
(-16.6029 0.575847 0)
(-16.9935 0.0877917 2.14939e-16)
(-16.5514 -0.418916 -2.12971e-16)
(-15.333 -0.923244 -2.10512e-16)
(-13.4942 -1.35688 4.19981e-16)
(-11.1661 -1.62443 5.66923e-20)
(-6.26487 7.85902 6.7082e-16)
(-8.72229 5.83407 3.75775e-16)
(-11.5263 4.24213 0)
(-13.1592 2.89166 5.86414e-16)
(-13.7159 1.54485 0)
(-13.2971 0.111378 -2.89925e-16)
(-11.9365 -1.39632 2.91384e-16)
(-9.78076 -2.86983 0)
(-7.11234 -4.08639 -2.88874e-16)
(-4.02742 -4.79298 9.67819e-16)
(-6.47865 11.868 -1.23399e-15)
(-7.76558 8.91262 -1.53182e-15)
(-9.21401 6.40939 1.32167e-15)
(-9.43338 4.23023 -1.93599e-15)
(-8.43432 2.03936 -1.33824e-15)
(-6.16407 -0.318735 1.41867e-15)
(-2.75728 -2.77515 4.68447e-19)
(1.01731 -4.99353 -2.83964e-15)
(4.88344 -6.66608 5.20883e-15)
(8.95299 -7.45743 -1.89269e-15)
(-6.85634 14.7073 0)
(-6.73096 10.9476 1.6235e-15)
(-6.26468 7.65256 -1.48012e-15)
(-4.28528 4.67171 3.12072e-15)
(-0.481855 1.48937 -1.68128e-15)
(5.11402 -1.86662 1.55141e-15)
(10.4694 -4.6587 1.32286e-15)
(15.4941 -6.81603 1.15883e-15)
(20.0785 -8.39658 7.53651e-19)
(24.9185 -8.99773 -1.01047e-15)
(-7.31162 16.2057 3.97891e-19)
(-5.57068 11.6641 -1.7822e-15)
(-2.37247 7.47291 1.72333e-15)
(3.2638 3.45879 -1.73041e-15)
(11.1713 -0.612918 1.50009e-15)
(18.6491 -3.93865 -2.47916e-15)
(25.3763 -6.42297 0)
(31.3831 -8.18375 -1.92452e-15)
(36.6117 -9.38878 8.83137e-16)
(42.0097 -9.6483 4.23121e-15)
(-7.75021 16.4404 2.42662e-15)
(-3.82907 10.7386 5.83118e-15)
(3.42356 5.57657 -1.90303e-15)
(14.2164 0.527924 -3.1297e-15)
(24.3098 -3.33997 6.14187e-15)
(33.1279 -6.1212 -3.11827e-15)
(40.7564 -8.03265 0)
(47.2754 -9.22111 -8.41056e-16)
(52.6651 -9.85738 -3.28945e-19)
(57.8736 -9.65327 -7.18173e-16)
(-8.07353 15.4835 4.94106e-15)
(-0.629484 8.21042 -7.2848e-20)
(13.3584 1.55716 0)
(26.8242 -3.0557 2.60631e-15)
(38.2649 -6.12728 4.23317e-15)
(47.7466 -8.04446 -1.8323e-15)
(55.4214 -9.13337 0)
(61.5135 -9.65663 -2.91085e-15)
(66.2754 -9.78857 5.30026e-15)
(70.5765 -9.26635 0)
(-7.91039 13.2688 -5.26946e-15)
(6.79335 3.61033 -9.76646e-15)
(25.5066 -2.9712 3.00697e-15)
(40.5488 -6.52013 3.63905e-19)
(52.2558 -8.36668 -3.68765e-15)
(61.1376 -9.28535 0)
(67.7986 -9.60939 -1.40481e-15)
(72.8173 -9.55628 0)
(76.579 -9.28594 -2.35688e-15)
(79.822 -8.57823 2.21499e-15)
(-6.07365 10.1465 3.12378e-15)
(19.5532 -2.17866 0)
(39.5371 -7.26766 0)
(54.1741 -9.17422 0)
(64.6178 -9.80237 0)
(72.0567 -9.82084 1.38958e-15)
(77.3918 -9.52095 3.77539e-15)
(81.2414 -9.05614 -2.32705e-15)
(84.011 -8.52763 -3.27776e-15)
(86.279 -7.74098 3.12006e-15)
(-1.78876 8.65263 -9.06645e-15)
(33.53 -6.9809 0)
(53.0583 -10.3916 -2.05456e-15)
(65.9558 -10.8142 3.27217e-15)
(74.6543 -10.4817 2.57393e-19)
(80.5804 -9.85059 -2.53142e-15)
(84.6417 -9.11592 2.34148e-15)
(87.4255 -8.37463 -2.20363e-15)
(89.3256 -7.66094 0)
(90.7215 -6.85197 -1.00935e-15)
(-8.30361 -1.65174 -2.02712e-16)
(-4.8685 -1.5197 0)
(-1.7835 -1.38572 0)
(1.12068 -1.23916 0)
(3.62845 -1.09982 0)
(5.92187 -0.99442 0)
(8.0296 -0.913945 -7.01535e-18)
(9.98516 -0.849653 2.19681e-16)
(11.8167 -0.796389 -2.08402e-16)
(13.5435 -0.750912 0)
(15.1792 -0.711173 6.46716e-18)
(16.7341 -0.675836 6.35079e-18)
(18.2166 -0.643982 6.24106e-18)
(19.6333 -0.61497 6.1374e-18)
(20.9895 -0.588292 6.03937e-18)
(22.2899 -0.563498 0)
(23.5381 -0.540219 -1.81635e-16)
(24.7371 -0.518218 5.77078e-18)
(25.8894 -0.497352 1.88055e-16)
(26.9973 -0.477527 5.62549e-18)
(28.0629 -0.458672 0)
(29.0881 -0.440726 5.49194e-18)
(30.075 -0.423643 -1.68365e-16)
(31.0252 -0.407375 1.7734e-16)
(31.9406 -0.391852 5.3204e-18)
(32.8226 -0.37701 -1.63382e-16)
(33.6727 -0.362797 1.67164e-16)
(34.4921 -0.349164 5.18054e-18)
(35.2821 -0.33607 5.14037e-18)
(36.0438 -0.3235 -1.58196e-16)
(36.7782 -0.311448 1.67262e-16)
(37.4864 -0.299912 5.03629e-18)
(38.1694 -0.288883 5.00621e-18)
(38.8283 -0.278353 -1.54318e-16)
(39.4642 -0.268307 1.58454e-16)
(40.0781 -0.258728 -1.62582e-16)
(40.6709 -0.249596 1.56909e-16)
(41.2435 -0.240893 0)
(41.797 -0.232608 0)
(42.3321 -0.224729 1.54887e-16)
(42.8497 -0.21725 -1.54279e-16)
(43.3507 -0.21017 -1.58492e-16)
(43.8359 -0.203488 1.53123e-16)
(44.3062 -0.197196 -1.52565e-16)
(44.7626 -0.191276 1.47272e-16)
(45.2057 -0.185707 0)
(45.6365 -0.180456 -4.71729e-18)
(46.0556 -0.175481 0)
(46.4638 -0.170738 -4.68436e-18)
(46.8614 -0.166189 0)
(47.2489 -0.161805 0)
(47.6266 -0.157572 0)
(47.9948 -0.153484 -4.61849e-18)
(48.3538 -0.149547 0)
(48.7039 -0.145769 6.8777e-17)
(49.0455 -0.142153 -7.30949e-17)
(49.3789 -0.1387 0)
(49.7045 -0.135405 -4.53465e-18)
(50.0226 -0.132261 0)
(50.3335 -0.129266 -4.50082e-18)
(50.6376 -0.126413 0)
(50.9353 -0.123699 0)
(51.2268 -0.121116 0)
(51.5125 -0.118658 -7.09454e-17)
(51.7927 -0.116314 7.06863e-17)
(52.0677 -0.114071 -4.40185e-18)
(52.3376 -0.111914 0)
(52.6028 -0.109826 0)
(52.8633 -0.10779 -4.35488e-18)
(53.1192 -0.105818 -6.94282e-17)
(53.3706 -0.103937 6.48549e-17)
(53.6179 -0.102154 6.89267e-17)
(53.8613 -0.100462 -7.29695e-17)
(54.1011 -0.0988415 0)
(54.3373 -0.097279 0)
(54.5702 -0.0957597 0)
(54.7999 -0.0942705 -4.23241e-18)
(55.0263 -0.092811 3.37485e-17)
(55.2495 -0.0913868 -3.36429e-17)
(55.4698 -0.0899986 3.3542e-17)
(55.687 -0.0886409 -2.92663e-17)
(55.9014 -0.0873048 0)
(56.1129 -0.0859867 -3.3275e-17)
(56.3216 -0.0846843 6.63967e-17)
(56.5275 -0.0833942 -2.89872e-17)
(56.7307 -0.0821115 0)
(56.9311 -0.0808293 0)
(57.1288 -0.079552 0)
(57.3236 -0.0782793 0)
(57.5157 -0.0770118 4.10815e-18)
(57.7049 -0.0757494 0)
(57.8913 -0.0744896 -1.63984e-17)
(58.0748 -0.0732165 7.18859e-23)
(58.2554 -0.071936 1.22797e-17)
(58.4331 -0.0706176 0)
(58.6077 -0.0692512 -8.17722e-18)
(58.7789 -0.0677679 4.08838e-18)
(58.9463 -0.066139 8.17094e-18)
(59.1095 -0.0641791 0)
(59.3061 -0.0601583 0)
(-1.1391 -4.67722 9.44483e-18)
(1.66908 -4.1937 -2.04466e-17)
(4.21278 -3.79118 -1.28323e-15)
(6.55439 -3.42609 1.22103e-15)
(8.69838 -3.09122 0)
(10.7005 -2.82053 0)
(12.5737 -2.60573 2.62909e-17)
(14.3327 -2.43076 0)
(15.9932 -2.28395 -8.33345e-18)
(17.5676 -2.15751 1.62803e-17)
(19.0652 -2.04637 -7.96047e-18)
(20.4935 -1.9471 -7.79251e-18)
(21.8586 -1.85725 -7.63548e-18)
(23.1654 -1.77507 -7.48842e-18)
(24.4181 -1.69938 7.35028e-18)
(25.6204 -1.62904 0)
(26.7752 -1.56293 9.01739e-16)
(27.8848 -1.50032 -8.87333e-16)
(28.9514 -1.44087 -6.88117e-18)
(29.9771 -1.38436 -6.78212e-18)
(30.9641 -1.33059 0)
(31.914 -1.2794 6.60235e-18)
(32.8287 -1.23058 -8.41202e-16)
(33.7097 -1.18409 1.64334e-15)
(34.5586 -1.13986 -8.22122e-16)
(35.3769 -1.09761 -1.89191e-17)
(36.1658 -1.05716 0)
(36.9267 -1.01834 -6.18641e-18)
(37.6607 -0.981013 -6.13261e-18)
(38.3686 -0.94509 7.84635e-16)
(39.0516 -0.910533 -7.7861e-16)
(39.7105 -0.877338 -3.8947e-16)
(40.3462 -0.845497 7.67652e-16)
(40.9597 -0.815008 -5.91937e-18)
(41.5518 -0.785851 -3.76051e-16)
(42.1236 -0.757994 5.8414e-18)
(42.6758 -0.731394 0)
(43.2093 -0.705996 0)
(43.725 -0.681756 3.67936e-16)
(44.2237 -0.658645 -3.66171e-16)
(44.706 -0.636636 -3.64469e-16)
(45.1728 -0.615714 7.31366e-16)
(45.6247 -0.595922 -7.64951e-21)
(46.0625 -0.577279 -3.5977e-16)
(46.487 -0.559777 5.59834e-18)
(46.899 -0.543376 0)
(47.2994 -0.527979 3.61008e-16)
(47.6887 -0.513491 -3.65151e-16)
(48.0678 -0.499764 -3.47215e-16)
(48.4371 -0.486632 3.51397e-16)
(48.7971 -0.473966 0)
(49.148 -0.461681 -3.4876e-16)
(49.4901 -0.449764 3.52892e-16)
(49.8236 -0.438235 -3.46161e-16)
(50.1488 -0.427121 3.50265e-16)
(50.466 -0.416434 0)
(50.7755 -0.406183 -3.42307e-16)
(51.0775 -0.396369 6.87406e-16)
(51.3724 -0.386982 -3.39781e-16)
(51.6604 -0.378051 5.28955e-18)
(51.942 -0.369565 0)
(52.2174 -0.361474 0)
(52.487 -0.353757 0)
(52.7509 -0.346428 0)
(53.0095 -0.339474 0)
(53.2631 -0.33287 5.17932e-18)
(53.512 -0.32661 0)
(53.7567 -0.32063 1.64652e-16)
(53.9972 -0.314707 -1.58989e-16)
(54.2335 -0.308787 -1.63576e-16)
(54.4657 -0.303128 5.0963e-18)
(54.6939 -0.297878 1.6248e-16)
(54.9186 -0.292998 1.6699e-16)
(55.1401 -0.288382 -1.37777e-21)
(55.3585 -0.283926 -1.60857e-16)
(55.5738 -0.2796 0)
(55.7863 -0.275358 1.64833e-16)
(55.9958 -0.271162 -1.12481e-21)
(56.2024 -0.267054 -1.48967e-16)
(56.4062 -0.263073 -1.68363e-16)
(56.6073 -0.259215 1.53108e-16)
(56.8059 -0.255456 -8.86825e-17)
(57.0018 -0.251765 6.88174e-17)
(57.1954 -0.248117 -8.82902e-17)
(57.3864 -0.244499 -4.895e-18)
(57.5751 -0.240898 6.84111e-17)
(57.7613 -0.237298 9.7569e-18)
(57.9451 -0.233701 6.81948e-17)
(58.1264 -0.230091 -7.78324e-17)
(58.3053 -0.226481 -8.25939e-17)
(58.4816 -0.222862 7.76529e-17)
(58.6554 -0.219252 2.90903e-17)
(58.8267 -0.215621 -1.54648e-22)
(58.9955 -0.211962 -4.35643e-17)
(59.1616 -0.208183 9.67569e-18)
(59.3251 -0.204241 -9.66879e-18)
(59.4855 -0.19994 1.93327e-17)
(59.6424 -0.195183 -3.38095e-17)
(59.7967 -0.189416 9.66115e-18)
(59.9813 -0.180364 -1.03896e-17)
(11.1296 -6.95888 -2.17359e-15)
(12.7037 -6.23216 5.11358e-17)
(14.3915 -5.67394 5.02876e-17)
(16.0767 -5.19305 2.11092e-15)
(17.7027 -4.75973 -2.04258e-15)
(19.2691 -4.39284 -2.00829e-15)
(20.7757 -4.0893 2.02018e-15)
(22.2217 -3.8345 3.07811e-17)
(23.6073 -3.61577 1.96652e-15)
(24.9344 -3.42406 -1.88818e-15)
(26.2059 -3.2534 2.92413e-17)
(27.4248 -3.09951 2.87661e-17)
(28.5941 -2.95918 1.84039e-15)
(29.7163 -2.82995 -1.78419e-15)
(30.7941 -2.71026 1.77163e-15)
(31.8292 -2.59857 9.05253e-20)
(32.8235 -2.49322 -1.68255e-15)
(33.7788 -2.39325 -1.31809e-17)
(34.697 -2.29839 0)
(35.5798 -2.20827 0)
(36.4294 -2.12261 0)
(37.2471 -2.0411 1.25817e-17)
(38.0345 -1.96328 -7.96965e-16)
(38.793 -1.88912 8.13793e-16)
(39.5237 -1.81851 -2.44299e-17)
(40.2279 -1.75106 1.21071e-17)
(40.9065 -1.68649 7.92403e-16)
(41.5605 -1.62452 -7.62368e-16)
(42.1909 -1.56499 -7.3307e-16)
(42.7986 -1.50777 -1.1731e-17)
(43.3845 -1.45279 7.46505e-16)
(43.9496 -1.40003 7.41849e-16)
(44.4947 -1.34945 -1.48648e-15)
(45.0207 -1.30103 7.33356e-16)
(45.5286 -1.25472 7.52234e-16)
(46.019 -1.21047 -1.47419e-15)
(46.4928 -1.16822 7.22266e-16)
(46.9508 -1.12786 -7.41404e-16)
(47.3936 -1.08933 7.38171e-16)
(47.8219 -1.05256 -2.22749e-17)
(48.2365 -1.01748 0)
(48.6377 -0.984019 0)
(49.0263 -0.952318 0)
(49.403 -0.922418 0)
(49.7682 -0.894305 0)
(50.1228 -0.867954 0)
(50.4673 -0.843183 -2.17029e-17)
(50.8022 -0.819939 3.24449e-17)
(51.1283 -0.797965 6.68301e-16)
(51.4458 -0.776954 -6.87614e-16)
(51.755 -0.756696 -6.85362e-16)
(52.0563 -0.737008 6.83141e-16)
(52.3498 -0.717907 -6.80894e-16)
(52.6356 -0.699437 6.78664e-16)
(52.9142 -0.681644 0)
(53.1858 -0.66452 0)
(53.4507 -0.648083 0)
(53.7091 -0.632326 0)
(53.9614 -0.617217 -2.08564e-17)
(54.2077 -0.602844 0)
(54.4485 -0.589189 3.31515e-16)
(54.684 -0.576111 -3.30457e-16)
(54.9144 -0.563604 0)
(55.1398 -0.551738 0)
(55.3607 -0.540485 0)
(55.5771 -0.529798 0)
(55.7894 -0.519768 0)
(55.998 -0.510361 3.04421e-16)
(56.2032 -0.501056 -3.25428e-21)
(56.405 -0.491704 -6.65918e-16)
(56.6039 -0.482855 3.41968e-16)
(56.7999 -0.47471 0)
(56.9934 -0.467136 -1.99852e-17)
(57.1844 -0.459922 0)
(57.3729 -0.452892 3.17739e-16)
(57.559 -0.44607 -3.16773e-16)
(57.7426 -0.439364 -1.974e-17)
(57.9238 -0.432687 -1.37786e-16)
(58.1026 -0.426149 1.27595e-16)
(58.279 -0.419845 2.93679e-17)
(58.4532 -0.413756 -1.75774e-16)
(58.6251 -0.407823 1.65628e-16)
(58.795 -0.402003 2.91663e-17)
(58.9627 -0.396262 9.70312e-18)
(59.1283 -0.390575 0)
(59.2918 -0.384925 -9.6702e-18)
(59.4533 -0.37929 9.65617e-18)
(59.6126 -0.373664 1.63938e-16)
(59.7699 -0.368024 -1.73382e-16)
(59.925 -0.362388 -7.69763e-17)
(60.0781 -0.356748 5.76813e-17)
(60.2291 -0.351137 -6.72373e-17)
(60.378 -0.345507 9.5992e-17)
(60.5249 -0.339852 -9.59249e-18)
(60.6697 -0.334003 9.5887e-18)
(60.8124 -0.327912 -2.87486e-17)
(60.9525 -0.321239 1.91637e-17)
(61.09 -0.313812 1.91521e-17)
(61.2257 -0.304742 -9.57857e-18)
(61.3879 -0.293527 2.05569e-17)
(26.3655 -8.20409 -1.8554e-15)
(26.9203 -7.42034 -3.13736e-17)
(27.6977 -6.88103 1.89541e-15)
(28.6824 -6.41651 0)
(29.7329 -5.97719 -3.82283e-21)
(30.7951 -5.58279 1.84065e-15)
(31.858 -5.24197 -2.83716e-17)
(32.9112 -4.94704 -1.84707e-15)
(33.9426 -4.68713 1.7649e-15)
(34.9459 -4.45442 -1.79443e-15)
(35.918 -4.2438 -2.72155e-17)
(36.8575 -4.05131 1.69051e-15)
(37.7642 -3.87378 -3.41374e-15)
(38.6379 -3.70843 1.67088e-15)
(39.4792 -3.55349 -2.57697e-17)
(40.2874 -3.40765 -1.60366e-15)
(41.0642 -3.26965 1.58506e-15)
(41.8111 -3.13878 0)
(42.5303 -3.01477 -1.57567e-15)
(43.2223 -2.89702 1.5598e-15)
(43.8891 -2.78508 1.54467e-15)
(44.5311 -2.67842 -1.55431e-15)
(45.1492 -2.57648 0)
(45.745 -2.47923 -2.34989e-17)
(46.3185 -2.38636 2.33099e-17)
(46.8704 -2.2974 2.31343e-17)
(47.4015 -2.21217 -2.29724e-17)
(47.9125 -2.13047 0)
(48.4043 -2.05205 -2.26851e-17)
(48.8778 -1.97675 0)
(49.334 -1.90449 1.43592e-15)
(49.7737 -1.83526 -1.4287e-15)
(50.1978 -1.76895 0)
(50.607 -1.70557 -1.39318e-15)
(51.0021 -1.64504 1.38711e-15)
(51.3839 -1.58724 2.19252e-17)
(51.753 -1.53212 0)
(52.11 -1.47952 2.17538e-17)
(52.4556 -1.42931 -1.23633e-22)
(52.7903 -1.38148 2.15967e-17)
(53.1147 -1.33589 6.88712e-16)
(53.4291 -1.29234 -1.45976e-20)
(53.7342 -1.25111 -6.84219e-16)
(54.0302 -1.21211 -6.6073e-16)
(54.3175 -1.1753 6.79977e-16)
(54.5964 -1.14072 0)
(54.8672 -1.10803 2.11271e-17)
(55.1301 -1.07741 -2.10694e-17)
(55.3857 -1.04845 2.10135e-17)
(55.6343 -1.02073 6.4971e-16)
(55.8761 -0.994014 -1.13881e-20)
(56.1112 -0.967906 -6.87997e-16)
(56.3397 -0.942587 0)
(56.562 -0.918131 2.07339e-17)
(56.7783 -0.894616 -6.61591e-16)
(56.9889 -0.871986 6.59685e-16)
(57.1942 -0.850288 6.57732e-16)
(57.3944 -0.829498 -6.55804e-16)
(57.5897 -0.809516 4.08669e-17)
(57.7806 -0.790566 0)
(57.9672 -0.772596 0)
(58.1499 -0.755296 0)
(58.3286 -0.738724 -2.02031e-17)
(58.5036 -0.723062 -6.24642e-16)
(58.6752 -0.708212 6.43188e-16)
(58.8433 -0.694027 -2.00524e-17)
(59.0081 -0.680729 6.40273e-16)
(59.1698 -0.668484 -1.25804e-15)
(59.3285 -0.65679 9.36836e-16)
(59.4857 -0.645442 -3.16359e-21)
(59.6422 -0.634715 -3.36756e-16)
(59.7969 -0.624541 2.96113e-16)
(59.95 -0.614918 -2.75453e-16)
(60.101 -0.605631 3.13802e-16)
(60.2501 -0.596456 -6.25684e-16)
(60.3972 -0.587618 2.36975e-21)
(60.5424 -0.578947 1.94414e-17)
(60.6858 -0.570254 2.71391e-16)
(60.8275 -0.561777 -9.01877e-24)
(60.9674 -0.553644 -3.85645e-17)
(61.1058 -0.545761 -9.85689e-24)
(61.2424 -0.538026 0)
(61.3773 -0.530407 2.68179e-16)
(61.5104 -0.522879 -1.72093e-16)
(61.6419 -0.515419 -1.71818e-16)
(61.7716 -0.508021 1.90635e-17)
(61.8996 -0.500661 -3.80793e-17)
(62.0261 -0.493324 -1.90181e-17)
(62.1509 -0.485983 1.51998e-16)
(62.2741 -0.47867 -1.51864e-16)
(62.3957 -0.471376 1.51755e-16)
(62.5159 -0.464161 -2.46429e-16)
(62.6346 -0.456965 -3.78933e-17)
(62.7519 -0.449773 1.70422e-16)
(62.8678 -0.442348 -3.78622e-17)
(62.9824 -0.434627 -1.13527e-16)
(63.0952 -0.426158 3.7843e-17)
(63.2062 -0.416735 -4.4531e-23)
(63.3162 -0.405285 -1.89186e-17)
(63.4481 -0.391764 -4.0485e-17)
(43.0807 -8.69865 -6.93917e-15)
(43.0543 -8.01278 3.54931e-15)
(43.1648 -7.56562 1.80569e-15)
(43.5692 -7.16306 -1.745e-15)
(44.1016 -6.76211 -2.75669e-17)
(44.6713 -6.38398 1.77913e-15)
(45.2644 -6.04094 -3.47125e-15)
(45.8728 -5.73236 1.7177e-15)
(46.4874 -5.45291 0)
(47.0982 -5.19723 0)
(47.6997 -4.96222 0)
(48.2875 -4.74502 2.56675e-17)
(48.8608 -4.543 2.53734e-17)
(49.4164 -4.35338 2.50898e-17)
(49.9556 -4.17568 2.48122e-17)
(50.4775 -4.00862 -1.57202e-15)
(50.9832 -3.84968 2.42518e-17)
(51.4722 -3.69774 1.56647e-15)
(51.9453 -3.55342 2.3874e-17)
(52.4022 -3.41621 2.36623e-17)
(52.8438 -3.28537 2.34538e-17)
(53.2697 -3.16084 0)
(53.6803 -3.04102 1.49985e-15)
(54.0761 -2.92611 -1.44212e-15)
(54.4569 -2.81641 2.2722e-17)
(54.8233 -2.71119 -3.31934e-22)
(55.1759 -2.61028 -1.41284e-15)
(55.5153 -2.5135 1.42703e-15)
(55.8421 -2.42066 2.21774e-17)
(56.157 -2.33166 2.2067e-17)
(56.4607 -2.24636 -1.38359e-15)
(56.7537 -2.16471 2.18844e-17)
(57.0365 -2.08653 2.78624e-15)
(57.3099 -2.01185 -1.38728e-15)
(57.5742 -1.94063 -1.3601e-15)
(57.8302 -1.87267 2.69168e-20)
(58.0783 -1.80802 1.39258e-15)
(58.319 -1.74638 0)
(58.5525 -1.68755 -2.12702e-17)
(58.7796 -1.63172 2.11957e-17)
(59.0004 -1.57854 1.35184e-15)
(59.2151 -1.5276 -1.32618e-15)
(59.4246 -1.47962 0)
(59.6285 -1.43405 -1.12671e-22)
(59.8269 -1.39051 0)
(60.0188 -1.3494 2.0776e-17)
(60.2042 -1.31013 0)
(60.3837 -1.27353 -1.30224e-15)
(60.5567 -1.23888 1.32002e-15)
(60.7242 -1.20579 2.05791e-17)
(60.8863 -1.17395 6.77557e-16)
(61.0431 -1.14247 -6.34995e-16)
(61.1948 -1.11211 2.04332e-17)
(61.3418 -1.08281 -2.03808e-17)
(61.4842 -1.05472 2.03276e-17)
(61.6225 -1.02788 0)
(61.7577 -1.00232 2.02171e-17)
(61.8896 -0.977997 0)
(62.019 -0.954724 -2.01048e-17)
(62.1464 -0.932553 6.61489e-16)
(62.2706 -0.91147 -1.27963e-15)
(62.3926 -0.891281 6.58144e-16)
(62.5125 -0.872112 1.98931e-17)
(62.631 -0.853972 6.34912e-16)
(62.7472 -0.836744 -6.33529e-16)
(62.8619 -0.820465 -5.92661e-16)
(62.9753 -0.805421 6.3093e-16)
(63.0872 -0.792123 -6.10383e-16)
(63.1967 -0.778994 6.49419e-16)
(63.3053 -0.764933 1.96284e-17)
(63.4123 -0.751735 -6.05934e-16)
(63.5176 -0.739937 1.26563e-15)
(63.6219 -0.728832 -6.2083e-16)
(63.7241 -0.718083 0)
(63.8252 -0.707562 1.92857e-17)
(63.9255 -0.697398 0)
(64.0241 -0.687447 1.91757e-17)
(64.1221 -0.677668 1.91209e-17)
(64.2198 -0.668082 1.9062e-17)
(64.3167 -0.658637 1.90077e-17)
(64.4124 -0.649292 -2.84405e-16)
(64.5068 -0.640037 3.027e-16)
(64.6 -0.630919 -2.83235e-16)
(64.6918 -0.62192 1.8852e-17)
(64.7824 -0.613029 1.88244e-17)
(64.8719 -0.60426 1.4145e-21)
(64.9603 -0.595583 3.19222e-16)
(65.0478 -0.586968 -1.31312e-16)
(65.1343 -0.578373 1.68688e-16)
(65.2199 -0.569858 0)
(65.3047 -0.561416 1.87166e-17)
(65.3887 -0.553139 1.87043e-17)
(65.472 -0.544956 1.86961e-17)
(65.5549 -0.536823 0)
(65.637 -0.528449 1.86815e-17)
(65.7187 -0.519742 0)
(65.7995 -0.510193 1.86726e-17)
(65.8796 -0.499546 -3.73225e-17)
(65.9594 -0.486594 3.73391e-17)
(66.0558 -0.471417 3.97943e-17)
(58.7786 -8.72841 0)
(58.5052 -8.23871 2.51601e-17)
(58.2559 -7.90783 -3.25554e-15)
(58.3001 -7.56623 6.41502e-15)
(58.4912 -7.20948 2.64999e-17)
(58.7261 -6.8615 -3.27814e-15)
(58.9843 -6.53302 3.22005e-15)
(59.2646 -6.22571 -3.20825e-15)
(59.5615 -5.93873 3.19572e-15)
(59.865 -5.67131 5.62838e-19)
(60.1681 -5.42184 4.766e-19)
(60.4668 -5.18826 -6.29211e-15)
(60.7581 -4.96951 -3.4183e-19)
(61.0407 -4.76307 6.19363e-15)
(61.3135 -4.56697 -3.0885e-15)
(61.5761 -4.38191 -2.39746e-17)
(61.8285 -4.2072 -1.32624e-21)
(62.0708 -4.04172 -2.36632e-17)
(62.3035 -3.88453 -1.0439e-21)
(62.5268 -3.73493 -9.26962e-22)
(62.7399 -3.59204 -8.253e-22)
(62.9435 -3.45571 0)
(63.1377 -3.32516 -6.60833e-22)
(63.3227 -3.20007 -2.27618e-17)
(63.4994 -3.08033 -1.49356e-15)
(63.6688 -2.96562 1.41777e-15)
(63.831 -2.85598 -1.43283e-15)
(63.9873 -2.75109 1.42586e-15)
(64.1373 -2.65081 1.37501e-15)
(64.2826 -2.55492 -2.84832e-15)
(64.4225 -2.46315 1.40715e-15)
(64.5586 -2.37565 -2.18927e-17)
(64.6899 -2.29197 -2.18046e-17)
(64.8186 -2.21204 1.36784e-15)
(64.9429 -2.13561 -1.38413e-15)
(65.0643 -2.06265 0)
(65.1827 -1.9931 1.37286e-15)
(65.2981 -1.92663 -1.3674e-15)
(65.4104 -1.86321 2.12803e-17)
(65.5213 -1.80285 -2.11905e-17)
(65.6286 -1.74511 2.11075e-17)
(65.7335 -1.68962 -2.10194e-17)
(65.8375 -1.63677 2.09198e-17)
(65.9366 -1.58587 -2.08362e-17)
(66.0346 -1.53729 2.07441e-17)
(66.1289 -1.49139 -1.34379e-15)
(66.2189 -1.44719 1.34016e-15)
(66.3082 -1.40495 -2.05529e-17)
(66.3875 -1.36429 2.05324e-17)
(66.4663 -1.32603 1.31095e-15)
(66.5377 -1.28913 -1.32971e-15)
(66.6067 -1.25349 2.04139e-17)
(66.6731 -1.22001 -2.0367e-17)
(66.7376 -1.18785 2.03171e-17)
(66.8006 -1.15741 -2.02677e-17)
(66.8626 -1.12816 -1.27363e-15)
(66.9239 -1.10032 -2.0138e-17)
(66.9848 -1.07389 2.01176e-17)
(67.045 -1.04827 6.41143e-16)
(67.1054 -1.02471 8.60798e-21)
(67.1653 -1.00289 6.37216e-16)
(67.2249 -0.981606 -4.47989e-23)
(67.2848 -0.960865 0)
(67.344 -0.941484 -3.94773e-17)
(67.4031 -0.923285 0)
(67.4617 -0.905281 6.28378e-16)
(67.5205 -0.888297 -6.26414e-16)
(67.5788 -0.87343 -3.9051e-17)
(67.637 -0.859572 0)
(67.6927 -0.845472 -6.03147e-16)
(67.7456 -0.831638 -1.9393e-17)
(67.7969 -0.817905 5.99461e-16)
(67.8469 -0.805295 -1.92701e-17)
(67.8958 -0.793525 -5.95894e-16)
(67.9442 -0.78136 5.94141e-16)
(67.9919 -0.770223 6.30356e-16)
(68.0389 -0.759641 -6.28834e-16)
(68.0857 -0.748343 -5.88893e-16)
(68.1317 -0.737284 6.05653e-16)
(68.1776 -0.726988 0)
(68.2229 -0.71705 3.19754e-16)
(68.2683 -0.707213 -2.81447e-16)
(68.3134 -0.697444 -2.80864e-16)
(68.3582 -0.687745 6.168e-16)
(68.4029 -0.678144 -2.98598e-16)
(68.4474 -0.6687 1.86369e-17)
(68.4919 -0.659404 3.16451e-16)
(68.5365 -0.650217 -2.78916e-16)
(68.5811 -0.641063 -2.97227e-16)
(68.6258 -0.632054 2.78391e-16)
(68.6705 -0.62317 0)
(68.7156 -0.614522 0)
(68.7608 -0.606047 0)
(68.8063 -0.597644 -1.8503e-17)
(68.8521 -0.588993 1.84958e-17)
(68.8981 -0.580002 1.84824e-17)
(68.9443 -0.570168 0)
(68.9907 -0.559154 -1.84658e-17)
(69.0378 -0.545715 2.39069e-23)
(69.0959 -0.529913 3.91691e-17)
(71.1988 -8.50462 -2.28651e-17)
(70.6884 -8.23972 -2.31409e-17)
(70.1463 -8.02755 0)
(69.8873 -7.74407 6.66345e-21)
(69.8056 -7.43014 2.97413e-15)
(69.7988 -7.11761 4.79998e-17)
(69.8367 -6.81323 -3.00779e-15)
(69.9163 -6.51883 0)
(70.0302 -6.23653 -3.03442e-15)
(70.1688 -5.9676 3.00893e-15)
(70.3229 -5.7121 2.34869e-17)
(70.4866 -5.4695 -2.34608e-17)
(70.6542 -5.23942 2.97473e-15)
(70.8233 -5.02131 2.36893e-17)
(70.9895 -4.8146 -2.30852e-17)
(71.1512 -4.61843 2.35157e-17)
(71.3066 -4.43163 -2.30752e-17)
(71.4548 -4.25307 -5.93901e-15)
(71.594 -4.08263 2.96057e-15)
(71.7239 -3.92024 2.92921e-15)
(71.8441 -3.76521 7.39212e-20)
(71.9547 -3.61732 -2.93588e-15)
(72.0559 -3.47565 -2.28756e-17)
(72.1475 -3.34004 2.28082e-17)
(72.2302 -3.21045 2.27453e-17)
(72.304 -3.08675 -2.92564e-15)
(72.3699 -2.96876 4.31965e-15)
(72.4281 -2.85642 -8.71202e-21)
(72.4791 -2.74916 -1.39444e-15)
(72.5236 -2.64709 0)
(72.5616 -2.54967 1.38651e-15)
(72.5937 -2.45691 -2.85308e-15)
(72.6204 -2.36842 2.8665e-15)
(72.6419 -2.28434 -2.85544e-15)
(72.6581 -2.20476 1.38987e-15)
(72.67 -2.12874 2.19748e-17)
(72.6778 -2.05697 -2.18887e-17)
(72.6822 -1.98895 0)
(72.6835 -1.92368 -1.41129e-15)
(72.6825 -1.86223 1.38284e-15)
(72.6787 -1.80432 -2.08252e-22)
(72.6733 -1.74758 0)
(72.6663 -1.69466 -1.36313e-15)
(72.6565 -1.6435 1.37938e-15)
(72.6462 -1.59319 -2.11087e-17)
(72.635 -1.54667 1.36619e-15)
(72.6244 -1.49975 -2.09677e-17)
(72.6128 -1.45784 -1.33422e-15)
(72.6021 -1.41844 -1.12044e-22)
(72.5941 -1.37921 1.32923e-15)
(72.5779 -1.34256 -1.31008e-15)
(72.5661 -1.3052 1.30702e-15)
(72.5508 -1.26958 -1.32503e-15)
(72.5356 -1.23562 1.32121e-15)
(72.5211 -1.20413 -1.31683e-15)
(72.5082 -1.17474 -1.33252e-15)
(72.4964 -1.14686 1.3069e-15)
(72.4862 -1.12059 -2.03374e-17)
(72.4772 -1.09517 2.02563e-17)
(72.4688 -1.07059 -2.01619e-17)
(72.4623 -1.04779 0)
(72.4569 -1.02584 -3.51314e-23)
(72.4524 -1.00495 1.27435e-15)
(72.448 -0.984897 -1.90404e-15)
(72.4447 -0.965876 1.26449e-15)
(72.4415 -0.94768 -1.96975e-17)
(72.4383 -0.929857 -1.23567e-15)
(72.435 -0.913289 6.44981e-16)
(72.4324 -0.897777 6.23694e-16)
(72.4296 -0.882502 -6.41631e-16)
(72.4266 -0.867341 0)
(72.4234 -0.852807 -6.188e-16)
(72.4191 -0.839053 6.16888e-16)
(72.4151 -0.826097 -1.94582e-23)
(72.4105 -0.81369 0)
(72.4051 -0.801818 -1.91097e-17)
(72.4001 -0.790425 0)
(72.3946 -0.779605 -1.90013e-17)
(72.3884 -0.768827 1.8949e-17)
(72.3822 -0.758056 0)
(72.3762 -0.747533 -1.88454e-17)
(72.3708 -0.737198 1.19472e-23)
(72.3662 -0.727304 -3.18778e-16)
(72.3624 -0.717679 2.61988e-16)
(72.3595 -0.708247 -1.86797e-17)
(72.3576 -0.698988 -1.86489e-17)
(72.3569 -0.6899 -3.72415e-17)
(72.3574 -0.681009 -1.85938e-17)
(72.3588 -0.67226 -3.15682e-16)
(72.3618 -0.663668 1.41793e-21)
(72.3656 -0.655144 2.96301e-16)
(72.3709 -0.64676 -1.47927e-16)
(72.3769 -0.638476 1.29303e-16)
(72.3838 -0.630291 1.84514e-17)
(72.3918 -0.621908 -3.68756e-17)
(72.4005 -0.613245 -1.84196e-17)
(72.4109 -0.603863 -1.84102e-17)
(72.4221 -0.593494 5.5177e-17)
(72.4361 -0.580762 -5.51581e-17)
(72.4552 -0.565498 -3.87295e-17)
(80.0847 -8.02042 2.80453e-15)
(79.3799 -7.95883 -2.85553e-15)
(78.604 -7.87221 2.22723e-17)
(78.0714 -7.66936 2.24111e-17)
(77.7301 -7.4203 -2.90661e-15)
(77.4945 -7.16474 2.87314e-15)
(77.3286 -6.90906 2.90738e-15)
(77.222 -6.65393 -2.19522e-17)
(77.1667 -6.40182 2.35428e-17)
(77.1535 -6.15524 -2.22629e-17)
(77.1733 -5.91568 -2.23857e-17)
(77.2188 -5.68377 -2.95813e-15)
(77.2843 -5.45994 0)
(77.3656 -5.24408 -4.59315e-17)
(77.4591 -5.03605 -2.94068e-15)
(77.5618 -4.83623 -4.61903e-17)
(77.6707 -4.64451 -1.99334e-19)
(77.7834 -4.46028 2.93955e-15)
(77.8974 -4.2829 -4.58988e-17)
(78.0117 -4.11228 0)
(78.1249 -3.94831 -4.5819e-17)
(78.2362 -3.79092 0)
(78.3448 -3.63977 -2.9492e-15)
(78.4495 -3.49462 -2.28707e-17)
(78.55 -3.35543 2.89638e-15)
(78.6454 -3.22204 2.27762e-17)
(78.7355 -3.09432 -2.93385e-15)
(78.8194 -2.97216 5.81317e-15)
(78.8973 -2.85534 -4.53683e-17)
(78.9679 -2.74372 -2.89777e-15)
(79.032 -2.63704 2.91621e-15)
(79.088 -2.53525 -2.91094e-15)
(79.1368 -2.43806 0)
(79.1767 -2.34533 5.95481e-22)
(79.2092 -2.25718 0)
(79.2326 -2.17313 -4.47922e-17)
(79.2475 -2.09303 -1.40785e-15)
(79.2537 -2.01712 1.40464e-15)
(79.2516 -1.94461 0)
(79.2397 -1.87562 1.44103e-15)
(79.22 -1.81074 -2.85246e-15)
(79.1923 -1.7481 1.4327e-15)
(79.1546 -1.68884 -4.3903e-17)
(79.112 -1.63294 -2.19002e-17)
(79.061 -1.57909 -2.18161e-17)
(79.0043 -1.52844 -2.17387e-17)
(78.9439 -1.48 0)
(78.8769 -1.43298 0)
(78.8132 -1.3872 1.33439e-15)
(78.7433 -1.34819 -2.74318e-15)
(78.6776 -1.31079 1.33146e-15)
(78.6114 -1.27345 0)
(78.5414 -1.24032 1.36777e-15)
(78.4714 -1.2076 -1.38532e-15)
(78.3978 -1.17679 0)
(78.3225 -1.14787 -2.11578e-17)
(78.2464 -1.12066 0)
(78.1695 -1.09512 -1.3415e-15)
(78.093 -1.07114 2.64911e-15)
(78.0163 -1.04872 -1.34888e-15)
(77.9401 -1.0277 0)
(77.8649 -1.00757 1.27367e-15)
(77.7903 -0.988146 -1.30812e-15)
(77.7175 -0.969628 3.14917e-23)
(77.6456 -0.95208 0)
(77.5758 -0.935287 2.01575e-17)
(77.5073 -0.919161 -1.32451e-15)
(77.4405 -0.903809 1.27904e-15)
(77.3754 -0.888892 -1.9907e-17)
(77.3126 -0.874088 0)
(77.2516 -0.859528 -1.97665e-17)
(77.1924 -0.845347 6.50014e-16)
(77.1344 -0.831814 -6.47787e-16)
(77.0775 -0.818857 -6.456e-16)
(77.0214 -0.806261 1.24785e-15)
(76.9661 -0.794192 -1.24372e-15)
(76.9115 -0.782464 1.23962e-15)
(76.8576 -0.770893 -6.17759e-16)
(76.805 -0.759701 -1.1604e-23)
(76.7531 -0.749081 0)
(76.7022 -0.738947 -6.12257e-16)
(76.652 -0.72915 1.20195e-15)
(76.6029 -0.719698 -1.21779e-15)