/*--------------------------------*- C++ -*----------------------------------*\
  =========                 |
  \\      /  F ield         | OpenFOAM: The Open Source CFD Toolbox
   \\    /   O peration     | Website:  https://openfoam.org
    \\  /    A nd           | Version:  8
     \\/     M anipulation  |
\*---------------------------------------------------------------------------*/
FoamFile
{
    version     2.0;
    format      ascii;
    class       surfaceScalarField;
    location    "0.2";
    object      phi;
}
// * * * * * * * * * * * * * * * * * * * * * * * * * * * * * * * * * * * * * //

dimensions      [1 0 -1 0 0 0 0];

internalField   nonuniform List<scalar> 
2080
(
-2.873723e-08
-1.8936453e-05
-9.0150849e-08
-6.8581426e-09
-1.8986912e-05
-9.0229434e-08
-4.9093619e-09
-1.8967012e-05
-9.0254112e-08
-2.391615e-09
-1.8967558e-05
-9.0251534e-08
-1.6705704e-09
-1.8965781e-05
-9.0252731e-08
-1.1307486e-09
-1.8965586e-05
-9.0252893e-08
-7.2935741e-10
-1.8965458e-05
-9.0253043e-08
-4.8383819e-10
-1.8965293e-05
-9.0253224e-08
-2.1496881e-10
-1.8965322e-05
-9.0253262e-08
-2.7887955e-16
-1.8965264e-05
-9.0253326e-08
2.1496445e-10
-1.8965264e-05
-9.0253331e-08
4.8383367e-10
-1.8965322e-05
-9.0253261e-08
7.2935485e-10
-1.8965293e-05
-9.0253223e-08
1.1307468e-09
-1.8965458e-05
-9.025304e-08
1.6705704e-09
-1.8965586e-05
-9.0252884e-08
2.3916182e-09
-1.8965781e-05
-9.0252733e-08
4.9093667e-09
-1.8967558e-05
-9.0251538e-08
6.8581439e-09
-1.8967012e-05
-9.0254115e-08
2.8737229e-08
-1.8986912e-05
-9.0229439e-08
-1.8936453e-05
-9.015085e-08
2.3745224e-09
-1.8642957e-05
1.2323037e-08
-2.8489735e-09
-1.8685804e-05
1.2344171e-08
-2.0479786e-09
-1.8671955e-05
1.2340367e-08
-1.7492136e-09
-1.8671975e-05
1.2342176e-08
-1.1538496e-09
-1.8670516e-05
1.23415e-08
-9.2542356e-10
-1.8669937e-05
1.2341938e-08
-5.5507653e-10
-1.8669964e-05
1.2341752e-08
-4.0642445e-10
-1.8669566e-05
1.2341948e-08
-1.6742157e-10
-1.8669692e-05
1.2341879e-08
-3.0428223e-16
-1.8669559e-05
1.2341937e-08
1.6741856e-10
-1.8669559e-05
1.2341932e-08
4.0641846e-10
-1.8669692e-05
1.2341878e-08
5.550722e-10
-1.8669566e-05
1.2341949e-08
9.2542105e-10
-1.8669964e-05
1.234175e-08
1.1538499e-09
-1.8669937e-05
1.2341945e-08
1.7492177e-09
-1.8670516e-05
1.2341497e-08
2.0479807e-09
-1.8671975e-05
1.2342172e-08
2.8489755e-09
-1.8671955e-05
1.2340363e-08
-2.3745191e-09
-1.8685804e-05
1.2344169e-08
-1.8642957e-05
1.2323039e-08
-3.3269346e-09
-1.844475e-05
-1.6603779e-09
-7.0242059e-09
-1.8487185e-05
-1.6625618e-09
-5.390075e-09
-1.8478708e-05
-1.6647616e-09
-3.8418393e-09
-1.8478616e-05
-1.6625338e-09
-2.8524714e-09
-1.8476625e-05
-1.6623228e-09
-2.0100993e-09
-1.8475883e-05
-1.6614486e-09
-1.3776669e-09
-1.8475713e-05
-1.6616429e-09
-8.8147849e-10
-1.8475169e-05
-1.661149e-09
-4.1527979e-10
-1.847527e-05
-1.6613124e-09
-2.113888e-15
-1.8475083e-05
-1.661157e-09
4.1527575e-10
-1.8475083e-05
-1.6611535e-09
8.8147442e-10
-1.847527e-05
-1.6613181e-09
1.3776638e-09
-1.8475169e-05
-1.6611487e-09
2.0100957e-09
-1.8475713e-05
-1.6616418e-09
2.8524688e-09
-1.8475883e-05
-1.6614439e-09
3.8418403e-09
-1.8476625e-05
-1.6623268e-09
5.3900769e-09
-1.8478616e-05
-1.6625281e-09
7.0242101e-09
-1.8478708e-05
-1.6647557e-09
3.3269382e-09
-1.8487185e-05
-1.662562e-09
-1.844475e-05
-1.6603755e-09
5.9765763e-09
-1.7868984e-05
1.5316417e-08
1.7919538e-09
-1.7901239e-05
1.5335749e-08
1.9322331e-09
-1.7897111e-05
1.5337825e-08
3.7216185e-10
-1.789529e-05
1.5337732e-08
6.2653099e-10
-1.789514e-05
1.5336935e-08
7.0367787e-11
-1.7893563e-05
1.5336902e-08
1.9695209e-10
-1.7894096e-05
1.5336591e-08
1.0617333e-11
-1.7893221e-05
1.5336573e-08
4.2695949e-11
-1.789355e-05
1.5336542e-08
2.6732303e-15
-1.7893281e-05
1.5336508e-08
-4.2694464e-11
-1.7893281e-05
1.533651e-08
-1.0622911e-11
-1.789355e-05
1.5336527e-08
-1.9695784e-10
-1.7893221e-05
1.5336567e-08
-7.0372121e-11
-1.7894096e-05
1.5336592e-08
-6.2652759e-10
-1.7893563e-05
1.5336907e-08
-3.7215547e-10
-1.789514e-05
1.5336935e-08
-1.9322288e-09
-1.789529e-05
1.5337737e-08
-1.7919529e-09
-1.7897111e-05
1.5337817e-08
-5.9765777e-09
-1.7901239e-05
1.5335751e-08
-1.7868984e-05
1.5316416e-08
-6.983023e-09
-1.7943253e-05
-1.2781561e-08
-8.4702033e-09
-1.798099e-05
-1.2789446e-08
-7.40508e-09
-1.7979442e-05
-1.2795522e-08
-6.0643508e-09
-1.7977879e-05
-1.2792996e-08
-4.9672975e-09
-1.7977507e-05
-1.279351e-08
-3.6314918e-09
-1.797616e-05
-1.2792369e-08
-2.6978137e-09
-1.7976302e-05
-1.2792754e-08
-1.681823e-09
-1.7975505e-05
-1.2792166e-08
-8.4846265e-10
-1.7975654e-05
-1.2792367e-08
3.2176494e-15
-1.7975398e-05
-1.2792186e-08
8.4845924e-10
-1.7975398e-05
-1.2792193e-08
1.6818181e-09
-1.7975654e-05
-1.2792371e-08
2.697806e-09
-1.7975505e-05
-1.2792157e-08
3.6314841e-09
-1.7976302e-05
-1.2792753e-08
4.9672936e-09
-1.797616e-05
-1.2792371e-08
6.0643545e-09
-1.7977507e-05
-1.2793512e-08
7.4050816e-09
-1.7977879e-05
-1.2792986e-08
8.4702035e-09
-1.7979442e-05
-1.2795523e-08
6.9830279e-09
-1.798099e-05
-1.2789449e-08
-1.7943253e-05
-1.2781559e-08
1.3619471e-08
-1.6694138e-05
2.5319648e-08
7.9189034e-09
-1.6712518e-05
2.5338464e-08
8.8253898e-09
-1.671762e-05
2.5348338e-08
4.7107758e-09
-1.6710972e-05
2.5345417e-08
4.9154536e-09
-1.6714969e-05
2.53459e-08
2.6099261e-09
-1.671106e-05
2.534522e-08
2.4176652e-09
-1.6713358e-05
2.5345198e-08
1.1629438e-09
-1.6711462e-05
2.5345011e-08
7.2417533e-10
-1.6712451e-05
2.5344969e-08
1.3420902e-15
-1.6711897e-05
2.5344923e-08
-7.2417274e-10
-1.6711897e-05
2.5344925e-08
-1.1629456e-09
-1.6712451e-05
2.5344965e-08
-2.4176666e-09
-1.6711462e-05
2.534501e-08
-2.6099292e-09
-1.6713358e-05
2.5345204e-08
-4.9154548e-09
-1.671106e-05
2.5345219e-08
-4.7107661e-09
-1.6714969e-05
2.5345909e-08
-8.8253875e-09
-1.6710972e-05
2.5345427e-08
-7.9189065e-09
-1.671762e-05
2.5348332e-08
-1.3619472e-08
-1.6712518e-05
2.5338462e-08
-1.6694138e-05
2.5319646e-08
-1.4182411e-08
-1.7772793e-05
-2.4788935e-08
-1.2289404e-08
-1.7807246e-05
-2.4806422e-08
-1.2739672e-08
-1.780999e-05
-2.4820228e-08
-9.7560234e-09
-1.7806804e-05
-2.4815557e-08
-9.0893198e-09
-1.7808473e-05
-2.4817625e-08
-6.4311194e-09
-1.7806577e-05
-2.4816145e-08
-5.249075e-09
-1.7807384e-05
-2.4816727e-08
-3.1412611e-09
-1.7806434e-05
-2.4816219e-08
-1.7007674e-09
-1.7806748e-05
-2.4816362e-08
-5.381877e-15
-1.7806463e-05
-2.4816239e-08
1.7007543e-09
-1.7806463e-05
-2.4816236e-08
3.1412572e-09
-1.7806748e-05
-2.4816354e-08
5.2490779e-09
-1.7806434e-05
-2.4816209e-08
6.4311216e-09
-1.7807384e-05
-2.4816713e-08
9.0893254e-09
-1.7806577e-05
-2.4816129e-08
9.756032e-09
-1.7808473e-05
-2.4817632e-08
1.2739691e-08
-1.7806804e-05
-2.4815567e-08
1.2289417e-08
-1.780999e-05
-2.4820236e-08
1.4182409e-08
-1.7807246e-05
-2.4806442e-08
-1.7772793e-05
-2.4788944e-08
4.0626541e-08
-1.4575586e-05
6.264675e-08
1.6796327e-08
-1.4545481e-05
6.2719501e-08
2.1630385e-08
-1.4577074e-05
6.2728631e-08
1.1891653e-08
-1.4559107e-05
6.2729296e-08
1.2264128e-08
-1.457106e-05
6.272697e-08
7.4467194e-09
-1.4563809e-05
6.272942e-08
6.4209359e-09
-1.4568532e-05
6.2727205e-08
3.5577232e-09
-1.4565643e-05
6.2728893e-08
2.0067089e-09
-1.4567332e-05
6.2727699e-08
-5.6982217e-15
-1.4566558e-05
6.2728271e-08
-2.0067162e-09
-1.4566558e-05
6.2728277e-08
-3.5577181e-09
-1.4567332e-05
6.2727706e-08
-6.4209202e-09
-1.4565643e-05
6.2728891e-08
-7.4467056e-09
-1.4568532e-05
6.2727204e-08
-1.2264131e-08
-1.4563809e-05
6.272944e-08
-1.1891642e-08
-1.457106e-05
6.2726951e-08
-2.1630386e-08
-1.4559107e-05
6.2729319e-08
-1.6796361e-08
-1.4577074e-05
6.2728643e-08
-4.0626555e-08
-1.4545481e-05
6.2719485e-08
-1.4575586e-05
6.2646758e-08
-4.2216655e-08
-1.8389749e-05
-6.4161604e-08
-2.1279303e-08
-1.8422892e-05
-6.4229431e-08
-2.6677134e-08
-1.8427967e-05
-6.4243535e-08
-1.6820006e-08
-1.8425453e-05
-6.4243652e-08
-1.7193823e-08
-1.8427008e-05
-6.4241401e-08
-1.1378775e-08
-1.8426107e-05
-6.4244563e-08
-9.7601376e-09
-1.8426516e-05
-6.4241831e-08
-5.6870165e-09
-1.8426188e-05
-6.42441e-08
-3.1702574e-09
-1.8426261e-05
-6.4242572e-08
1.0097049e-14
-1.8426178e-05
-6.4243366e-08
3.1702786e-09
-1.8426178e-05
-6.4243369e-08
5.6870248e-09
-1.8426261e-05
-6.4242595e-08
9.760128e-09
-1.8426188e-05
-6.4244096e-08
1.1378754e-08
-1.8426516e-05
-6.4241817e-08
1.7193804e-08
-1.8426107e-05
-6.4244543e-08
1.6819999e-08
-1.8427008e-05
-6.4241381e-08
2.6677131e-08
-1.8425453e-05
-6.4243642e-08
2.1279313e-08
-1.8427967e-05
-6.4243537e-08
4.2216674e-08
-1.8422892e-05
-6.4229414e-08
-1.8389749e-05
-6.4161598e-08
3.2037498e-08
7.7051866e-08
3.2076908e-08
7.7703134e-08
2.5921939e-08
7.7352528e-08
2.3471124e-08
7.7434348e-08
1.8482921e-08
7.7401624e-08
1.5231794e-08
7.741689e-08
1.0942217e-08
7.7406914e-08
7.4657934e-09
7.7413662e-08
3.6112509e-09
7.7409388e-08
-6.1354256e-15
7.7411462e-08
-3.611263e-09
7.7411461e-08
-7.465796e-09
7.7409378e-08
-1.0942207e-08
7.7413645e-08
-1.5231764e-08
7.7406927e-08
-1.8482891e-08
7.7416884e-08
-2.347111e-08
7.7401637e-08
-2.5921941e-08
7.7434338e-08
-3.2076908e-08
7.7352487e-08
-3.2037506e-08
7.7703157e-08
7.7051885e-08
-2.8877794e-08
-1.9116486e-05
2.067622e-15
-6.8831427e-09
-1.9167358e-05
3.6460189e-15
-4.9288473e-09
-1.9147397e-05
1.7103354e-15
-2.4018243e-09
-1.9147942e-05
-2.0205707e-15
-1.6776833e-09
-1.9146161e-05
-6.3174899e-15
-1.1356628e-09
-1.9145965e-05
-2.4624996e-15
-7.3260227e-10
-1.9145837e-05
2.3831561e-15
-4.8592496e-10
-1.9145672e-05
3.1068836e-15
-2.1593777e-10
-1.91457e-05
6.04511e-15
-1.0943061e-15
-1.9145643e-05
4.6823478e-15
2.1593375e-10
-1.9145643e-05
-8.2586621e-16
4.8591965e-10
-1.91457e-05
5.422265e-15
7.3260165e-10
-1.9145672e-05
2.0880057e-15
1.1356609e-09
-1.9145837e-05
1.6041577e-15
1.6776825e-09
-1.9145965e-05
-3.7966871e-15
2.4018279e-09
-1.9146161e-05
-4.1450619e-15
4.928852e-09
-1.9147942e-05
-6.149976e-16
6.8831431e-09
-1.9147397e-05
-1.3924841e-15
2.8877793e-08
-1.9167358e-05
2.4029836e-15
-1.9116486e-05
3.6045469e-15
2.3773733e-09
-1.8798348e-05
8.1351467e-15
-2.8638414e-09
-1.8841546e-05
5.8598554e-15
-2.0595413e-09
-1.8827665e-05
8.1530125e-15
-1.758169e-09
-1.8827679e-05
7.6572029e-15
-1.1600019e-09
-1.8826218e-05
3.8010975e-15
-9.3002731e-10
-1.8825636e-05
1.6367378e-15
-5.5803705e-10
-1.8825664e-05
8.0946639e-15
-4.0839954e-10
-1.8825264e-05
6.2292128e-15
-1.6831514e-10
-1.882539e-05
1.2410372e-14
-9.4038713e-16
-1.8825257e-05
9.585928e-15
1.6831072e-10
-1.8825257e-05
5.1602342e-15
4.0839342e-10
-1.882539e-05
1.0817241e-14
5.5803457e-10
-1.8825264e-05
1.137085e-14
9.3002594e-10
-1.8825664e-05
7.1896378e-15
1.160002e-09
-1.8825636e-05
3.4284042e-15
1.7581709e-09
-1.8826218e-05
1.5685974e-15
2.0595428e-09
-1.8827679e-05
-1.2618423e-15
2.8638456e-09
-1.8827665e-05
3.8212694e-15
-2.3773691e-09
-1.8841546e-05
7.1246841e-15
-1.8798348e-05
5.9361641e-15
-3.3584885e-09
-1.8603421e-05
6.6707944e-15
-7.0520577e-09
-1.8646246e-05
5.4604007e-15
-5.4129376e-09
-1.8637743e-05
8.3401458e-15
-3.857877e-09
-1.8637642e-05
5.1369108e-15
-2.8644079e-09
-1.8635646e-05
-4.7440337e-16
-2.018564e-09
-1.8634899e-05
5.3655733e-15
-1.3835206e-09
-1.8634729e-05
6.091997e-15
-8.8518372e-10
-1.8634182e-05
1.1036545e-14
-4.1706023e-10
-1.8634283e-05
1.7009753e-14
-2.5073615e-15
-1.8634095e-05
4.5217283e-15
4.170547e-10
-1.8634095e-05
1.2448747e-15
8.8517945e-10
-1.8634283e-05
8.6744322e-15
1.3835176e-09
-1.8634182e-05
1.284153e-14
2.0185613e-09
-1.8634729e-05
6.6587921e-15
2.8644065e-09
-1.8634899e-05
9.1440682e-15
3.8578785e-09
-1.8635646e-05
2.4111094e-15
5.4129407e-09
-1.8637642e-05
3.6284237e-15
7.0520603e-09
-1.8637743e-05
5.3948939e-15
3.358491e-09
-1.8646246e-05
1.0812402e-14
-1.8603421e-05
7.5818007e-15
6.0039419e-09
-1.7997032e-05
8.8483601e-16
1.7943399e-09
-1.8029587e-05
-1.1103042e-15
1.9346296e-09
-1.8025453e-05
-3.504043e-16
3.7095231e-10
-1.802362e-05
-5.2494039e-15
6.2595001e-10
-1.802347e-05
-1.1110627e-14
6.9391844e-11
-1.8021887e-05
-5.5513348e-15
1.9625081e-10
-1.8022421e-05
4.6421894e-15
9.8939561e-12
-1.8021544e-05
1.0155078e-14
4.2418698e-11
-1.8021874e-05
9.6212117e-15
1.7049522e-15
-1.8021604e-05
3.9556289e-15
-4.241907e-11
-1.8021604e-05
2.1120447e-15
-9.8948487e-12
-1.8021874e-05
5.3675374e-15
-1.9625509e-10
-1.8021544e-05
8.8561653e-15
-6.9394794e-11
-1.8022421e-05
1.2022199e-14
-6.2594641e-10
-1.8021887e-05
2.151487e-15
-3.7094705e-10
-1.802347e-05
-4.3078935e-15
-1.9346252e-09
-1.8023619e-05
-1.8629016e-15
-1.7943393e-09
-1.8025453e-05
-1.8796131e-15
-6.0039472e-09
-1.8029587e-05
2.5211068e-15
-1.7997032e-05
-5.2306887e-16
-7.0249926e-09
-1.8096839e-05
1.34066e-14
-8.5003977e-09
-1.8134945e-05
-1.7858504e-15
-7.4351463e-09
-1.8133392e-05
-5.1902063e-15
-6.0879354e-09
-1.8131818e-05
6.3346054e-15
-4.9868892e-09
-1.8131445e-05
5.4934829e-15
-3.6459554e-09
-1.8130091e-05
-4.9093389e-15
-2.7084642e-09
-1.8130233e-05
-3.8617216e-15
-1.6885763e-09
-1.8129432e-05
-2.1943881e-15
-8.518204e-10
-1.8129582e-05
-3.7363809e-15
9.4871802e-16
-1.8129325e-05
2.0478909e-15
8.518181e-10
-1.8129325e-05
-2.4945038e-15
1.6885724e-09
-1.8129582e-05
1.6578662e-15
2.7084561e-09
-1.8129432e-05
-1.5629051e-15
3.6459459e-09
-1.8130233e-05
-3.4145965e-16
4.9868832e-09
-1.8130091e-05
-8.7964844e-16
6.0879364e-09
-1.8131445e-05
-1.3045866e-15
7.4351542e-09
-1.8131818e-05
8.4767352e-15
8.5003989e-09
-1.8133392e-05
1.7551918e-14
7.0249855e-09
-1.8134945e-05
2.5809831e-15
-1.8096839e-05
-4.1069236e-15
1.3681418e-08
-1.6797132e-05
1.1053872e-15
7.9454157e-09
-1.6815745e-05
-1.3573888e-14
8.8538564e-09
-1.6820859e-05
4.4148117e-15
4.7273483e-09
-1.6814193e-05
4.9146892e-15
4.9304536e-09
-1.6818198e-05
-1.3333105e-14
2.6192081e-09
-1.6814279e-05
-8.985763e-15
2.4249661e-09
-1.6816581e-05
-5.0403289e-15
1.1671088e-09
-1.6814681e-05
9.9995578e-15
7.2635653e-10
-1.6815672e-05
-6.8507363e-16
-1.563769e-15
-1.6815116e-05
-4.6764066e-15
-7.2635434e-10
-1.6815116e-05
-4.9336046e-15
-1.1671096e-09
-1.6815672e-05
8.5526949e-16
-2.4249695e-09
-1.6814681e-05
5.7206123e-15
-2.6192091e-09
-1.6816581e-05
6.7407989e-16
-4.9304511e-09
-1.6814279e-05
-3.000111e-15
-4.7273447e-09
-1.6818198e-05
5.0943726e-15
-8.8538556e-09
-1.6814193e-05
2.3973473e-15
-7.9454157e-09
-1.6820859e-05
-1.0128648e-14
-1.3681419e-08
-1.6815745e-05
-1.6859384e-14
-1.6797132e-05
-2.4865214e-15
-1.4252241e-08
-1.7925304e-05
-2.3259588e-15
-1.2333644e-08
-1.7960121e-05
6.2739674e-15
-1.278749e-08
-1.7962876e-05
6.2633771e-15
-9.7938388e-09
-1.7959676e-05
6.7039187e-15
-9.1231631e-09
-1.7961351e-05
-8.3422755e-15
-6.4566678e-09
-1.7959447e-05
3.1392734e-15
-5.26876e-09
-1.7960256e-05
8.9202662e-16
-3.1538744e-09
-1.7959302e-05
-1.2684028e-15
-1.7071787e-09
-1.7959617e-05
-2.1917391e-15
-5.3005495e-15
-1.7959331e-05
-8.6288839e-17
1.7071662e-09
-1.7959331e-05
-7.517244e-15
3.1538729e-09
-1.7959617e-05
-1.8560236e-15
5.2687591e-09
-1.7959302e-05
5.9431792e-15
6.4566678e-09
-1.7960256e-05
-9.9193772e-16
9.1231683e-09
-1.7959447e-05
5.4268048e-15
9.7938392e-09
-1.7961351e-05
3.3202124e-15
1.2787505e-08
-1.7959676e-05
-1.3317093e-14
1.2333666e-08
-1.7962876e-05
-4.9657567e-15
1.425225e-08
-1.7960121e-05
-1.0791662e-14
-1.7925304e-05
4.1351536e-15
4.0789962e-08
-1.4602956e-05
-1.2066096e-14
1.6862595e-08
-1.4572809e-05
1.5952626e-14
2.1706382e-08
-1.4604501e-05
1.8269213e-14
1.1941044e-08
-1.4586482e-05
-1.5839377e-14
1.2307577e-08
-1.4598467e-05
7.8460339e-15
7.4776753e-09
-1.4591196e-05
-7.3097352e-15
6.4439359e-09
-1.4595931e-05
2.3638675e-15
3.5724969e-09
-1.4593034e-05
-7.3479503e-15
2.0139458e-09
-1.4594727e-05
-1.704947e-14
-6.1000508e-16
-1.4593951e-05
-1.3108252e-14
-2.0139486e-09
-1.4593951e-05
4.4761996e-15
-3.5725008e-09
-1.4594727e-05
-5.7023537e-15
-6.4439313e-09
-1.4593034e-05
1.0307347e-14
-7.4776698e-09
-1.4595931e-05
-8.4679916e-15
-1.2307572e-08
-1.4591196e-05
-1.6576519e-14
-1.1941064e-08
-1.4598467e-05
-2.2091913e-14
-2.1706388e-08
-1.4586482e-05
-1.5760757e-14
-1.6862584e-08
-1.4604501e-05
-2.5006673e-15
-4.0789958e-08
-1.4572809e-05
1.1873239e-14
-1.4602956e-05
2.478649e-14
-4.2391845e-08
-1.8545288e-05
2.1637796e-15
-2.1363924e-08
-1.857879e-05
-2.8821261e-15
-2.6774586e-08
-1.858389e-05
-1.434264e-14
-1.6890348e-08
-1.8581364e-05
-1.9143895e-14
-1.7257527e-08
-1.8582925e-05
-2.0056797e-14
-1.1426555e-08
-1.8582019e-05
-2.2560409e-14
-9.7967994e-09
-1.858243e-05
-3.6009516e-15
-5.7109183e-09
-1.8582101e-05
-1.1546063e-14
-3.182241e-09
-1.8582174e-05
5.9195857e-15
4.0812272e-15
-1.858209e-05
1.5830891e-15
3.182263e-09
-1.858209e-05
-3.0325134e-15
5.7109315e-09
-1.8582174e-05
-5.6205437e-15
9.7967912e-09
-1.8582101e-05
4.9121956e-15
1.1426538e-08
-1.858243e-05
1.6811364e-14
1.7257511e-08
-1.8582019e-05
3.4541643e-15
1.689034e-08
-1.8582925e-05
1.2255622e-14
2.6774577e-08
-1.8581364e-05
-3.1185688e-15
2.1363938e-08
-1.858389e-05
-1.9787862e-16
4.2391862e-08
-1.857879e-05
1.1683473e-14
-1.8545288e-05
3.3205063e-15
3.1675601e-08
-3.1987628e-14
3.2299199e-08
1.1097155e-14
2.6001709e-08
1.0135216e-14
2.3584183e-08
-3.1028905e-14
1.8556942e-08
7.8546303e-15
1.5301847e-08
1.2752963e-14
1.0986545e-08
-4.9465336e-15
7.4996898e-09
1.3843679e-14
3.6258598e-09
7.564115e-15
-3.4945789e-15
-2.1828922e-15
-3.6258725e-09
-1.8466024e-14
-7.4996927e-09
-1.1070633e-14
-1.0986535e-08
-2.2435925e-16
-1.5301818e-08
1.0984441e-14
-1.8556922e-08
1.8714651e-14
-2.3584178e-08
1.4054989e-14
-2.6001714e-08
-5.7835848e-14
-3.2299205e-08
-4.9487015e-15
-3.1675603e-08
-1.8496295e-14
6.2451615e-15
-2.8877795e-08
-1.9116486e-05
9.0150859e-08
-6.8831418e-09
-1.9167358e-05
9.0229439e-08
-4.9288468e-09
-1.9147397e-05
9.0254121e-08
-2.4018258e-09
-1.9147942e-05
9.0251537e-08
-1.6776826e-09
-1.9146161e-05
9.0252729e-08
-1.1356631e-09
-1.9145965e-05
9.0252891e-08
-7.3260219e-10
-1.9145837e-05
9.0253047e-08
-4.8592509e-10
-1.9145672e-05
9.0253233e-08
-2.159374e-10
-1.91457e-05
9.0253271e-08
-1.3206826e-15
-1.9145643e-05
9.0253334e-08
2.1593533e-10
-1.9145643e-05
9.0253327e-08
4.859218e-10
-1.91457e-05
9.0253271e-08
7.3260035e-10
-1.9145672e-05
9.025323e-08
1.1356592e-09
-1.9145837e-05
9.0253047e-08
1.6776811e-09
-1.9145965e-05
9.0252892e-08
2.4018278e-09
-1.9146161e-05
9.0252729e-08
4.9288515e-09
-1.9147942e-05
9.0251531e-08
6.883144e-09
-1.9147397e-05
9.0254116e-08
2.8877796e-08
-1.9167358e-05
9.0229446e-08
-1.9116486e-05
9.0150856e-08
2.3773752e-09
-1.8798348e-05
-1.2323028e-08
-2.8638418e-09
-1.8841546e-05
-1.2344162e-08
-2.0595417e-09
-1.8827665e-05
-1.2340356e-08
-1.7581681e-09
-1.8827679e-05
-1.2342166e-08
-1.1600019e-09
-1.8826218e-05
-1.2341497e-08
-9.3002617e-10
-1.8825636e-05
-1.2341936e-08
-5.5803731e-10
-1.8825664e-05
-1.2341741e-08
-4.083985e-10
-1.8825264e-05
-1.2341936e-08
-1.6831549e-10
-1.882539e-05
-1.234186e-08
-7.2168383e-16
-1.8825257e-05
-1.2341922e-08
1.6831229e-10
-1.8825257e-05
-1.2341927e-08
4.0839449e-10
-1.882539e-05
-1.2341859e-08
5.5803354e-10
-1.8825264e-05
-1.2341933e-08
9.3002268e-10
-1.8825664e-05
-1.2341738e-08
1.1600016e-09
-1.8825636e-05
-1.2341937e-08
1.7581709e-09
-1.8826218e-05
-1.2341495e-08
2.0595425e-09
-1.8827679e-05
-1.234217e-08
2.8638454e-09
-1.8827665e-05
-1.2340357e-08
-2.3773706e-09
-1.8841546e-05
-1.2344158e-08
-1.8798348e-05
-1.2323033e-08
-3.3584839e-09
-1.8603421e-05
1.6603787e-09
-7.0520562e-09
-1.8646246e-05
1.6625702e-09
-5.4129389e-09
-1.8637743e-05
1.6647672e-09
-3.8578755e-09
-1.8637642e-05
1.6625332e-09
-2.8644095e-09
-1.8635646e-05
1.6623194e-09
-2.0185635e-09
-1.8634899e-05
1.6614517e-09
-1.3835204e-09
-1.8634729e-05
1.6616506e-09
-8.8518111e-10
-1.8634182e-05
1.6611596e-09
-4.1706061e-10
-1.8634283e-05
1.6613268e-09
-3.1344678e-15
-1.8634095e-05
1.6611636e-09
4.1705617e-10
-1.8634095e-05
1.6611583e-09
8.8517872e-10
-1.8634283e-05
1.6613221e-09
1.3835177e-09
-1.8634182e-05
1.6611565e-09
2.0185591e-09
-1.8634729e-05
1.6616491e-09
2.8644066e-09
-1.8634899e-05
1.6614505e-09
3.8578776e-09
-1.8635646e-05
1.662322e-09
5.4129409e-09
-1.8637642e-05
1.6625324e-09
7.0520602e-09
-1.8637743e-05
1.6647641e-09
3.3584894e-09
-1.8646246e-05
1.6625711e-09
-1.8603421e-05
1.6603825e-09
6.0039475e-09
-1.7997032e-05
-1.5316412e-08
1.7943415e-09
-1.8029587e-05
-1.5335743e-08
1.9346308e-09
-1.8025453e-05
-1.5337827e-08
3.7095393e-10
-1.802362e-05
-1.5337744e-08
6.2594772e-10
-1.802347e-05
-1.533694e-08
6.9392913e-11
-1.8021887e-05
-1.5336912e-08
1.9625241e-10
-1.8022421e-05
-1.5336584e-08
9.8945062e-12
-1.8021544e-05
-1.5336564e-08
4.2420297e-11
-1.8021874e-05
-1.533653e-08
5.9599998e-16
-1.8021604e-05
-1.5336514e-08
-4.2420247e-11
-1.8021604e-05
-1.5336512e-08
-9.8948815e-12
-1.8021874e-05
-1.5336528e-08
-1.9625557e-10
-1.8021544e-05
-1.5336568e-08
-6.9396533e-11
-1.8022421e-05
-1.533658e-08
-6.2594784e-10
-1.8021887e-05
-1.5336907e-08
-3.7094987e-10
-1.802347e-05
-1.5336936e-08
-1.9346258e-09
-1.8023619e-05
-1.5337738e-08
-1.7943392e-09
-1.8025453e-05
-1.5337826e-08
-6.0039481e-09
-1.8029587e-05
-1.5335745e-08
-1.7997032e-05
-1.5316416e-08
-7.0249801e-09
-1.8096839e-05
1.2781553e-08
-8.5004015e-09
-1.8134945e-05
1.2789447e-08
-7.4351565e-09
-1.8133392e-05
1.2795519e-08
-6.0879313e-09
-1.8131818e-05
1.2792982e-08
-4.9868799e-09
-1.8131445e-05
1.2793507e-08
-3.6459516e-09
-1.8130091e-05
1.2792364e-08
-2.708464e-09
-1.8130233e-05
1.2792749e-08
-1.688574e-09
-1.8129432e-05
1.2792166e-08
-8.518184e-10
-1.8129582e-05
1.279237e-08
3.0925225e-15
-1.8129325e-05
1.2792193e-08
8.5181862e-10
-1.8129325e-05
1.2792193e-08
1.6885703e-09
-1.8129582e-05
1.2792376e-08
2.708455e-09
-1.8129432e-05
1.2792164e-08
3.6459451e-09
-1.8130233e-05
1.2792754e-08
4.9868805e-09
-1.8130091e-05
1.2792375e-08
6.0879294e-09
-1.8131445e-05
1.2793513e-08
7.4351527e-09
-1.8131818e-05
1.2792989e-08
8.5004063e-09
-1.8133392e-05
1.2795524e-08
7.0249897e-09
-1.8134945e-05
1.2789447e-08
-1.8096839e-05
1.2781556e-08
1.3681413e-08
-1.6797132e-05
-2.5319647e-08
7.9454096e-09
-1.6815745e-05
-2.5338465e-08
8.8538602e-09
-1.6820859e-05
-2.5348332e-08
4.7273496e-09
-1.6814193e-05
-2.5345423e-08
4.9304516e-09
-1.6818198e-05
-2.5345912e-08
2.6192134e-09
-1.6814279e-05
-2.5345247e-08
2.42497e-09
-1.6816581e-05
-2.5345213e-08
1.1671124e-09
-1.6814681e-05
-2.5345004e-08
7.2635296e-10
-1.6815672e-05
-2.5344975e-08
1.3907167e-15
-1.6815116e-05
-2.5344931e-08
-7.2635376e-10
-1.6815116e-05
-2.5344924e-08
-1.1671115e-09
-1.6815672e-05
-2.5344965e-08
-2.4249693e-09
-1.6814681e-05
-2.5345006e-08
-2.6192113e-09
-1.6816581e-05
-2.5345204e-08
-4.9304478e-09
-1.6814279e-05
-2.534523e-08
-4.7273451e-09
-1.6818198e-05
-2.5345895e-08
-8.8538605e-09
-1.6814193e-05
-2.5345418e-08
-7.945417e-09
-1.6820859e-05
-2.5348341e-08
-1.3681418e-08
-1.6815745e-05
-2.5338476e-08
-1.6797132e-05
-2.5319641e-08
-1.4252248e-08
-1.7925304e-05
2.4788946e-08
-1.2333649e-08
-1.7960121e-05
2.480643e-08
-1.2787501e-08
-1.7962876e-05
2.4820238e-08
-9.7938457e-09
-1.7959676e-05
2.4815561e-08
-9.1231655e-09
-1.7961351e-05
2.4817625e-08
-6.4566706e-09
-1.7959447e-05
2.481615e-08
-5.2687537e-09
-1.7960256e-05
2.4816726e-08
-3.153868e-09
-1.7959302e-05
2.4816212e-08
-1.7071755e-09
-1.7959617e-05
2.4816367e-08
-2.9281332e-15
-1.7959331e-05
2.4816242e-08
1.7071646e-09
-1.7959331e-05
2.4816231e-08
3.1538704e-09
-1.7959617e-05
2.4816351e-08
5.2687576e-09
-1.7959302e-05
2.4816206e-08
6.4566702e-09
-1.7960256e-05
2.4816716e-08
9.1231677e-09
-1.7959447e-05
2.4816135e-08
9.7938392e-09
-1.7961351e-05
2.4817635e-08
1.2787506e-08
-1.7959676e-05
2.4815559e-08
1.2333662e-08
-1.7962876e-05
2.4820235e-08
1.4252253e-08
-1.7960121e-05
2.4806427e-08
-1.7925304e-05
2.4788952e-08
4.0789945e-08
-1.4602956e-05
-6.2646748e-08
1.6862594e-08
-1.4572809e-05
-6.2719489e-08
2.1706393e-08
-1.4604501e-05
-6.2728611e-08
1.1941044e-08
-1.4586482e-05
-6.2729317e-08
1.2307579e-08
-1.4598467e-05
-6.2726978e-08
7.4776764e-09
-1.4591196e-05
-6.2729435e-08
6.4439556e-09
-1.4595931e-05
-6.2727221e-08
3.5725097e-09
-1.4593034e-05
-6.2728901e-08
2.0139276e-09
-1.4594727e-05
-6.2727702e-08
-1.4925337e-14
-1.4593951e-05
-6.2728287e-08
-2.0139394e-09
-1.4593951e-05
-6.2728289e-08
-3.5724896e-09
-1.4594727e-05
-6.2727703e-08
-6.4439226e-09
-1.4593034e-05
-6.2728886e-08
-7.4776595e-09
-1.4595931e-05
-6.2727214e-08
-1.2307575e-08
-1.4591196e-05
-6.2729441e-08
-1.1941066e-08
-1.4598467e-05
-6.2726979e-08
-2.1706409e-08
-1.4586482e-05
-6.2729312e-08
-1.6862609e-08
-1.4604501e-05
-6.2728637e-08
-4.0789963e-08
-1.4572809e-05
-6.2719486e-08
-1.4602956e-05
-6.264674e-08
-4.2391849e-08
-1.8545288e-05
6.4161615e-08
-2.136393e-08
-1.857879e-05
6.4229419e-08
-2.6774583e-08
-1.858389e-05
6.4243534e-08
-1.6890349e-08
-1.8581364e-05
6.4243619e-08
-1.7257525e-08
-1.8582925e-05
6.4241373e-08
-1.1426552e-08
-1.8582019e-05
6.424453e-08
-9.7967941e-09
-1.858243e-05
6.4241837e-08
-5.7109204e-09
-1.8582101e-05
6.4244099e-08
-3.182243e-09
-1.8582174e-05
6.4242577e-08
7.8510513e-15
-1.858209e-05
6.424336e-08
3.1822632e-09
-1.858209e-05
6.4243354e-08
5.7109338e-09
-1.8582174e-05
6.4242578e-08
9.7967924e-09
-1.8582101e-05
6.4244101e-08
1.1426533e-08
-1.858243e-05
6.4241841e-08
1.725751e-08
-1.8582019e-05
6.4244555e-08
1.689034e-08
-1.8582925e-05
6.4241381e-08
2.6774575e-08
-1.8581364e-05
6.4243635e-08
2.1363942e-08
-1.858389e-05
6.4243537e-08
4.2391867e-08
-1.857879e-05
6.4229421e-08
-1.8545288e-05
6.4161607e-08
3.1675569e-08
-7.7051869e-08
3.2299212e-08
-7.7703142e-08
2.6001751e-08
-7.7352506e-08
2.3584188e-08
-7.7434351e-08
1.8556949e-08
-7.7401605e-08
1.5301846e-08
-7.7416869e-08
1.0986544e-08
-7.7406918e-08
7.4996941e-09
-7.7413628e-08
3.6258562e-09
-7.7409381e-08
-1.0441208e-14
-7.7411469e-08
-3.6258743e-09
-7.741147e-08
-7.4996911e-09
-7.7409378e-08
-1.0986531e-08
-7.7413643e-08
-1.5301812e-08
-7.7406889e-08
-1.8556913e-08
-7.7416868e-08
-2.3584175e-08
-7.7401606e-08
-2.600173e-08
-7.743438e-08
-3.2299216e-08
-7.7352509e-08
-3.1675596e-08
-7.7703157e-08
-7.705187e-08
-2.8737231e-08
-1.8936453e-05
-6.8581429e-09
-1.8986912e-05
-4.9093633e-09
-1.8967012e-05
-2.3916164e-09
-1.8967558e-05
-1.670569e-09
-1.8965781e-05
-1.1307479e-09
-1.8965586e-05
-7.2935546e-10
-1.8965458e-05
-4.8383825e-10
-1.8965293e-05
-2.1496907e-10
-1.8965322e-05
-2.5053139e-15
-1.8965264e-05
2.1496661e-10
-1.8965264e-05
4.8383463e-10
-1.8965322e-05
7.2934642e-10
-1.8965293e-05
1.1307449e-09
-1.8965458e-05
1.6705757e-09
-1.8965586e-05
2.3916179e-09
-1.8965781e-05
4.9093688e-09
-1.8967558e-05
6.858145e-09
-1.8967012e-05
2.873723e-08
-1.8986912e-05
-1.8936453e-05
2.3745223e-09
-1.8642957e-05
-2.8489736e-09
-1.8685804e-05
-2.0479795e-09
-1.8671955e-05
-1.7492155e-09
-1.8671975e-05
-1.1538486e-09
-1.8670516e-05
-9.254214e-10
-1.8669937e-05
-5.5507463e-10
-1.8669964e-05
-4.0642259e-10
-1.8669566e-05
-1.674233e-10
-1.8669692e-05
-1.4894027e-15
-1.8669559e-05
1.6741949e-10
-1.8669559e-05
4.0641958e-10
-1.8669692e-05
5.5507111e-10
-1.8669566e-05
9.2541793e-10
-1.8669964e-05
1.1538484e-09
-1.8669937e-05
1.7492173e-09
-1.8670516e-05
2.047982e-09
-1.8671975e-05
2.8489768e-09
-1.8671955e-05
-2.3745195e-09
-1.8685804e-05
-1.8642957e-05
-3.3269333e-09
-1.844475e-05
-7.0242059e-09
-1.8487185e-05
-5.3900772e-09
-1.8478708e-05
-3.8418403e-09
-1.8478616e-05
-2.8524698e-09
-1.8476625e-05
-2.0100967e-09
-1.8475883e-05
-1.3776655e-09
-1.8475713e-05
-8.8147603e-10
-1.8475169e-05
-4.1528346e-10
-1.847527e-05
-4.2531752e-15
-1.8475083e-05
4.1527663e-10
-1.8475083e-05
8.8147598e-10
-1.847527e-05
1.3776639e-09
-1.8475169e-05
2.0100928e-09
-1.8475713e-05
2.8524669e-09
-1.8475883e-05
3.841843e-09
-1.8476625e-05
5.3900787e-09
-1.8478616e-05
7.0242096e-09
-1.8478708e-05
3.3269375e-09
-1.8487185e-05
-1.844475e-05
5.9765768e-09
-1.7868984e-05
1.791951e-09
-1.7901239e-05
1.9322312e-09
-1.7897111e-05
3.7216112e-10
-1.789529e-05
6.2653225e-10
-1.789514e-05
7.0370424e-11
-1.7893563e-05
1.9695448e-10
-1.7894096e-05
1.0618182e-11
-1.7893221e-05
4.2694421e-11
-1.789355e-05
5.7364531e-16
-1.7893281e-05
-4.2693807e-11
-1.7893281e-05
-1.0620543e-11
-1.789355e-05
-1.9695732e-10
-1.7893221e-05
-7.0374233e-11
-1.7894096e-05
-6.2652925e-10
-1.7893563e-05
-3.7215561e-10
-1.789514e-05
-1.9322302e-09
-1.789529e-05
-1.7919499e-09
-1.7897111e-05
-5.9765788e-09
-1.7901239e-05
-1.7868984e-05
-6.9830213e-09
-1.7943253e-05
-8.4702053e-09
-1.798099e-05
-7.4050823e-09
-1.7979442e-05
-6.0643477e-09
-1.7977879e-05
-4.9672979e-09
-1.7977507e-05
-3.6314906e-09
-1.797616e-05
-2.6978135e-09
-1.7976302e-05
-1.6818228e-09
-1.7975505e-05
-8.4846098e-10
-1.7975654e-05
2.0084414e-15
-1.7975398e-05
8.484618e-10
-1.7975398e-05
1.6818182e-09
-1.7975654e-05
2.697804e-09
-1.7975505e-05
3.631485e-09
-1.7976302e-05
4.9672941e-09
-1.797616e-05
6.0643533e-09
-1.7977507e-05
7.4050832e-09
-1.7977879e-05
8.4702042e-09
-1.7979442e-05
6.9830254e-09
-1.798099e-05
-1.7943253e-05
1.3619468e-08
-1.6694138e-05
7.9189061e-09
-1.6712518e-05
8.8253883e-09
-1.671762e-05
4.7107713e-09
-1.6710972e-05
4.9154502e-09
-1.6714969e-05
2.6099309e-09
-1.671106e-05
2.4176703e-09
-1.6713358e-05
1.1629427e-09
-1.6711462e-05
7.2417377e-10
-1.6712451e-05
2.9620569e-15
-1.6711897e-05
-7.2417114e-10
-1.6711897e-05
-1.1629449e-09
-1.6712451e-05
-2.4176702e-09
-1.6711462e-05
-2.6099305e-09
-1.6713358e-05
-4.9154492e-09
-1.671106e-05
-4.7107671e-09
-1.6714969e-05
-8.8253936e-09
-1.6710972e-05
-7.918908e-09
-1.671762e-05
-1.3619468e-08
-1.6712518e-05
-1.6694138e-05
-1.4182411e-08
-1.7772793e-05
-1.2289403e-08
-1.7807246e-05
-1.2739678e-08
-1.780999e-05
-9.7560232e-09
-1.7806804e-05
-9.08932e-09
-1.7808473e-05
-6.4311219e-09
-1.7806577e-05
-5.2490737e-09
-1.7807384e-05
-3.1412604e-09
-1.7806434e-05
-1.7007669e-09
-1.7806748e-05
-7.0175085e-15
-1.7806463e-05
1.7007551e-09
-1.7806463e-05
3.1412589e-09
-1.7806748e-05
5.249077e-09
-1.7806434e-05
6.4311255e-09
-1.7807384e-05
9.0893251e-09
-1.7806577e-05
9.7560283e-09
-1.7808473e-05
1.2739689e-08
-1.7806804e-05
1.2289415e-08
-1.780999e-05
1.4182415e-08
-1.7807246e-05
-1.7772793e-05
4.0626542e-08
-1.4575586e-05
1.6796338e-08
-1.4545481e-05
2.1630375e-08
-1.4577074e-05
1.189164e-08
-1.4559107e-05
1.2264131e-08
-1.457106e-05
7.4467166e-09
-1.4563809e-05
6.4209418e-09
-1.4568532e-05
3.5577227e-09
-1.4565643e-05
2.0067057e-09
-1.4567332e-05
-4.3736576e-15
-1.4566558e-05
-2.0067123e-09
-1.4566558e-05
-3.5577157e-09
-1.4567332e-05
-6.4209243e-09
-1.4565643e-05
-7.4467083e-09
-1.4568532e-05
-1.2264126e-08