/*--------------------------------*- C++ -*----------------------------------*\
  =========                 |
  \\      /  F ield         | OpenFOAM: The Open Source CFD Toolbox
   \\    /   O peration     | Website:  https://openfoam.org
    \\  /    A nd           | Version:  8
     \\/     M anipulation  |
\*---------------------------------------------------------------------------*/
FoamFile
{
    version     2.0;
    format      ascii;
    class       volVectorField;
    location    "0.2";
    object      U;
}
// * * * * * * * * * * * * * * * * * * * * * * * * * * * * * * * * * * * * * //

dimensions      [0 1 -1 0 0 0 0];

internalField   nonuniform List<vector> 
800
(
(-7.7174624e-06 0.0084374898 -1.506927e-05)
(-7.0815866e-07 0.0084417847 -1.5085003e-05)
(-1.197936e-06 0.0084433816 -1.5087888e-05)
(-2.7788934e-07 0.0084434621 -1.5087869e-05)
(-3.8386425e-07 0.0084436134 -1.5088096e-05)
(-1.2361931e-07 0.0084437519 -1.5088221e-05)
(-1.8763426e-07 0.0084437344 -1.5088244e-05)
(-3.5454435e-08 0.0084438315 -1.5088327e-05)
(-9.7276264e-08 0.0084438067 -1.5088325e-05)
(3.1321735e-08 0.0084438405 -1.5088353e-05)
(-3.1321893e-08 0.0084438405 -1.5088353e-05)
(9.7275367e-08 0.0084438067 -1.5088325e-05)
(3.5454048e-08 0.0084438315 -1.5088326e-05)
(1.8763395e-07 0.0084437344 -1.5088245e-05)
(1.2361907e-07 0.0084437519 -1.508822e-05)
(3.8386439e-07 0.0084436134 -1.5088097e-05)
(2.778902e-07 0.0084434621 -1.508787e-05)
(1.1979365e-06 0.0084433816 -1.5087889e-05)
(7.0815854e-07 0.0084417847 -1.5085004e-05)
(7.7174623e-06 0.0084374898 -1.506927e-05)
(8.5090741e-07 -0.012832167 1.2192145e-06)
(-2.9297119e-07 -0.012844586 1.2212081e-06)
(-3.7560682e-07 -0.012843541 1.220921e-06)
(-1.6559427e-07 -0.012843715 1.2210487e-06)
(-2.4252987e-07 -0.012843631 1.2209869e-06)
(-6.4850558e-08 -0.012843767 1.2210283e-06)
(-1.4907777e-07 -0.012843726 1.2210051e-06)
(-2.1119563e-10 -0.012843818 1.2210266e-06)
(-9.3154766e-08 -0.012843792 1.2210165e-06)
(4.7913217e-08 -0.012843824 1.221023e-06)
(-4.7913333e-08 -0.012843824 1.2210227e-06)
(9.3154161e-08 -0.012843792 1.221016e-06)
(2.1048651e-10 -0.012843818 1.2210264e-06)
(1.4907728e-07 -0.012843726 1.221005e-06)
(6.4850476e-08 -0.012843767 1.2210286e-06)
(2.4253e-07 -0.012843631 1.2209866e-06)
(1.6559511e-07 -0.012843715 1.2210487e-06)
(3.7560655e-07 -0.012843541 1.2209207e-06)
(2.9297195e-07 -0.012844586 1.2212079e-06)
(-8.5090739e-07 -0.012832167 1.2192148e-06)
(-1.3987675e-07 0.012796265 -6.207273e-07)
(-6.0745121e-07 0.012805051 -6.2182181e-07)
(-8.369126e-07 0.012805688 -6.2193366e-07)
(-3.5121691e-07 0.01280589 -6.2177815e-07)
(-4.3926582e-07 0.012805987 -6.2177876e-07)
(-1.8942752e-07 0.012806227 -6.2171597e-07)
(-2.2428888e-07 0.012806175 -6.2173515e-07)
(-7.9560566e-08 0.012806338 -6.217014e-07)
(-1.0186885e-07 0.012806289 -6.2171429e-07)
(1.0241299e-08 0.012806346 -6.2170369e-07)
(-1.0241778e-08 0.012806346 -6.2170332e-07)
(1.0186846e-07 0.012806289 -6.2171424e-07)
(7.9560193e-08 0.012806338 -6.2170137e-07)
(2.2428849e-07 0.012806175 -6.2173472e-07)
(1.8942717e-07 0.012806227 -6.2171582e-07)
(4.3926561e-07 0.012805987 -6.2177914e-07)
(3.5121739e-07 0.01280589 -6.2177773e-07)
(8.3691243e-07 0.012805688 -6.2193312e-07)
(6.0745224e-07 0.012805051 -6.2182177e-07)
(1.3987656e-07 0.012796265 -6.2072696e-07)
(9.8549468e-07 -0.018214334 1.3953837e-06)
(8.6520708e-08 -0.018231248 1.3975821e-06)
(2.6216451e-07 -0.018230671 1.3976385e-06)
(6.6125153e-08 -0.018230896 1.3976293e-06)
(1.6308667e-08 -0.018230697 1.3975794e-06)
(8.1476797e-08 -0.018230866 1.3975789e-06)
(-6.2426059e-08 -0.018230775 1.3975582e-06)
(9.0077014e-08 -0.018230885 1.3975594e-06)
(-8.6367861e-08 -0.018230842 1.3975552e-06)
(9.1793495e-08 -0.01823088 1.3975551e-06)
(-9.1792989e-08 -0.01823088 1.3975551e-06)
(8.6367577e-08 -0.018230842 1.3975549e-06)
(-9.0077724e-08 -0.018230885 1.3975592e-06)
(6.2425771e-08 -0.018230775 1.397558e-06)
(-8.1477461e-08 -0.018230866 1.3975791e-06)
(-1.6307425e-08 -0.018230697 1.3975794e-06)
(-6.6125072e-08 -0.018230896 1.3976292e-06)
(-2.621639e-07 -0.018230671 1.3976385e-06)
(-8.652116e-08 -0.018231248 1.397582e-06)
(-9.8549447e-07 -0.018214334 1.3953836e-06)
(-5.5729274e-07 0.019504324 -1.1697309e-06)
(-5.5738988e-07 0.01952007 -1.1713038e-06)
(-7.4069608e-07 0.019519912 -1.1715403e-06)
(-4.4137806e-07 0.019520407 -1.1714124e-06)
(-4.9242619e-07 0.019520191 -1.1714407e-06)
(-2.962052e-07 0.019520591 -1.1713789e-06)
(-2.6601285e-07 0.019520415 -1.1714003e-06)
(-1.6044374e-07 0.019520657 -1.1713719e-06)
(-1.0089011e-07 0.019520564 -1.1713808e-06)
(-3.2903577e-08 0.019520644 -1.171373e-06)
(3.290397e-08 0.019520644 -1.1713729e-06)
(1.0088971e-07 0.019520564 -1.171381e-06)
(1.604431e-07 0.019520657 -1.1713716e-06)
(2.6601228e-07 0.019520415 -1.1714003e-06)
(2.9620468e-07 0.019520591 -1.1713765e-06)
(4.9242596e-07 0.019520191 -1.171439e-06)
(4.4137899e-07 0.019520407 -1.1714117e-06)
(7.406954e-07 0.019519912 -1.171545e-06)
(5.5739062e-07 0.01952007 -1.1713041e-06)
(5.5729264e-07 0.019504324 -1.1697313e-06)
(1.43099e-06 -0.026281602 1.6407598e-06)
(3.6821036e-07 -0.026306246 1.6431162e-06)
(7.332505e-07 -0.026305807 1.6434349e-06)
(4.0471254e-07 -0.026306134 1.6433327e-06)
(2.6992287e-07 -0.026305815 1.6433303e-06)
(3.4938551e-07 -0.026306069 1.6433169e-06)
(3.1671108e-08 -0.026305882 1.6432993e-06)
(2.6774445e-07 -0.026306038 1.6433026e-06)
(-9.6100572e-08 -0.026305952 1.6432921e-06)
(1.8496767e-07 -0.026306004 1.6432947e-06)
(-1.8496753e-07 -0.026306004 1.6432948e-06)
(9.6100847e-08 -0.026305952 1.6432921e-06)
(-2.6774488e-07 -0.026306038 1.6433029e-06)
(-3.1671053e-08 -0.026305882 1.6432995e-06)
(-3.4938604e-07 -0.026306069 1.643317e-06)
(-2.6992228e-07 -0.026305815 1.6433302e-06)
(-4.0471205e-07 -0.026306134 1.6433329e-06)
(-7.3325059e-07 -0.026305807 1.6434349e-06)
(-3.6821058e-07 -0.026306246 1.6431162e-06)
(-1.43099e-06 -0.026281602 1.6407597e-06)
(-1.0585595e-06 0.029373123 -1.4630157e-06)
(-5.6636073e-07 0.029399798 -1.46507e-06)
(-8.5783572e-07 0.029398702 -1.4654846e-06)
(-5.9142312e-07 0.029399851 -1.4653259e-06)
(-5.5121289e-07 0.029399018 -1.4653874e-06)
(-4.7472312e-07 0.02939977 -1.4653422e-06)
(-2.8333658e-07 0.029399283 -1.4653536e-06)
(-3.0618836e-07 0.029399689 -1.465342e-06)
(-6.5378339e-08 0.029399471 -1.465341e-06)
(-1.2518095e-07 0.029399599 -1.4653395e-06)
(1.2518028e-07 0.029399599 -1.4653393e-06)
(6.5377616e-08 0.029399471 -1.4653408e-06)
(3.0618871e-07 0.029399689 -1.4653419e-06)
(2.8333641e-07 0.029399283 -1.4653533e-06)
(4.747235e-07 0.02939977 -1.4653423e-06)
(5.5121324e-07 0.029399018 -1.4653878e-06)
(5.9142381e-07 0.029399851 -1.4653266e-06)
(8.5783704e-07 0.029398702 -1.4654847e-06)
(5.6636082e-07 0.029399798 -1.4650703e-06)
(1.0585595e-06 0.029373123 -1.4630168e-06)
(3.2049443e-06 -0.038099268 2.3930416e-06)
(7.0646188e-07 -0.03813645 2.397193e-06)
(1.0551077e-06 -0.038135642 2.3974905e-06)
(9.625157e-07 -0.038136442 2.3975036e-06)
(3.0631233e-07 -0.03813575 2.3974223e-06)
(8.1619777e-07 -0.038136311 2.3975156e-06)
(-1.56066e-08 -0.038135874 2.3974262e-06)
(5.9726958e-07 -0.038136191 2.397495e-06)
(-2.1340275e-07 -0.038135987 2.3974489e-06)
(3.9435721e-07 -0.038136089 2.397469e-06)
(-3.9435769e-07 -0.038136089 2.3974724e-06)
(2.1340243e-07 -0.038135987 2.3974448e-06)
(-5.972688e-07 -0.038136191 2.3974949e-06)
(1.5607378e-08 -0.038135874 2.3974253e-06)
(-8.1619709e-07 -0.038136311 2.3975175e-06)
(-3.063134e-07 -0.03813575 2.3974233e-06)
(-9.6251349e-07 -0.038136442 2.3975057e-06)
(-1.0551099e-06 -0.038135642 2.3974929e-06)
(-7.0646309e-07 -0.03813645 2.3971927e-06)
(-3.2049444e-06 -0.038099268 2.3930424e-06)
(-2.7513047e-06 0.043712179 -2.2025152e-06)
(-7.4095174e-07 0.043758589 -2.206174e-06)
(-1.1487862e-06 0.043754466 -2.2065423e-06)
(-1.0064228e-06 0.043757223 -2.206548e-06)
(-5.0396212e-07 0.043755201 -2.2064756e-06)
(-8.6969747e-07 0.043756599 -2.2065796e-06)
(-1.5561389e-07 0.043755605 -2.2064856e-06)
(-6.2038708e-07 0.043756275 -2.2065637e-06)
(1.0733092e-07 0.043755861 -2.2065101e-06)
(-3.5892662e-07 0.043756061 -2.2065376e-06)
(3.589274e-07 0.043756061 -2.2065375e-06)
(-1.0732988e-07 0.043755861 -2.2065101e-06)
(6.2038677e-07 0.043756275 -2.2065639e-06)
(1.5561343e-07 0.043755605 -2.2064853e-06)
(8.6969613e-07 0.043756599 -2.2065794e-06)
(5.0396182e-07 0.043755201 -2.2064752e-06)
(1.0064225e-06 0.043757223 -2.2065497e-06)
(1.1487864e-06 0.043754466 -2.2065425e-06)
(7.4095253e-07 0.043758589 -2.2061737e-06)
(2.7513055e-06 0.043712179 -2.2025149e-06)
(-1.5097891e-06 -0.055309556 -1.2856286e-05)
(3.5486072e-06 -0.055369877 -1.2867712e-05)
(-9.0807037e-07 -0.055365966 -1.2873357e-05)
(2.5302543e-06 -0.055368755 -1.287221e-05)
(-6.1121107e-07 -0.055366655 -1.2872606e-05)
(1.7791267e-06 -0.055368146 -1.2872441e-05)
(-5.388972e-07 -0.055367043 -1.2872555e-05)
(1.2339026e-06 -0.05536778 -1.2872467e-05)
(-6.2737709e-07 -0.055367302 -1.2872526e-05)
(8.5727444e-07 -0.055367525 -1.2872496e-05)
(-8.5727486e-07 -0.055367525 -1.2872496e-05)
(6.2737654e-07 -0.055367302 -1.2872526e-05)
(-1.2339021e-06 -0.05536778 -1.2872469e-05)
(5.3889746e-07 -0.055367043 -1.2872555e-05)
(-1.7791248e-06 -0.055368146 -1.2872441e-05)
(6.112112e-07 -0.055366655 -1.2872605e-05)
(-2.5302534e-06 -0.055368755 -1.2872207e-05)
(9.0806928e-07 -0.055365966 -1.287336e-05)
(-3.5486062e-06 -0.055369877 -1.286771e-05)
(1.5097875e-06 -0.055309556 -1.2856283e-05)
(-7.7553885e-06 0.0084560751 1.84099e-06)
(-7.1117454e-07 0.0084603794 1.8450463e-06)
(-1.2020391e-06 0.0084619807 1.8443894e-06)
(-2.7948945e-07 0.0084620617 1.8447322e-06)
(-3.8519106e-07 0.0084622133 1.8447841e-06)
(-1.243787e-07 0.0084623521 1.8448815e-06)
(-1.8828121e-07 0.0084623347 1.8448837e-06)
(-3.5762166e-08 0.008462432 1.8449375e-06)
(-9.7564774e-08 0.0084624072 1.8449313e-06)
(3.1324737e-08 0.008462441 1.8449487e-06)
(-3.1325049e-08 0.008462441 1.8449483e-06)
(9.7563798e-08 0.0084624072 1.8449312e-06)
(3.5761878e-08 0.008462432 1.844937e-06)
(1.8828112e-07 0.0084623347 1.8448842e-06)
(1.2437831e-07 0.0084623521 1.8448815e-06)
(3.8519119e-07 0.0084622133 1.8447845e-06)
(2.7949043e-07 0.0084620617 1.8447326e-06)
(1.2020394e-06 0.0084619807 1.8443895e-06)
(7.1117438e-07 0.0084603794 1.8450458e-06)
(7.7553884e-06 0.0084560751 1.8409903e-06)
(8.5351171e-07 -0.012880327 2.8912051e-07)
(-2.9489021e-07 -0.012892815 2.8971198e-07)
(-3.7732198e-07 -0.012891766 2.8953773e-07)
(-1.6680497e-07 -0.012891941 2.8963015e-07)
(-2.4350842e-07 -0.012891857 2.8960957e-07)
(-6.5432736e-08 -0.012891993 2.8962199e-07)
(-1.4961762e-07 -0.012891953 2.8962212e-07)
(-4.2528246e-10 -0.012892044 2.8962491e-07)
(-9.3421e-08 -0.012892019 2.8962643e-07)
(4.7951426e-08 -0.01289205 2.8962702e-07)
(-4.7951681e-08 -0.01289205 2.8962678e-07)
(9.3420085e-08 -0.012892019 2.8962658e-07)
(4.2490835e-10 -0.012892044 2.8962527e-07)
(1.4961721e-07 -0.012891953 2.8962195e-07)
(6.5432841e-08 -0.012891993 2.8962227e-07)
(2.4350832e-07 -0.012891857 2.8960946e-07)
(1.6680555e-07 -0.012891941 2.8962955e-07)
(3.7732178e-07 -0.012891766 2.8953753e-07)
(2.9489133e-07 -0.012892815 2.8971167e-07)
(-8.5351167e-07 -0.012880327 2.8912042e-07)
(-1.4389575e-07 0.012831798 4.2671798e-07)
(-6.1025651e-07 0.012840616 4.2755672e-07)
(-8.3999392e-07 0.012841255 4.2742889e-07)
(-3.5304188e-07 0.012841458 4.2751648e-07)
(-4.4083577e-07 0.012841556 4.2753966e-07)
(-1.9041846e-07 0.012841796 4.2757221e-07)
(-2.2508967e-07 0.012841744 4.2757009e-07)
(-8.0016167e-08 0.012841907 4.2759014e-07)
(-1.0219749e-07 0.012841859 4.2758529e-07)
(1.0187721e-08 0.012841915 4.2759147e-07)
(-1.0188251e-08 0.012841915 4.2759152e-07)
(1.0219686e-07 0.012841859 4.2758469e-07)
(8.0015931e-08 0.012841907 4.2759029e-07)
(2.2508915e-07 0.012841744 4.2756984e-07)
(1.9041845e-07 0.012841796 4.2757262e-07)
(4.4083552e-07 0.012841556 4.2753965e-07)
(3.530424e-07 0.012841458 4.2751663e-07)
(8.3999401e-07 0.012841255 4.27429e-07)
(6.1025708e-07 0.012840616 4.2755678e-07)
(1.4389558e-07 0.012831798 4.2671765e-07)
(9.9061437e-07 -0.018280719 7.7966485e-10)
(8.6394281e-08 -0.018297727 3.5921021e-10)
(2.6273302e-07 -0.018297149 4.9069406e-10)
(6.5985501e-08 -0.018297374 4.9031931e-10)
(1.6208886e-08 -0.018297174 4.6857393e-10)
(8.147597e-08 -0.018297344 4.6641633e-10)
(-6.264234e-08 -0.018297253 4.581455e-10)
(9.0177062e-08 -0.018297363 4.5584839e-10)
(-8.6572237e-08 -0.01829732 4.572808e-10)
(9.1953611e-08 -0.018297358 4.5473937e-10)
(-9.1953359e-08 -0.018297358 4.547563e-10)
(8.6571952e-08 -0.01829732 4.5663378e-10)
(-9.0177865e-08 -0.018297363 4.5571528e-10)
(6.2642393e-08 -0.018297253 4.5853763e-10)
(-8.1476686e-08 -0.018297344 4.6677232e-10)
(-1.6207503e-08 -0.018297174 4.6861428e-10)
(-6.5985856e-08 -0.018297374 4.9060862e-10)
(-2.6273183e-07 -0.018297149 4.9008336e-10)
(-8.6395401e-08 -0.018297727 3.5950928e-10)
(-9.9061418e-07 -0.018280719 7.7980204e-10)
(-5.6201504e-07 0.019565943 1.6514591e-07)
(-5.5926566e-07 0.019581759 1.6608351e-07)
(-7.4352852e-07 0.019581602 1.6585052e-07)
(-4.4326817e-07 0.019582098 1.6591942e-07)
(-4.9422224e-07 0.019581881 1.6590723e-07)
(-2.974822e-07 0.019582283 1.6593424e-07)
(-2.6699828e-07 0.019582107 1.6592598e-07)
(-1.6112813e-07 0.019582349 1.6594286e-07)
(-1.0126245e-07 0.019582257 1.6593624e-07)
(-3.3057688e-08 0.019582336 1.6594224e-07)
(3.3057789e-08 0.019582336 1.6594181e-07)
(1.0126239e-07 0.019582257 1.6593643e-07)
(1.6112717e-07 0.019582349 1.6594318e-07)
(2.6699806e-07 0.019582107 1.6592606e-07)
(2.9748108e-07 0.019582283 1.6593172e-07)
(4.9422224e-07 0.019581881 1.6590535e-07)
(4.4326841e-07 0.019582098 1.6591947e-07)
(7.4352959e-07 0.019581602 1.6585521e-07)
(5.5926469e-07 0.019581759 1.6608343e-07)
(5.6201491e-07 0.019565943 1.6514648e-07)
(1.438208e-06 -0.026379003 5.582395e-08)
(3.6930989e-07 -0.026403786 5.4764691e-08)
(7.3572734e-07 -0.026403346 5.5099028e-08)
(4.0602787e-07 -0.026403673 5.5007508e-08)
(2.708729e-07 -0.026403354 5.504145e-08)
(3.5041664e-07 -0.026403608 5.5009891e-08)
(3.1919638e-08 -0.026403421 5.5025869e-08)
(2.6845387e-07 -0.026403578 5.5010233e-08)
(-9.6233012e-08 -0.026403491 5.5017613e-08)
(1.8538527e-07 -0.026403543 5.5012197e-08)
(-1.8538547e-07 -0.026403543 5.501225e-08)
(9.6233565e-08 -0.026403491 5.5017631e-08)
(-2.6845454e-07 -0.026403578 5.5009907e-08)
(-3.1919583e-08 -0.026403421 5.5026165e-08)
(-3.5041675e-07 -0.026403608 5.501e-08)
(-2.7087242e-07 -0.026403354 5.504203e-08)
(-4.06028e-07 -0.026403673 5.5007684e-08)
(-7.3572696e-07 -0.026403346 5.5098457e-08)
(-3.6931023e-07 -0.026403786 5.476448e-08)
(-1.4382077e-06 -0.026379003 5.5823883e-08)
(-1.0647766e-06 0.029475066 3.7888063e-08)
(-5.6819695e-07 0.029501873 3.8904234e-08)
(-8.6108003e-07 0.029500775 3.8536376e-08)
(-5.9368079e-07 0.029501927 3.8643049e-08)
(-5.5331562e-07 0.029501092 3.858729e-08)
(-4.7650634e-07 0.029501846 3.8626293e-08)
(-2.8450432e-07 0.029501358 3.8604878e-08)
(-3.0727802e-07 0.029501765 3.8622211e-08)
(-6.5747029e-08 0.029501547 3.8613156e-08)
(-1.2554709e-07 0.029501674 3.8618394e-08)
(1.2554643e-07 0.029501674 3.8618302e-08)
(6.5746351e-08 0.029501547 3.8613319e-08)
(3.0727856e-07 0.029501765 3.8622388e-08)
(2.8450361e-07 0.029501358 3.8605278e-08)
(4.765069e-07 0.029501846 3.8627109e-08)
(5.533159e-07 0.029501092 3.8587476e-08)
(5.9368056e-07 0.029501927 3.8643258e-08)
(8.6108181e-07 0.029500775 3.8536142e-08)
(5.6819774e-07 0.029501873 3.8903513e-08)
(1.0647769e-06 0.029475066 3.7888693e-08)
(3.218262e-06 -0.038244961 6.7738373e-07)
(7.0921742e-07 -0.038282355 6.7684675e-07)
(1.0589981e-06 -0.038281545 6.7700199e-07)
(9.660191e-07 -0.038282348 6.7701798e-07)
(3.0780185e-07 -0.038281654 6.7698797e-07)
(8.1890574e-07 -0.038282216 6.770131e-07)
(-1.5174834e-08 -0.038281778 6.7699478e-07)
(5.9905095e-07 -0.038282096 6.770081e-07)
(-2.1368326e-07 -0.038281892 6.769963e-07)
(3.9533286e-07 -0.038281994 6.7700393e-07)
(-3.9533289e-07 -0.038281994 6.7700077e-07)
(2.136829e-07 -0.038281892 6.7700049e-07)
(-5.9905096e-07 -0.038282096 6.7700827e-07)
(1.5175307e-08 -0.038281778 6.7699576e-07)
(-8.1890566e-07 -0.038282216 6.7701184e-07)
(-3.0780154e-07 -0.038281654 6.7698573e-07)
(-9.6602129e-07 -0.038282348 6.7701693e-07)
(-1.0589967e-06 -0.038281545 6.770003e-07)
(-7.0921774e-07 -0.038282355 6.7684648e-07)
(-3.2182614e-06 -0.038244961 6.773833e-07)
(-2.7632165e-06 0.043879405 -4.9591801e-07)
(-7.4382206e-07 0.04392607 -4.9515743e-07)
(-1.1531542e-06 0.043921933 -4.9538502e-07)
(-1.0102123e-06 0.043924698 -4.9538103e-07)
(-5.0622034e-07 0.04392267 -4.9536111e-07)
(-8.7275083e-07 0.043924072 -4.9538849e-07)
(-1.5667425e-07 0.043923075 -4.9536877e-07)
(-6.2237817e-07 0.043923748 -4.9538523e-07)
(1.0726312e-07 0.043923333 -4.9537511e-07)
(-3.5985563e-07 0.043923533 -4.9538076e-07)
(3.5985598e-07 0.043923533 -4.9538079e-07)
(-1.0726164e-07 0.043923333 -4.9537581e-07)
(6.2237782e-07 0.043923748 -4.9538486e-07)
(1.5667395e-07 0.043923075 -4.9536848e-07)
(8.727496e-07 0.043924072 -4.9538808e-07)
(5.0622021e-07 0.04392267 -4.9536055e-07)
(1.0102116e-06 0.043924698 -4.9537898e-07)
(1.1531544e-06 0.043921933 -4.9538463e-07)
(7.438229e-07 0.04392607 -4.9515707e-07)
(2.7632171e-06 0.043879405 -4.9591801e-07)
(-1.5560648e-06 -0.055533418 1.5377543e-05)
(3.5695591e-06 -0.055594095 1.5411491e-05)
(-9.1201201e-07 -0.055590172 1.5404923e-05)
(2.5396618e-06 -0.055592969 1.5406623e-05)
(-6.1204432e-07 -0.055590863 1.5405881e-05)
(1.78508e-06 -0.055592358 1.5406247e-05)
(-5.3955227e-07 -0.055591252 1.5406015e-05)
(1.2376314e-06 -0.055591991 1.5406161e-05)
(-6.285453e-07 -0.055591512 1.5406072e-05)
(8.5945681e-07 -0.055591735 1.5406114e-05)
(-8.5945708e-07 -0.055591735 1.5406114e-05)
(6.2854462e-07 -0.055591512 1.5406071e-05)
(-1.2376308e-06 -0.055591991 1.5406163e-05)
(5.3955239e-07 -0.055591252 1.5406015e-05)
(-1.785078e-06 -0.055592358 1.5406247e-05)
(6.1204385e-07 -0.055590863 1.5405881e-05)
(-2.5396611e-06 -0.055592969 1.5406619e-05)
(9.1201118e-07 -0.055590172 1.5404925e-05)
(-3.569559e-06 -0.055594095 1.5411489e-05)
(1.5560647e-06 -0.055533418 1.5377541e-05)
(-7.7553887e-06 0.0084560751 -1.8409895e-06)
(-7.1117455e-07 0.0084603794 -1.8450458e-06)
(-1.2020388e-06 0.0084619807 -1.8443891e-06)
(-2.7948972e-07 0.0084620617 -1.8447324e-06)
(-3.8519103e-07 0.0084622133 -1.8447849e-06)
(-1.2437871e-07 0.0084623521 -1.8448819e-06)
(-1.8828112e-07 0.0084623347 -1.8448833e-06)
(-3.5762275e-08 0.008462432 -1.8449369e-06)
(-9.7564745e-08 0.0084624072 -1.8449305e-06)
(3.1324789e-08 0.008462441 -1.8449481e-06)
(-3.1325092e-08 0.008462441 -1.8449484e-06)
(9.7564296e-08 0.0084624072 -1.8449303e-06)
(3.5761908e-08 0.008462432 -1.8449367e-06)
(1.8828078e-07 0.0084623347 -1.8448839e-06)
(1.2437818e-07 0.0084623521 -1.8448818e-06)
(3.8519088e-07 0.0084622133 -1.844785e-06)
(2.7949054e-07 0.0084620617 -1.8447329e-06)
(1.2020393e-06 0.0084619807 -1.8443896e-06)
(7.111747e-07 0.0084603794 -1.8450453e-06)
(7.7553888e-06 0.0084560751 -1.8409897e-06)
(8.5351178e-07 -0.012880327 -2.8911948e-07)
(-2.9488979e-07 -0.012892815 -2.8971125e-07)
(-3.7732254e-07 -0.012891766 -2.8953673e-07)
(-1.668045e-07 -0.012891941 -2.8962918e-07)
(-2.4350869e-07 -0.012891857 -2.8960922e-07)
(-6.543242e-08 -0.012891993 -2.8962185e-07)
(-1.4961767e-07 -0.012891953 -2.8962118e-07)
(-4.2520714e-10 -0.012892044 -2.8962415e-07)
(-9.3420977e-08 -0.012892019 -2.8962505e-07)
(4.7951394e-08 -0.01289205 -2.896259e-07)
(-4.7951598e-08 -0.01289205 -2.8962618e-07)
(9.3420427e-08 -0.012892019 -2.8962518e-07)
(4.2476514e-10 -0.012892044 -2.8962392e-07)
(1.4961709e-07 -0.012891953 -2.8962106e-07)
(6.5432221e-08 -0.012891993 -2.8962177e-07)
(2.4350878e-07 -0.012891857 -2.8960929e-07)
(1.6680512e-07 -0.012891941 -2.896297e-07)
(3.7732215e-07 -0.012891766 -2.8953703e-07)
(2.9489088e-07 -0.012892815 -2.8971081e-07)
(-8.5351156e-07 -0.012880327 -2.8911971e-07)
(-1.438958e-07 0.012831798 -4.2671745e-07)
(-6.1025535e-07 0.012840616 -4.2755607e-07)
(-8.3999488e-07 0.012841255 -4.2742805e-07)
(-3.5304118e-07 0.012841458 -4.2751603e-07)
(-4.408361e-07 0.012841556 -4.2753972e-07)
(-1.9041844e-07 0.012841796 -4.2757159e-07)
(-2.250896e-07 0.012841744 -4.2756933e-07)
(-8.0016139e-08 0.012841907 -4.2758895e-07)
(-1.0219719e-07 0.012841859 -4.275837e-07)
(1.0187539e-08 0.012841915 -4.2759093e-07)
(-1.0188159e-08 0.012841915 -4.2759136e-07)
(1.0219691e-07 0.012841859 -4.2758394e-07)
(8.0015781e-08 0.012841907 -4.2758905e-07)
(2.2508932e-07 0.012841744 -4.275692e-07)
(1.9041795e-07 0.012841796 -4.2757165e-07)
(4.408359e-07 0.012841556 -4.2753948e-07)
(3.5304188e-07 0.012841458 -4.2751629e-07)
(8.3999454e-07 0.012841255 -4.2742853e-07)
(6.1025652e-07 0.012840616 -4.2755579e-07)
(1.4389591e-07 0.012831798 -4.2671669e-07)
(9.9061433e-07 -0.018280719 -7.7950703e-10)
(8.6395311e-08 -0.018297727 -3.5927091e-10)
(2.6273234e-07 -0.018297149 -4.9070934e-10)
(6.5986334e-08 -0.018297374 -4.9089735e-10)
(1.6208379e-08 -0.018297174 -4.6951283e-10)
(8.1476079e-08 -0.018297344 -4.6687974e-10)
(-6.2642211e-08 -0.018297253 -4.5763604e-10)
(9.0177187e-08 -0.018297363 -4.5495744e-10)
(-8.6571896e-08 -0.01829732 -4.5646052e-10)
(9.1953493e-08 -0.018297358 -4.5449931e-10)
(-9.1953336e-08 -0.018297358 -4.5462487e-10)
(8.6571726e-08 -0.01829732 -4.5622611e-10)
(-9.0177571e-08 -0.018297363 -4.5504885e-10)
(6.2642056e-08 -0.018297253 -4.5744856e-10)
(-8.1476731e-08 -0.018297344 -4.6661444e-10)
(-1.6207713e-08 -0.018297174 -4.690625e-10)
(-6.5986204e-08 -0.018297374 -4.9075505e-10)
(-2.6273163e-07 -0.018297149 -4.9034352e-10)
(-8.6395534e-08 -0.018297727 -3.5925368e-10)
(-9.9061416e-07 -0.018280719 -7.798722e-10)
(-5.6201431e-07 0.019565943 -1.6514491e-07)
(-5.5926445e-07 0.019581759 -1.6608359e-07)
(-7.4353024e-07 0.019581602 -1.6585085e-07)
(-4.4326811e-07 0.019582098 -1.6591894e-07)
(-4.9422168e-07 0.019581881 -1.6590679e-07)
(-2.9748128e-07 0.019582283 -1.6593468e-07)
(-2.6699862e-07 0.019582107 -1.6592633e-07)
(-1.6112775e-07 0.019582349 -1.6594307e-07)
(-1.0126238e-07 0.019582257 -1.6593652e-07)
(-3.3057546e-08 0.019582336 -1.65942e-07)
(3.3058045e-08 0.019582336 -1.6594195e-07)
(1.0126202e-07 0.019582257 -1.6593636e-07)
(1.6112728e-07 0.019582349 -1.6594327e-07)
(2.6699773e-07 0.019582107 -1.6592608e-07)
(2.9748132e-07 0.019582283 -1.6593174e-07)
(4.9422151e-07 0.019581881 -1.6590544e-07)
(4.4326813e-07 0.019582098 -1.6591886e-07)
(7.4352961e-07 0.019581602 -1.658538e-07)
(5.5926572e-07 0.019581759 -1.6608328e-07)
(5.6201467e-07 0.019565943 -1.6514685e-07)
(1.4382075e-06 -0.026379003 -5.5823838e-08)
(3.6930984e-07 -0.026403786 -5.4765523e-08)
(7.3572645e-07 -0.026403346 -5.5098749e-08)
(4.0602917e-07 -0.026403673 -5.500728e-08)
(2.708719e-07 -0.026403354 -5.5042375e-08)
(3.5041733e-07 -0.026403608 -5.5010645e-08)
(3.1919638e-08 -0.026403421 -5.5026313e-08)
(2.6845448e-07 -0.026403578 -5.5009544e-08)
(-9.6233197e-08 -0.026403491 -5.5017691e-08)
(1.8538499e-07 -0.026403543 -5.5012499e-08)
(-1.8538476e-07 -0.026403543 -5.5012533e-08)
(9.6232935e-08 -0.026403491 -5.5017548e-08)
(-2.6845426e-07 -0.026403578 -5.5009547e-08)
(-3.1919763e-08 -0.026403421 -5.502613e-08)
(-3.5041686e-07 -0.026403608 -5.5010216e-08)
(-2.7087195e-07 -0.026403354 -5.5041628e-08)
(-4.0602849e-07 -0.026403673 -5.5007451e-08)
(-7.3572713e-07 -0.026403346 -5.5099146e-08)
(-3.693102e-07 -0.026403786 -5.476551e-08)
(-1.4382077e-06 -0.026379003 -5.5823987e-08)
(-1.064777e-06 0.029475066 -3.788817e-08)
(-5.6819728e-07 0.029501873 -3.8903787e-08)
(-8.6108035e-07 0.029500775 -3.853606e-08)
(-5.9368159e-07 0.029501927 -3.8642667e-08)
(-5.5331565e-07 0.029501092 -3.8587743e-08)
(-4.7650658e-07 0.029501846 -3.8625988e-08)
(-2.8450434e-07 0.029501358 -3.860476e-08)
(-3.0727741e-07 0.029501765 -3.8622352e-08)
(-6.5746769e-08 0.029501547 -3.8613238e-08)
(-1.2554709e-07 0.029501674 -3.8618421e-08)
(1.2554677e-07 0.029501674 -3.8618733e-08)
(6.5745765e-08 0.029501547 -3.8613461e-08)
(3.0727876e-07 0.029501765 -3.8622153e-08)
(2.8450349e-07 0.029501358 -3.8605283e-08)
(4.765071e-07 0.029501846 -3.8626822e-08)
(5.5331569e-07 0.029501092 -3.8587307e-08)
(5.9368082e-07 0.029501927 -3.8643996e-08)
(8.6108151e-07 0.029500775 -3.8536474e-08)
(5.6819777e-07 0.029501873 -3.8904193e-08)
(1.0647771e-06 0.029475066 -3.7888514e-08)
(3.2182614e-06 -0.038244961 -6.773843e-07)
(7.0921634e-07 -0.038282355 -6.7684593e-07)
(1.0589992e-06 -0.038281545 -6.7700089e-07)
(9.66019e-07 -0.038282348 -6.7701882e-07)
(3.078019e-07 -0.038281654 -6.7698771e-07)
(8.1890591e-07 -0.038282216 -6.7701354e-07)
(-1.5174781e-08 -0.038281778 -6.7699465e-07)
(5.9905268e-07 -0.038282096 -6.7700846e-07)
(-2.1368366e-07 -0.038281892 -6.7699718e-07)
(3.9533156e-07 -0.038281994 -6.7700456e-07)
(-3.9533303e-07 -0.038281994 -6.7700054e-07)
(2.1368398e-07 -0.038281892 -6.770007e-07)
(-5.9905093e-07 -0.038282096 -6.7700777e-07)
(1.5176156e-08 -0.038281778 -6.7699619e-07)
(-8.1890556e-07 -0.038282216 -6.7701266e-07)
(-3.078018e-07 -0.038281654 -6.769867e-07)
(-9.6602128e-07 -0.038282348 -6.7701773e-07)
(-1.0589987e-06 -0.038281545 -6.7700043e-07)
(-7.0921816e-07 -0.038282355 -6.7684581e-07)
(-3.2182616e-06 -0.038244961 -6.7738218e-07)
(-2.7632164e-06 0.043879405 4.9591814e-07)
(-7.438226e-07 0.04392607 4.9515724e-07)
(-1.1531541e-06 0.043921933 4.9538448e-07)
(-1.0102124e-06 0.043924698 4.9538006e-07)
(-5.0622034e-07 0.04392267 4.9536031e-07)
(-8.7275073e-07 0.043924072 4.9538757e-07)
(-1.5667402e-07 0.043923075 4.953687e-07)
(-6.2237795e-07 0.043923748 4.9538484e-07)
(1.0726266e-07 0.043923333 4.9537534e-07)
(-3.598553e-07 0.043923533 4.9538082e-07)
(3.5985594e-07 0.043923533 4.9538059e-07)
(-1.0726158e-07 0.043923333 4.9537554e-07)
(6.2237798e-07 0.043923748 4.9538506e-07)
(1.566738e-07 0.043923075 4.9536918e-07)
(8.7274949e-07 0.043924072 4.9538824e-07)
(5.0622017e-07 0.04392267 4.9536095e-07)
(1.0102117e-06 0.043924698 4.9537881e-07)
(1.1531542e-06 0.043921933 4.9538461e-07)
(7.4382338e-07 0.04392607 4.9515757e-07)
(2.7632171e-06 0.043879405 4.9591816e-07)
(-1.5560654e-06 -0.055533418 -1.5377544e-05)
(3.5695574e-06 -0.055594095 -1.541149e-05)
(-9.1200924e-07 -0.055590172 -1.5404922e-05)
(2.5396619e-06 -0.055592969 -1.5406624e-05)
(-6.120439e-07 -0.055590863 -1.5405881e-05)
(1.78508e-06 -0.055592358 -1.5406247e-05)
(-5.3955235e-07 -0.055591252 -1.5406015e-05)
(1.2376315e-06 -0.055591991 -1.540616e-05)
(-6.2854514e-07 -0.055591512 -1.5406071e-05)
(8.5945644e-07 -0.055591735 -1.5406114e-05)
(-8.5945719e-07 -0.055591735 -1.5406115e-05)
(6.2854461e-07 -0.055591512 -1.5406071e-05)
(-1.2376308e-06 -0.055591991 -1.5406163e-05)
(5.3955268e-07 -0.055591252 -1.5406014e-05)
(-1.7850779e-06 -0.055592358 -1.5406246e-05)
(6.1204442e-07 -0.055590863 -1.5405881e-05)
(-2.5396614e-06 -0.055592969 -1.5406621e-05)
(9.1201026e-07 -0.055590172 -1.5404925e-05)
(-3.5695588e-06 -0.055594095 -1.541149e-05)
(1.5560649e-06 -0.055533418 -1.5377541e-05)
(-7.7174625e-06 0.0084374898 1.5069271e-05)
(-7.081586e-07 0.0084417847 1.5085004e-05)
(-1.1979362e-06 0.0084433816 1.5087889e-05)
(-2.7788963e-07 0.0084434621 1.508787e-05)
(-3.838641e-07 0.0084436134 1.5088097e-05)
(-1.2361921e-07 0.0084437519 1.5088221e-05)
(-1.8763393e-07 0.0084437345 1.5088244e-05)
(-3.5454428e-08 0.0084438315 1.5088327e-05)
(-9.727621e-08 0.0084438067 1.5088326e-05)
(3.1321423e-08 0.0084438405 1.5088353e-05)
(-3.1321974e-08 0.0084438405 1.5088353e-05)
(9.727572e-08 0.0084438067 1.5088326e-05)
(3.5454e-08 0.0084438315 1.5088326e-05)
(1.8763155e-07 0.0084437344 1.5088245e-05)
(1.2362088e-07 0.0084437519 1.5088221e-05)
(3.8386416e-07 0.0084436134 1.5088097e-05)
(2.778904e-07 0.0084434621 1.508787e-05)
(1.1979368e-06 0.0084433816 1.5087889e-05)
(7.0815878e-07 0.0084417847 1.5085004e-05)
(7.7174623e-06 0.0084374898 1.506927e-05)
(8.5090751e-07 -0.012832167 -1.2192143e-06)
(-2.9297123e-07 -0.012844586 -1.2212076e-06)
(-3.7560686e-07 -0.012843541 -1.2209206e-06)
(-1.6559454e-07 -0.012843715 -1.2210484e-06)
(-2.4252996e-07 -0.012843631 -1.2209865e-06)
(-6.4850272e-08 -0.012843767 -1.2210279e-06)
(-1.4907751e-07 -0.012843726 -1.2210044e-06)
(-2.1088641e-10 -0.012843818 -1.2210257e-06)
(-9.3154855e-08 -0.012843792 -1.2210153e-06)
(4.7912971e-08 -0.012843824 -1.2210222e-06)
(-4.7913324e-08 -0.012843824 -1.2210225e-06)
(9.3154328e-08 -0.012843792 -1.2210152e-06)
(2.1055329e-10 -0.012843818 -1.2210258e-06)
(1.490769e-07 -0.012843726 -1.2210045e-06)
(6.4850182e-08 -0.012843767 -1.2210282e-06)
(2.4252987e-07 -0.012843631 -1.2209864e-06)
(1.6559519e-07 -0.012843715 -1.2210484e-06)
(3.7560676e-07 -0.012843541 -1.2209205e-06)
(2.9297207e-07 -0.012844586 -1.2212074e-06)
(-8.5090754e-07 -0.012832167 -1.2192146e-06)
(-1.3987676e-07 0.012796265 6.2072718e-07)
(-6.0745103e-07 0.012805051 6.2182198e-07)
(-8.3691283e-07 0.012805688 6.2193341e-07)
(-3.5121705e-07 0.01280589 6.2177776e-07)
(-4.3926586e-07 0.012805987 6.2177855e-07)
(-1.8942709e-07 0.012806227 6.2171575e-07)
(-2.2428884e-07 0.012806175 6.2173514e-07)
(-7.9560166e-08 0.012806338 6.2170135e-07)
(-1.0186905e-07 0.012806289 6.2171443e-07)
(1.0240907e-08 0.012806346 6.2170376e-07)
(-1.0241766e-08 0.012806346 6.217036e-07)
(1.0186857e-07 0.012806289 6.2171417e-07)
(7.9560311e-08 0.012806338 6.2170105e-07)
(2.2428846e-07 0.012806175 6.2173496e-07)
(1.8942671e-07 0.012806227 6.217156e-07)
(4.3926564e-07 0.012805987 6.2177865e-07)
(3.5121774e-07 0.01280589 6.2177781e-07)
(8.3691255e-07 0.012805688 6.2193364e-07)
(6.0745213e-07 0.012805051 6.2182196e-07)
(1.3987648e-07 0.012796265 6.2072659e-07)
(9.8549474e-07 -0.018214334 -1.3953836e-06)
(8.6520532e-08 -0.018231248 -1.3975818e-06)
(2.6216435e-07 -0.018230671 -1.3976386e-06)
(6.612495e-08 -0.018230896 -1.3976294e-06)
(1.6308644e-08 -0.018230697 -1.397579e-06)
(8.1477137e-08 -0.018230866 -1.3975792e-06)
(-6.2425828e-08 -0.018230775 -1.3975582e-06)
(9.007718e-08 -0.018230885 -1.3975594e-06)
(-8.6367859e-08 -0.018230842 -1.3975549e-06)
(9.1793195e-08 -0.01823088 -1.3975554e-06)
(-9.1792999e-08 -0.01823088 -1.3975551e-06)
(8.6367658e-08 -0.018230842 -1.3975551e-06)
(-9.0077381e-08 -0.018230885 -1.3975596e-06)
(6.2425512e-08 -0.018230775 -1.397558e-06)
(-8.1477638e-08 -0.018230866 -1.397579e-06)
(-1.6307552e-08 -0.018230697 -1.3975792e-06)