/*--------------------------------*- C++ -*----------------------------------*\
  =========                 |
  \\      /  F ield         | OpenFOAM: The Open Source CFD Toolbox
   \\    /   O peration     | Website:  https://openfoam.org
    \\  /    A nd           | Version:  8
     \\/     M anipulation  |
\*---------------------------------------------------------------------------*/
FoamFile
{
    version     2.0;
    format      ascii;
    class       volScalarField;
    location    "0.999971";
    object      alphat;
}
// * * * * * * * * * * * * * * * * * * * * * * * * * * * * * * * * * * * * * //

dimensions      [1 -1 -1 0 0 0 0];

internalField   nonuniform List<scalar> 
6800
(
0.0843862
0.119799
0.128957
0.117703
0.0939374
0.0482648
0.028925
0.0204712
0.0155063
0.0155733
0.0950073
0.108811
0.0990144
0.0648147
0.0367118
0.0253254
0.0205792
0.0177028
0.0157899
0.0181991
0.0900931
0.0750536
0.0573307
0.0351324
0.0273922
0.0238016
0.0201078
0.0179345
0.0181187
0.0142677
0.0642484
0.0459524
0.0350779
0.0288798
0.0256133
0.0233899
0.0194843
0.0163615
0.0122695
0.0112506
0.0181724
0.0309242
0.0300566
0.0295473
0.0259082
0.0185311
0.0141765
0.0134823
0.012248
0.0112923
0.0145714
0.0282761
0.028699
0.0290371
0.0202216
0.0163463
0.0153725
0.0137463
0.0112691
0.00973086
0.0154669
0.0291153
0.0291898
0.0252081
0.0196445
0.0163941
0.0133258
0.0109825
0.010014
0.00943288
0.015783
0.0286958
0.0290039
0.0232582
0.0168246
0.0147596
0.01264
0.0115693
0.00990126
0.00928566
0.0161841
0.031198
0.0295041
0.0198194
0.017126
0.0146911
0.0123173
0.00993834
0.00906898
0.00886419
0.0163309
0.0321166
0.0256594
0.0202541
0.0156345
0.0135264
0.011302
0.0101495
0.0092633
0.00886961
0.0899031
0.289737
0.426276
0.497805
0.536911
0.556824
0.568425
0.577789
0.58719
0.59726
0.0879768
0.283017
0.416165
0.485608
0.522879
0.540069
0.549017
0.555435
0.561543
0.568476
0.0845072
0.26947
0.395433
0.461792
0.494092
0.506615
0.510233
0.510605
0.510725
0.513077
0.0797571
0.250632
0.36676
0.426813
0.451707
0.457051
0.452942
0.44463
0.435884
0.431018
0.0742176
0.229239
0.331669
0.38109
0.396184
0.392594
0.37952
0.361696
0.34313
0.324435
0.0685613
0.207051
0.293293
0.326833
0.327209
0.311776
0.292588
0.273161
0.259013
0.223827
0.0638009
0.189625
0.251787
0.259732
0.245122
0.22633
0.214003
0.200358
0.188137
0.178931
0.0609111
0.171892
0.199267
0.192976
0.179886
0.171506
0.160576
0.166401
0.159232
0.126719
0.062475
0.147271
0.157797
0.155995
0.145142
0.1491
0.14077
0.123937
0.0964689
0.0457067
0.0670788
0.129484
0.137055
0.131674
0.131011
0.116523
0.0813621
0.0451829
0.0278602
0.0170523
0.612448
0.632666
0.651685
0.669789
0.686845
0.702863
0.71777
0.731516
0.744112
0.755647
0.766271
0.776
0.784843
0.792754
0.799697
0.805654
0.810679
0.814719
0.81777
0.819906
0.821116
0.821798
0.821547
0.820657
0.819243
0.817378
0.815103
0.812444
0.809458
0.806207
0.802741
0.799112
0.795363
0.791513
0.787558
0.783508
0.779389
0.775215
0.771
0.766754
0.762486
0.758208
0.753927
0.749656
0.745403
0.741176
0.736982
0.732827
0.728714
0.724646
0.720626
0.716656
0.712736
0.708869
0.705057
0.701301
0.697602
0.69396
0.690377
0.686855
0.683395
0.679998
0.676666
0.6734
0.6702
0.667066
0.663998
0.660995
0.658057
0.65518
0.652363
0.649604
0.6469
0.644249
0.641649
0.639098
0.636594
0.634136
0.631723
0.629355
0.627031
0.624751
0.622514
0.620322
0.618173
0.61607
0.61401
0.611999
0.610025
0.608112
0.606216
0.604412
0.602571
0.600906
0.59907
0.597594
0.595714
0.594358
0.59288
0.590902
0.581426
0.602097
0.621066
0.639186
0.656439
0.672684
0.687823
0.701756
0.714449
0.725978
0.736598
0.746273
0.755085
0.763
0.769996
0.775853
0.780741
0.784628
0.787513
0.789422
0.790842
0.791325
0.791111
0.790318
0.7891
0.787506
0.78555
0.783218
0.780592
0.777743
0.774709
0.771549
0.768258
0.764851
0.761343
0.757754
0.754098
0.750388
0.746636
0.74285
0.739041
0.735218
0.731392
0.727573
0.72377
0.719989
0.716237
0.712518
0.708833
0.705184
0.701573
0.698001
0.694471
0.690984
0.687544
0.684152
0.680808
0.677514
0.674271
0.671082
0.667948
0.664871
0.661852
0.658891
0.655988
0.653144
0.650358
0.647629
0.644956
0.642337
0.639769
0.637252
0.634782
0.632358
0.629978
0.62764
0.625345
0.62309
0.620876
0.618701
0.616566
0.614471
0.612416
0.610401
0.608426
0.606493
0.604597
0.602748
0.600931
0.599172
0.597423
0.595766
0.594062
0.592536
0.590828
0.589481
0.587727
0.586471
0.585159
0.583268
0.526313
0.550118
0.571343
0.591404
0.610423
0.628333
0.645013
0.6603
0.674126
0.686665
0.697961
0.708051
0.717099
0.725193
0.732283
0.737811
0.742237
0.745686
0.747833
0.749635
0.750315
0.750281
0.749615
0.748439
0.74701
0.745306
0.743301
0.740881
0.738261
0.73552
0.732669
0.729707
0.726641
0.723513
0.720335
0.717118
0.713869
0.710593
0.707298
0.703987
0.70067
0.697357
0.694053
0.690772
0.687521
0.684301
0.681116
0.677969
0.674854
0.671768
0.668716
0.665699
0.662718
0.659774
0.656871
0.654011
0.651193
0.648416
0.645685
0.643001
0.640368
0.637784
0.635251
0.632768
0.630335
0.627952
0.625617
0.623329
0.621086
0.618886
0.616727
0.614608
0.612526
0.610479
0.608467
0.60649
0.604547
0.602638
0.600761
0.598917
0.597107
0.59533
0.593586
0.591876
0.5902
0.58856
0.58695
0.585382
0.583836
0.582345
0.580852
0.579452
0.577986
0.576706
0.575221
0.574099
0.57257
0.571487
0.570482
0.568706
0.450787
0.481555
0.508133
0.532289
0.554711
0.57568
0.595101
0.612695
0.62832
0.642196
0.654428
0.665009
0.674181
0.682268
0.688789
0.692716
0.695705
0.697309
0.698324
0.698049
0.697013
0.695357
0.693219
0.690735
0.688413
0.685987
0.68339
0.680951
0.678588
0.676223
0.67383
0.671409
0.668978
0.666517
0.664025
0.6615
0.658949
0.656373
0.653782
0.651175
0.648565
0.645961
0.643371
0.640808
0.638277
0.63578
0.633319
0.630892
0.628506
0.626157
0.623843
0.621557
0.619298
0.617063
0.61486
0.612694
0.610557
0.60845
0.606381
0.604352
0.602365
0.60042
0.598516
0.596653
0.594829
0.593044
0.591297
0.589584
0.587904
0.586254
0.584632
0.583035
0.581464
0.579914
0.578393
0.576896
0.575423
0.573973
0.572546
0.571142
0.569763
0.568409
0.567079
0.565776
0.564497
0.563248
0.562019
0.560826
0.559641
0.558509
0.557356
0.556299
0.555152
0.554198
0.553013
0.552195
0.550959
0.550133
0.549474
0.547876
0.356506
0.396096
0.429346
0.458346
0.484277
0.50736
0.528153
0.54636
0.561702
0.574785
0.586209
0.596114
0.604949
0.613081
0.620016
0.624709
0.629691
0.633197
0.635282
0.636431
0.636727
0.63632
0.635328
0.63394
0.631592
0.628776
0.625758
0.622679
0.619574
0.616544
0.61361
0.610782
0.608049
0.605406
0.602839
0.60034
0.597908
0.595536
0.593231
0.590976
0.588782
0.586654
0.584585
0.582595
0.580682
0.578838
0.57706
0.575342
0.57368
0.572059
0.570479
0.568924
0.56739
0.565872
0.56438
0.562926
0.561495
0.560089
0.558718
0.557389
0.556099
0.554848
0.553633
0.552453
0.551306
0.55019
0.549103
0.54804
0.546999
0.545975
0.544967
0.543971
0.542985
0.54201
0.541035
0.540066
0.539106
0.538159
0.537225
0.536308
0.535407
0.534526
0.533662
0.53282
0.531993
0.531191
0.530398
0.529637
0.528869
0.528155
0.527398
0.526744
0.525971
0.525403
0.524574
0.524115
0.523226
0.522721
0.522436
0.52107
0.259071
0.299821
0.335039
0.365719
0.393138
0.417573
0.439823
0.460059
0.478259
0.494579
0.509406
0.521793
0.531815
0.539032
0.544377
0.548134
0.549518
0.54967
0.548668
0.546682
0.543935
0.540673
0.537101
0.533428
0.529871
0.526571
0.52351
0.520726
0.518183
0.515899
0.513827
0.511962
0.510258
0.508699
0.507267
0.505937
0.504725
0.503606
0.502606
0.501685
0.500852
0.50012
0.499451
0.498875
0.498394
0.497978
0.49763
0.497335
0.497085
0.496849
0.496631
0.496392
0.496129
0.495841
0.495537
0.495256
0.494984
0.494714
0.494463
0.494243
0.494048
0.493879
0.49373
0.4936
0.493488
0.493386
0.493296
0.493207
0.493116
0.493018
0.492909
0.492787
0.492649
0.492499
0.492338
0.492167
0.491987
0.491802
0.491613
0.491426
0.491238
0.491054
0.490872
0.490698
0.490521
0.490355
0.490176
0.490019
0.48983
0.48969
0.489478
0.48937
0.489109
0.489054
0.488712
0.488726
0.488298
0.48823
0.48839
0.487405
0.197381
0.222408
0.248643
0.274397
0.299034
0.321147
0.341498
0.359363
0.3743
0.387235
0.398443
0.406969
0.414095
0.419873
0.422749
0.42407
0.423875
0.422216
0.419524
0.416003
0.411909
0.407544
0.403146
0.398958
0.3951
0.391763
0.38892
0.386674
0.384899
0.383639
0.382743
0.382217
0.381951
0.381925
0.382104
0.382431
0.382961
0.383626
0.384498
0.3855
0.386619
0.387898
0.389238
0.390669
0.392224
0.393812
0.395467
0.397155
0.398846
0.400487
0.402082
0.40355
0.40492
0.406215
0.407434
0.408669
0.409925
0.41118
0.412437
0.413709
0.414992
0.416288
0.417589
0.418886
0.420178
0.421449
0.422703
0.423922
0.425097
0.426226
0.427303
0.428325
0.429291
0.430209
0.43108
0.431915
0.432715
0.43349
0.434238
0.434972
0.435685
0.436385
0.437069
0.437741
0.438383
0.439019
0.439611
0.440213
0.440751
0.441338
0.441818
0.442401
0.44279
0.443382
0.443654
0.444268
0.444414
0.444913
0.44557
0.445196
0.134275
0.14716
0.160799
0.174483
0.189334
0.20361
0.217764
0.230592
0.242142
0.251986
0.259618
0.266442
0.270999
0.273126
0.27323
0.271694
0.268765
0.264222
0.258922
0.253169
0.247268
0.241584
0.236313
0.231787
0.227934
0.225081
0.22292
0.221755
0.22116
0.221373
0.222015
0.223219
0.224736
0.226643
0.228786
0.231138
0.233809
0.236672
0.239871
0.243313
0.246871
0.25069
0.254579
0.258483
0.262587
0.266548
0.270666
0.274702
0.278549
0.28217
0.285553
0.288592
0.291607
0.294645
0.297654
0.300769
0.303943
0.307158
0.310399
0.313668
0.31693
0.320183
0.32341
0.326586
0.329721
0.332775
0.335759
0.338623
0.341369
0.344016
0.346533
0.348927
0.351214
0.353417
0.355537
0.3576
0.359597
0.361558
0.363461
0.365344
0.367172
0.368977
0.370748
0.372445
0.374087
0.375683
0.377213
0.378748
0.38018
0.381675
0.383021
0.384457
0.385654
0.387039
0.388064
0.389412
0.390241
0.391461
0.392603
0.393228
0.0483602
0.0542364
0.0611285
0.067998
0.0753839
0.0820487
0.0883989
0.0938095
0.0983317
0.102222
0.104521
0.105854
0.105738
0.104716
0.102552
0.0995988
0.0961321
0.0919812
0.0877769
0.0836411
0.0797076
0.0761872
0.0730539
0.0705474
0.068419
0.0670097
0.0658998
0.0654839
0.0652882
0.0656702
0.0662328
0.0672527
0.0683708
0.0700378
0.0714082
0.0733124
0.0754354
0.078059
0.0809342
0.0842077
0.0876524
0.0915544
0.095672
0.0997778
0.104493
0.109049
0.114246
0.119124
0.124816
0.130909
0.13738
0.144194
0.150956
0.157634
0.164093
0.170485
0.1768
0.183072
0.189187
0.195222
0.201125
0.206897
0.212547
0.217991
0.223341
0.228434
0.233269
0.237693
0.24204
0.246303
0.250125
0.253838
0.257506
0.261125
0.264667
0.268167
0.271585
0.274979
0.278273
0.28157
0.284729
0.287925
0.290969
0.293663
0.296501
0.299013
0.301792
0.304486
0.306965
0.309611
0.312003
0.314423
0.316591
0.318886
0.32079
0.322986
0.324566
0.326663
0.328218
0.330247
0.0179984
0.0189142
0.0204031
0.0216017
0.0227211
0.02405
0.0250357
0.0261726
0.0269428
0.027448
0.0275482
0.0274695
0.0269819
0.0262835
0.0253221
0.0241877
0.0229885
0.0217213
0.0204809
0.0193188
0.0182561
0.0173326
0.0165134
0.0158628
0.0152829
0.0148782
0.0145084
0.0143006
0.0141072
0.014047
0.0139992
0.0140581
0.0141276
0.0142998
0.01449
0.0147446
0.015059
0.0154502
0.0158721
0.0164574
0.0172645
0.0180839
0.0191301
0.0201666
0.0215067
0.0228527
0.0245063
0.0262265
0.0282069
0.0304148
0.0328485
0.0356529
0.0386703
0.0420973
0.0456813
0.0496776
0.0538501
0.0584829
0.0632719
0.0684384
0.0737817
0.0793536
0.0851327
0.0909586
0.0969787
0.10296
0.109233
0.115637
0.122107
0.128607
0.134923
0.141081
0.147033
0.152855
0.158483
0.164001
0.169332
0.174572
0.179626
0.184602
0.189403
0.194108
0.198567
0.202832
0.206859
0.210748
0.214491
0.218169
0.221714
0.225268
0.228606
0.231981
0.235474
0.238537
0.241567
0.244407
0.246839
0.249835
0.251851
0.255458
0.0141788
0.0136326
0.0132242
0.0131811
0.0131317
0.0130547
0.0129743
0.0128905
0.0127783
0.0126484
0.0124755
0.0122843
0.012055
0.0118109
0.0115486
0.0112829
0.0110213
0.0107714
0.0105403
0.0103303
0.0101449
0.00998306
0.00984079
0.00972401
0.0096165
0.00953395
0.00945199
0.00939125
0.00932745
0.00927799
0.00922719
0.00918244
0.00914103
0.00909851
0.00906459
0.00902375
0.00899674
0.00896018
0.00894075
0.00890573
0.00889866
0.00887056
0.00888248
0.00886438
0.00890468
0.0089101
0.00893944
0.00900352
0.00906815
0.0091859
0.00929676
0.00949436
0.00968084
0.00999662
0.0102978
0.0107751
0.0112441
0.0119422
0.0126583
0.0136357
0.0146789
0.0159885
0.0174233
0.0191207
0.0209712
0.023124
0.0253933
0.0280598
0.0308211
0.0340269
0.0373082
0.0410373
0.0447977
0.0490111
0.0532166
0.0578703
0.0624718
0.0674972
0.0724212
0.077711
0.082876
0.0883007
0.0936778
0.0993373
0.104822
0.110488
0.115827
0.121231
0.126252
0.131365
0.136017
0.140813
0.145099
0.149658
0.153447
0.157805
0.161004
0.165202
0.168327
0.172672
0.011947
0.011951
0.0119347
0.0118914
0.0118467
0.011768
0.0116615
0.0115304
0.0113748
0.0112059
0.0110229
0.0108384
0.0106536
0.0104791
0.0103145
0.0101685
0.0100387
0.00992787
0.00983102
0.00974679
0.00967308
0.00960619
0.00954588
0.00948945
0.00943359
0.00938371
0.00932904
0.00928255
0.00922917
0.00918355
0.00913256
0.00908634
0.00903865
0.00899219
0.00894746
0.00890248
0.00886043
0.00881765
0.00877794
0.00874132
0.00870337
0.00866991
0.00863603
0.00860488
0.00857492
0.00854706
0.00852053
0.00849435
0.00847245
0.00844824
0.00843084
0.00840878
0.00839625
0.0083766
0.00836956
0.00835456
0.00835408
0.00835282
0.00836057
0.00837709
0.00839846
0.00843508
0.00847499
0.00853664
0.00860512
0.0087102
0.00881937
0.00899649
0.00916539
0.00945147
0.0097045
0.0101505
0.0105179
0.0111851
0.0117028
0.0126675
0.0133582
0.0146927
0.0156698
0.0173944
0.0187279
0.0208764
0.0226063
0.0252196
0.0273867
0.0304743
0.0330681
0.0366007
0.0395491
0.0434619
0.0466594
0.0508728
0.0541781
0.058637
0.0618837
0.0665364
0.0695959
0.074152
0.0783275
0.0823997
0.0102451
0.0102944
0.0103059
0.0103129
0.0103192
0.0103049
0.0102777
0.0102399
0.010193
0.0101386
0.0100828
0.0100267
0.00997568
0.00992896
0.00988922
0.00985514
0.0098194
0.0097833
0.00974243
0.00969789
0.00964896
0.00959504
0.00953414
0.00946612
0.00939441
0.00932361
0.00924906
0.00918121
0.00910952
0.00904574
0.00898005
0.0089202
0.00886169
0.00880611
0.00875384
0.00870373
0.00865655
0.00861119
0.00856932
0.00853066
0.00849237
0.00845945
0.00842371
0.00839501
0.00836293
0.00833813
0.00830833
0.00828692
0.00825956
0.00824053
0.00821547
0.00819841
0.00817539
0.00815965
0.00813854
0.00812359
0.00810423
0.00808589
0.00806507
0.00804219
0.00802267
0.00800218
0.00798832
0.00796935
0.00796103
0.00794365
0.00794059
0.00792563
0.00792766
0.00791636
0.00792421
0.00791698
0.00793432
0.0079306
0.00796318
0.00797831
0.00799833
0.00805353
0.00808763
0.00817209
0.00822921
0.00836298
0.00845307
0.00866047
0.00879705
0.00910878
0.00931146
0.00976165
0.010051
0.0106779
0.0110719
0.0119119
0.0124211
0.0135171
0.0141256
0.0154808
0.0162464
0.0176389
0.0194643
0.0205768
0.0093365
0.00937993
0.00938853
0.00939502
0.00940457
0.00940314
0.00939417
0.00937939
0.00935859
0.00933401
0.00930613
0.00927253
0.0092364
0.00919328
0.00914822
0.00909352
0.00903815
0.00897207
0.00890776
0.00883466
0.00876551
0.00869098
0.00862741
0.00856771
0.00851614
0.00846841
0.00842517
0.00838558
0.00834815
0.00831348
0.0082804
0.00824839
0.00821854
0.00818813
0.00816068
0.00813173
0.00810591
0.00807807
0.00805405
0.00802737
0.00800513
0.00797925
0.0079572
0.00793293
0.00791338
0.00789126
0.00787293
0.00785279
0.00783636
0.0078189
0.00780418
0.00778875
0.0077752
0.0077612
0.00774846
0.00773559
0.00772363
0.00771188
0.00770094
0.00769037
0.00768057
0.0076711
0.00766228
0.00765376
0.00764569
0.00763808
0.00763058
0.00762376
0.0076167
0.0076106
0.00760376
0.00759862
0.00759146
0.00758766
0.00758004
0.00757797
0.00757019
0.00756938
0.00756275
0.00756224
0.00755878
0.00755745
0.00755894
0.00755716
0.00756378
0.00756425
0.00757539
0.00758065
0.00759822
0.00760922
0.0076368
0.0076682
0.00768893
0.0077402
0.00777101
0.00784358
0.0078838
0.00797956
0.00801419
0.00824704
0.0088461
0.00886319
0.00887141
0.00888695
0.00889485
0.00889825
0.00889814
0.00889471
0.00888644
0.00887455
0.00885789
0.00883798
0.0088138
0.00878625
0.00875551
0.00872116
0.00868553
0.00864639
0.00860817
0.00856707
0.00852866
0.00848831
0.00845263
0.00841373
0.00838033
0.00834427
0.00831225
0.00827866
0.00824736
0.00821494
0.00818436
0.00815196
0.00812261
0.00809002
0.00806217
0.00803037
0.00800319
0.00797301
0.00794651
0.00791562
0.0078909
0.00786241
0.00783831
0.00781112
0.00779091
0.00776611
0.00774757
0.00772497
0.00770875
0.00768842
0.00767429
0.00765588
0.00764326
0.00762624
0.00761464
0.00759871
0.00758796
0.00757315
0.00756337
0.00754967
0.00754095
0.00752831
0.00752059
0.00750885
0.00750194
0.00749093
0.00748463
0.00747421
0.00746846
0.00745848
0.00745319
0.00744363
0.00743878
0.0074296
0.00742516
0.00741631
0.00741225
0.00740375
0.00740008
0.00739179
0.00738856
0.00738043
0.00737753
0.00736952
0.0073668
0.00735898
0.00735625
0.0073487
0.00734589
0.00733872
0.00733521
0.00732839
0.00732518
0.00731927
0.00731666
0.00731168
0.00731027
0.00730439
0.00731469
0.00729302
0.0084305
0.00844833
0.00845446
0.00848577
0.0084967
0.00850276
0.0085056
0.00850458
0.00849916
0.00848959
0.00847598
0.00845834
0.00843731
0.00841231
0.00838466
0.00835303
0.00831981
0.00828255
0.00824558
0.00820414
0.00816579
0.00812273
0.00808448
0.00804241
0.00800575
0.00796589
0.007931
0.00789393
0.00786062
0.00782608
0.00779453
0.00776176
0.00773266
0.00770135
0.00767495
0.00764595
0.00762126
0.00759507
0.00757372
0.00755052
0.00753333
0.00751236
0.00749642
0.00747803
0.00746534
0.00744841
0.00743708
0.00742168
0.00741161
0.00739743
0.00738859
0.00737531
0.00736733
0.00735483
0.00734758
0.00733577
0.00732931
0.00731823
0.00731262
0.00730234
0.00729759
0.00728804
0.00728395
0.00727491
0.00727133
0.00726267
0.00725951
0.00725112
0.0072484
0.00724024
0.00723787
0.00722989
0.00722785
0.00722003
0.00721821
0.00721052
0.0072089
0.0072013
0.00719981
0.00719232
0.00719094
0.00718359
0.00718226
0.00717508
0.00717374
0.00716676
0.00716535
0.00715861
0.0071571
0.00715062
0.00714899
0.00714282
0.00714104
0.00713522
0.0071333
0.00712786
0.00712577
0.00712072
0.00711822
0.00711251
0.00806488
0.00808894
0.00810761
0.00812853
0.00814199
0.0081494
0.00815545
0.00815652
0.0081549
0.00814757
0.00813739
0.00812292
0.00810614
0.00808577
0.00806386
0.00803817
0.00801221
0.00798239
0.00795351
0.00792124
0.00789107
0.00785806
0.00782838
0.00779661
0.00776851
0.00773871
0.0077136
0.00768653
0.00766385
0.00763891
0.00761797
0.00759439
0.00757526
0.00755268
0.00753556
0.00751428
0.00749831
0.00747964
0.00746365
0.0074465
0.0074331
0.00741562
0.00740297
0.00738733
0.00737625
0.00736103
0.00735095
0.00733673
0.00732729
0.00731373
0.00730525
0.00729239
0.00728464
0.00727248
0.00726542
0.00725389
0.00724751
0.00723667
0.00723103
0.00722092
0.00721601
0.00720649
0.00720214
0.00719303
0.00718909
0.00718027
0.00717674
0.00716817
0.00716498
0.00715664
0.0071538
0.00714557
0.00714302
0.00713494
0.00713263
0.00712464
0.00712249
0.00711459
0.00711256
0.00710479
0.00710284
0.00709526
0.00709333
0.00708597
0.00708403
0.00707689
0.00707487
0.00706797
0.00706582
0.00705918
0.00705688
0.00705055
0.0070481
0.00704211
0.00703954
0.00703381
0.00703165
0.00702339
0.0070364
0.00699932
0.00777448
0.00779595
0.00781729
0.00783398
0.00784779
0.0078555
0.00786269
0.00786445
0.00786548
0.00786038
0.00785473
0.00784352
0.00783214
0.00781635
0.00780041
0.00778078
0.00776095
0.00773792
0.00771488
0.00768891
0.00766396
0.00763662
0.00761153
0.00758468
0.00756127
0.00753636
0.00751525
0.00749293
0.00747383
0.00745297
0.00743492
0.00741472
0.0073975
0.0073778
0.00736198
0.00734298
0.00732848
0.00731118
0.00729738
0.00728096
0.00727001
0.00725417
0.00724293
0.0072286
0.00721937
0.0072059
0.00719692
0.00718393
0.00717561
0.00716333
0.007156
0.0071444
0.0071377
0.00712676
0.00712077
0.00711053
0.00710524
0.00709566
0.00709111
0.00708222
0.00707838
0.00707006
0.00706674
0.00705883
0.00705594
0.00704833
0.00704583
0.00703849
0.00703639
0.00702924
0.00702741
0.00702039
0.00701883
0.00701191
0.00701052
0.00700363
0.00700233
0.00699548
0.00699421
0.00698745
0.00698619
0.00697956
0.00697827
0.00697182
0.00697043
0.00696417
0.00696264
0.0069566
0.00695488
0.0069491
0.00694719
0.00694171
0.00693964
0.00693451
0.00693229
0.00692754
0.00692523
0.00692078
0.00691892
0.00691205
0.00754698
0.00756811
0.0075863
0.00760187
0.0076152
0.00762301
0.00762981
0.00763248
0.00763468
0.0076325
0.00762946
0.00762236
0.00761471
0.00760363
0.00759259
0.00757802
0.00756385
0.00754598
0.00752851
0.00750763
0.00748789
0.00746561
0.0074458
0.00742373
0.00740535
0.00738498
0.00736857
0.00735011
0.00733546
0.00731795
0.00730444
0.00728729
0.00727439
0.00725784
0.0072455
0.00723012
0.00721863
0.00720498
0.007194
0.00718181
0.00717347
0.00716051
0.00715293
0.00714182
0.0071348
0.00712373
0.00711705
0.00710622
0.00709968
0.00708933
0.00708326
0.00707285
0.00706707
0.00705693
0.00705151
0.00704181
0.00703688
0.00702766
0.00702321
0.00701443
0.00701059
0.00700234
0.00699902
0.00699115
0.00698827
0.0069807
0.00697822
0.00697092
0.00696883
0.00696175
0.00696001
0.00695308
0.0069516
0.00694478
0.00694347
0.0069367
0.00693548
0.00692877
0.00692759
0.00692097
0.00691978
0.00691328
0.00691204
0.0069057
0.00690435
0.00689819
0.0068967
0.00689074
0.00688907
0.00688334
0.00688149
0.00687602
0.00687403
0.00686886
0.00686679
0.00686186
0.00686025
0.00685292
0.00686586
0.00683128
0.00737355
0.0073979
0.00741271
0.00742656
0.00743981
0.00744641
0.00745338
0.00745526
0.0074587
0.00745727
0.00745683
0.00745147
0.00744689
0.00743866
0.00743124
0.00742038
0.00741023
0.00739651
0.0073832
0.00736653
0.00735122
0.00733327
0.00731778
0.00729964
0.00728457
0.00726712
0.007253
0.00723714
0.00722448
0.00720931
0.00719721
0.00718226
0.00717099
0.00715653
0.00714636
0.00713281
0.00712369
0.00711153
0.00710312
0.00709245
0.00708577
0.00707484
0.00706815
0.00705847
0.00705302
0.0070431
0.00703759
0.00702785
0.00702255
0.00701338
0.00700845
0.00699916
0.00699454
0.00698578
0.00698153
0.00697295
0.00696888
0.00696046
0.00695658
0.00694832
0.0069447
0.00693662
0.00693329
0.00692552
0.00692259
0.00691517
0.00691265
0.00690555
0.00690341
0.00689659
0.0068948
0.00688822
0.00688671
0.00688031
0.00687901
0.00687273
0.00687155
0.00686536
0.00686422
0.00685814
0.00685702
0.00685106
0.00684992
0.00684412
0.0068429
0.00683726
0.00683592
0.00683046
0.00682895
0.00682369
0.006822
0.00681695
0.00681509
0.00681029
0.00680826
0.00680375
0.00680157
0.00679747
0.00679466
0.00679012
0.00724075
0.00726034
0.00727439
0.00728677
0.00730071
0.00730713
0.00731488
0.00731693
0.00732089
0.00732011
0.00732084
0.0073172
0.00731444
0.00730803
0.0073032
0.0072951
0.0072886
0.00727875
0.00726988
0.00725845
0.00724819
0.00723599
0.00722529
0.00721208
0.00720052
0.00718562
0.00717311
0.00715766
0.00714524
0.00713002
0.00711855
0.00710405
0.00709414
0.0070807
0.00707237
0.00706026
0.00705298
0.00704252
0.00703556
0.00702622
0.00702025
0.00701045
0.00700476
0.00699575
0.00699112
0.00698175
0.00697729
0.0069686
0.00696452
0.00695639
0.00695297
0.00694536
0.00694211
0.00693455
0.00693166
0.00692431
0.00692135
0.00691388
0.00691082
0.00690299
0.00689969
0.00689197
0.00688879
0.00688116
0.00687811
0.0068707
0.006868
0.00686095
0.00685858
0.00685188
0.00684982
0.00684343
0.00684164
0.00683549
0.00683389
0.0068279
0.00682642
0.00682051
0.0068191
0.00681327
0.00681192
0.00680619
0.0068049
0.0067993
0.00679802
0.00679256
0.00679126
0.00678598
0.0067846
0.00677951
0.006778
0.0067731
0.00677141
0.00676674
0.00676483
0.00676052
0.00675786
0.00675653
0.00673946
0.00676209
0.00714106
0.00715497
0.00716968
0.00718058
0.00719502
0.0072002
0.00720863
0.00721141
0.00721559
0.00721553
0.00721626
0.00721322
0.0072113
0.00720675
0.00720388
0.00719797
0.00719398
0.00718666
0.00718156
0.00717343
0.00716773
0.00715958
0.00715299
0.00714351
0.00713464
0.00712183
0.00711087
0.00709563
0.00708333
0.00706808
0.00705659
0.00704276
0.00703324
0.0070212
0.00701376
0.00700312
0.0069972
0.00698727
0.00698192
0.00697231
0.00696746
0.00695778
0.00695214
0.00694353
0.00693912
0.00693034
0.0069264
0.00691804
0.00691465
0.00690751
0.00690464
0.00689744
0.00689504
0.00688825
0.00688585
0.00687896
0.00687678
0.00687002
0.00686779
0.00686067
0.00685823
0.00685107
0.0068486
0.00684158
0.0068393
0.00683253
0.00683035
0.00682382
0.00682184
0.00681556
0.0068137
0.00680763
0.00680587
0.00679993
0.00679822
0.00679236
0.00679065
0.00678482
0.00678311
0.00677731
0.00677565
0.0067699
0.00676831
0.00676265
0.00676113
0.0067556
0.00675414
0.00674878
0.00674736
0.00674221
0.00674075
0.00673581
0.00673426
0.00672956
0.00672787
0.00672342
0.00672153
0.00671743
0.00671494
0.00671031
0.00706667
0.00708026
0.00708882
0.00710082
0.00711145
0.00711685
0.00712256
0.00712668
0.00713035
0.00713202
0.00713396
0.00713292
0.00713206
0.00712941
0.00712818
0.00712424
0.00712194
0.00711632
0.00711171
0.00710346
0.00709714
0.00708739
0.00708013
0.00706931
0.00706032
0.00704831
0.00703851
0.00702574
0.00701676
0.00700524
0.00699736
0.00698702
0.00698029
0.00697075
0.00696488
0.00695589
0.00695036
0.00694181
0.00693646
0.006928
0.00692344
0.00691445
0.00691042
0.0069025
0.00689815
0.00689035
0.00688653
0.00687865
0.00687571
0.00686819
0.00686546
0.00685858
0.00685604
0.00684904
0.00684694
0.00684038
0.00683839
0.00683209
0.00683052
0.00682427
0.0068229
0.00681688
0.00681573
0.00680996
0.00680897
0.00680336
0.00680231
0.00679669
0.00679548
0.0067898
0.00678846
0.0067827
0.00678119
0.00677522
0.00677343
0.00676738
0.00676536
0.00675923
0.00675711
0.00675097
0.00674883
0.00674275
0.00674067
0.00673475
0.00673275
0.00672705
0.00672519
0.00671977
0.00671802
0.00671286
0.00671117
0.00670627
0.00670457
0.00669992
0.00669819
0.00669382
0.00669202
0.00668798
0.00668585
0.00668143
0.00701491
0.00702631
0.00703458
0.00704529
0.0070537
0.00705718
0.00706441
0.00706812
0.00707029
0.00707254
0.0070741
0.00707298
0.00707328
0.00707162
0.00707173
0.00706916
0.00706822
0.00706323
0.00705844
0.00704929
0.0070413
0.00702981
0.00702049
0.00700829
0.00699911
0.00698772
0.00698047
0.00697117
0.00696549
0.00695744
0.00695225
0.00694381
0.00693834
0.00692928
0.00692372
0.00691421
0.00690883
0.00690019
0.00689471
0.006887
0.00688315
0.00687481
0.00687184
0.00686443
0.00686138
0.00685459
0.00685178
0.0068447
0.00684202
0.00683558
0.00683356
0.00682657
0.00682448
0.00681834
0.00681662
0.00681028
0.00680892
0.00680341
0.00680241
0.006797
0.00679646
0.00679118
0.00679088
0.00678575
0.00678538
0.00678024
0.00677963
0.00677427
0.00677342
0.00676778
0.00676669
0.00676103
0.00675974
0.00675392
0.00675242
0.00674659
0.00674495
0.00673899
0.00673714
0.00673124
0.00672915
0.00672343
0.00672128
0.00671564
0.00671346
0.00670801
0.00670579
0.00670062
0.00669838
0.00669338
0.00669114
0.00668636
0.00668412
0.00667963
0.00667744
0.00667321
0.00667155
0.0066651
0.00667716
0.00664497
0.0069758
0.00698788
0.00699571
0.00700788
0.00701674
0.00701476
0.0070228
0.00702335
0.00702883
0.00702999
0.00703184
0.00702886
0.00702777
0.00702402
0.00702336
0.00702015
0.00701874
0.00701316
0.00700816
0.00699899
0.00699046
0.00697889
0.00696932
0.00695758
0.00694905
0.0069388
0.00693234
0.00692416
0.00691952
0.00691245
0.0069081
0.00690098
0.00689621
0.00688884
0.00688377
0.00687639
0.00687138
0.00686376
0.00685973
0.00685218
0.0068482
0.00684143
0.00683852
0.00683232
0.00682973
0.00682377
0.00682145
0.00681499
0.00681367
0.00680784
0.00680589
0.00680053
0.00679904
0.00679276
0.00679145
0.00678555
0.00678433
0.00677882
0.00677789
0.00677249
0.00677195
0.00676643
0.00676578
0.00676002
0.0067594
0.00675352
0.0067526
0.00674661
0.00674553
0.00673948
0.00673842
0.0067326
0.00673164
0.00672611
0.00672532
0.00672014
0.00671936
0.0067144
0.00671363
0.00670879
0.00670795
0.00670315
0.00670218
0.00669751
0.00669635
0.00669164
0.00669032
0.00668562
0.00668403
0.00667933
0.00667753
0.00667278
0.00667075
0.00666603
0.00666388
0.00665934
0.00665706
0.00665268
0.00665083
0.00664483
0.00693988
0.00694678
0.00695291
0.00696678
0.00697267
0.00697372
0.0069829
0.00698012
0.00698408
0.00698547
0.00698895
0.00698625
0.00698545
0.00698064
0.00697861
0.00697307
0.00696967
0.00696319
0.00695833
0.00695038
0.00694413
0.00693531
0.00692899
0.00692035
0.00691426
0.00690596
0.00690059
0.00689273
0.00688822
0.00688089
0.00687684
0.00686986
0.00686599
0.00685923
0.00685551
0.00684867
0.00684513
0.00683826
0.00683478
0.00682848
0.00682573
0.00681992
0.00681726
0.0068114
0.00680944
0.0068039
0.00680177
0.00679579
0.00679431
0.00678847
0.00678697
0.00678093
0.0067791
0.0067732
0.0067714
0.00676522
0.00676325
0.0067571
0.00675558
0.00674936
0.00674779
0.00674142
0.00673996
0.00673359
0.00673219
0.00672598
0.00672468
0.00671855
0.00671738
0.0067114
0.00671042
0.00670478
0.00670408
0.00669878
0.00669827
0.00669336
0.00669305
0.00668837
0.00668816
0.0066837
0.00668344
0.00667914
0.00667876
0.00667446
0.00667386
0.00666951
0.00666871
0.00666427
0.00666316
0.00665863
0.00665719
0.00665262
0.0066509
0.00664635
0.00664441
0.00663987
0.00663824
0.00663133
0.00664313
0.00661084
0.00691946
0.00692354
0.00693455
0.00694107
0.00694304
0.00694801
0.00695569
0.00695262
0.00695811
0.00695986
0.00696033
0.00695796
0.00695652
0.00695168
0.00694988
0.00694543
0.00694238
0.00693614
0.00693155
0.00692404
0.00691824
0.00690992
0.00690453
0.00689675
0.00689201
0.00688419
0.00687944
0.00687136
0.00686663
0.00685868
0.00685423
0.00684637
0.00684213
0.00683473
0.00683066
0.00682394
0.00682012
0.00681393
0.00681103
0.00680475
0.0068024
0.00679655
0.00679489
0.00678914
0.00678737
0.00678225
0.00678056
0.00677486
0.00677384
0.00676815
0.00676654
0.00676093
0.00675943
0.00675338
0.00675208
0.00674581
0.0067441
0.00673819
0.00673658
0.00673035
0.00672901
0.00672265
0.00672096
0.00671465
0.0067133
0.00670698
0.00670564
0.00669954
0.00669837
0.00669232
0.00669134
0.00668557
0.00668482
0.00667928
0.00667867
0.00667333
0.0066728
0.00666769
0.00666727
0.00666234
0.00666188
0.00665706
0.00665656
0.00665185
0.00665126
0.0066466
0.00664588
0.00664131
0.00664045
0.00663594
0.00663489
0.00663047
0.00662921
0.00662494
0.00662349
0.0066194
0.00661776
0.00661389
0.00661231
0.00660706
0.00688874
0.00688798
0.00689612