/*--------------------------------*- C++ -*----------------------------------*\
  =========                 |
  \\      /  F ield         | OpenFOAM: The Open Source CFD Toolbox
   \\    /   O peration     | Website:  https://openfoam.org
    \\  /    A nd           | Version:  8
     \\/     M anipulation  |
\*---------------------------------------------------------------------------*/
FoamFile
{
    version     2.0;
    format      ascii;
    class       volScalarField;
    location    "0.999971";
    object      drdt;
}
// * * * * * * * * * * * * * * * * * * * * * * * * * * * * * * * * * * * * * //

dimensions      [0 1 -1 0 0 0 0];

internalField   nonuniform List<scalar> 
6800
(
-2.65815e-09
-2.67695e-09
-2.53748e-09
-2.32723e-09
-1.88734e-09
-1.00932e-09
4.4994e-10
1.08897e-09
1.30471e-09
1.33748e-09
-2.65995e-09
-2.56063e-09
-2.36801e-09
-1.81909e-09
-5.47771e-10
8.3554e-10
1.28968e-09
1.41337e-09
1.38924e-09
1.35153e-09
-2.59843e-09
-2.24797e-09
-1.80471e-09
-4.61965e-10
9.43655e-10
1.42567e-09
1.49992e-09
1.45008e-09
1.34278e-09
1.19017e-09
-2.59877e-09
-1.52094e-09
-8.06187e-10
8.52557e-10
1.47185e-09
1.58729e-09
1.52824e-09
1.37957e-09
1.23687e-09
1.12677e-09
-2.50203e-09
-8.4188e-10
4.78071e-10
1.41658e-09
1.66367e-09
1.63429e-09
1.50909e-09
1.32237e-09
1.21029e-09
1.11409e-09
-2.36246e-09
2.66435e-10
1.03917e-09
1.71479e-09
1.73915e-09
1.65273e-09
1.47519e-09
1.31878e-09
1.21377e-09
1.16544e-09
-1.95975e-09
8.12359e-10
1.78159e-09
2.07499e-09
1.84086e-09
1.66993e-09
1.49566e-09
1.34076e-09
1.24887e-09
1.17966e-09
-8.3524e-10
2.27354e-09
2.3237e-09
2.23492e-09
1.89799e-09
1.68089e-09
1.50496e-09
1.36088e-09
1.28629e-09
1.26282e-09
5.8371e-10
2.88028e-09
2.51748e-09
2.44828e-09
1.98468e-09
1.74772e-09
1.51424e-09
1.3877e-09
1.3157e-09
1.26672e-09
1.74097e-09
3.81166e-09
2.87487e-09
2.59707e-09
2.21685e-09
1.78567e-09
1.52198e-09
1.38361e-09
1.35027e-09
1.28893e-09
-2.76838e-09
-2.76538e-09
-2.76469e-09
-2.76045e-09
-2.75431e-09
-2.74639e-09
-2.73708e-09
-2.72763e-09
-2.71902e-09
-2.71159e-09
-2.76418e-09
-2.76193e-09
-2.76219e-09
-2.75959e-09
-2.75471e-09
-2.74878e-09
-2.74153e-09
-2.7345e-09
-2.72845e-09
-2.72394e-09
-2.75351e-09
-2.75617e-09
-2.75842e-09
-2.75793e-09
-2.75643e-09
-2.75525e-09
-2.75472e-09
-2.75696e-09
-2.76278e-09
-2.76446e-09
-2.7413e-09
-2.74884e-09
-2.75347e-09
-2.75799e-09
-2.76601e-09
-2.78058e-09
-2.79314e-09
-2.80409e-09
-2.80616e-09
-2.8075e-09
-2.7314e-09
-2.74258e-09
-2.75131e-09
-2.76435e-09
-2.78096e-09
-2.79018e-09
-2.79486e-09
-2.79853e-09
-2.80003e-09
-2.76506e-09
-2.72655e-09
-2.73978e-09
-2.75101e-09
-2.76384e-09
-2.77157e-09
-2.76849e-09
-2.76351e-09
-2.74176e-09
-2.73736e-09
-2.66605e-09
-2.72326e-09
-2.73827e-09
-2.74972e-09
-2.75388e-09
-2.74989e-09
-2.71071e-09
-2.6473e-09
-2.56643e-09
-2.51285e-09
-2.44282e-09
-2.7215e-09
-2.73899e-09
-2.74698e-09
-2.73675e-09
-2.68459e-09
-2.56689e-09
-2.43957e-09
-2.30963e-09
-2.17974e-09
-1.75324e-09
-2.718e-09
-2.73976e-09
-2.7374e-09
-2.67888e-09
-2.53456e-09
-2.34503e-09
-2.17343e-09
-1.7954e-09
-1.37205e-09
-1.73207e-10
-2.6813e-09
-2.73333e-09
-2.68301e-09
-2.52923e-09
-2.34455e-09
-1.99925e-09
-1.4895e-09
-5.02202e-10
5.38178e-10
1.13529e-09
-2.7044e-09
-2.70072e-09
-2.702e-09
-2.71043e-09
-2.72511e-09
-2.74466e-09
-2.76917e-09
-2.79754e-09
-2.82945e-09
-2.86381e-09
-2.90015e-09
-2.93739e-09
-2.97517e-09
-3.01247e-09
-3.04957e-09
-3.08547e-09
-3.11765e-09
-3.14687e-09
-3.17225e-09
-3.19384e-09
-3.21199e-09
-3.2252e-09
-3.23426e-09
-3.23878e-09
-3.23906e-09
-3.23593e-09
-3.22856e-09
-3.21722e-09
-3.20252e-09
-3.18476e-09
-3.1641e-09
-3.1411e-09
-3.11586e-09
-3.08887e-09
-3.05993e-09
-3.02946e-09
-2.99755e-09
-2.96565e-09
-2.93203e-09
-2.89822e-09
-2.86343e-09
-2.82879e-09
-2.79335e-09
-2.75841e-09
-2.72289e-09
-2.68818e-09
-2.65309e-09
-2.61905e-09
-2.58479e-09
-2.55173e-09
-2.51857e-09
-2.48669e-09
-2.45478e-09
-2.42418e-09
-2.3936e-09
-2.36438e-09
-2.33526e-09
-2.30756e-09
-2.28004e-09
-2.25401e-09
-2.22825e-09
-2.20405e-09
-2.18014e-09
-2.1578e-09
-2.13572e-09
-2.11514e-09
-2.09473e-09
-2.07575e-09
-2.05681e-09
-2.03921e-09
-2.02151e-09
-2.00505e-09
-1.98837e-09
-1.97286e-09
-1.95704e-09
-1.94234e-09
-1.92727e-09
-1.91331e-09
-1.89896e-09
-1.88571e-09
-1.8721e-09
-1.85959e-09
-1.84672e-09
-1.83497e-09
-1.82288e-09
-1.81189e-09
-1.80055e-09
-1.79031e-09
-1.77965e-09
-1.77012e-09
-1.76001e-09
-1.75114e-09
-1.74135e-09
-1.73322e-09
-1.72334e-09
-1.71617e-09
-1.70568e-09
-1.6995e-09
-1.68927e-09
-1.68018e-09
-2.7202e-09
-2.7148e-09
-2.71629e-09
-2.7233e-09
-2.73603e-09
-2.75339e-09
-2.77478e-09
-2.80054e-09
-2.82903e-09
-2.86041e-09
-2.89394e-09
-2.92764e-09
-2.96096e-09
-2.99547e-09
-3.02785e-09
-3.05985e-09
-3.08992e-09
-3.11668e-09
-3.14181e-09
-3.1647e-09
-3.18381e-09
-3.19914e-09
-3.21079e-09
-3.21799e-09
-3.22123e-09
-3.2205e-09
-3.21592e-09
-3.20733e-09
-3.19489e-09
-3.17978e-09
-3.16112e-09
-3.14053e-09
-3.11678e-09
-3.09171e-09
-3.06389e-09
-3.03502e-09
-3.00378e-09
-2.97314e-09
-2.94e-09
-2.907e-09
-2.87242e-09
-2.83829e-09
-2.80293e-09
-2.76832e-09
-2.73281e-09
-2.69833e-09
-2.66324e-09
-2.62936e-09
-2.59509e-09
-2.56215e-09
-2.52897e-09
-2.49716e-09
-2.46521e-09
-2.43464e-09
-2.40397e-09
-2.37475e-09
-2.34556e-09
-2.31788e-09
-2.2903e-09
-2.26431e-09
-2.23853e-09
-2.21439e-09
-2.19048e-09
-2.16822e-09
-2.14613e-09
-2.12561e-09
-2.10518e-09
-2.08622e-09
-2.06722e-09
-2.04961e-09
-2.03181e-09
-2.01529e-09
-1.99848e-09
-1.98287e-09
-1.96689e-09
-1.95206e-09
-1.93683e-09
-1.92272e-09
-1.90822e-09
-1.89483e-09
-1.88106e-09
-1.86841e-09
-1.85541e-09
-1.84353e-09
-1.8313e-09
-1.82018e-09
-1.8087e-09
-1.79833e-09
-1.78753e-09
-1.77785e-09
-1.76758e-09
-1.75857e-09
-1.7486e-09
-1.74032e-09
-1.73027e-09
-1.72291e-09
-1.71232e-09
-1.7058e-09
-1.69554e-09
-1.686e-09
-2.76666e-09
-2.75622e-09
-2.75624e-09
-2.75828e-09
-2.76393e-09
-2.77418e-09
-2.78942e-09
-2.8068e-09
-2.82972e-09
-2.85318e-09
-2.88091e-09
-2.91394e-09
-2.94512e-09
-2.97687e-09
-3.00847e-09
-3.03974e-09
-3.07068e-09
-3.09955e-09
-3.12834e-09
-3.15546e-09
-3.17951e-09
-3.20117e-09
-3.21843e-09
-3.23137e-09
-3.23937e-09
-3.24338e-09
-3.24253e-09
-3.23852e-09
-3.22909e-09
-3.21703e-09
-3.20062e-09
-3.18227e-09
-3.16007e-09
-3.13653e-09
-3.10962e-09
-3.08183e-09
-3.05072e-09
-3.02066e-09
-2.98752e-09
-2.95469e-09
-2.91989e-09
-2.88578e-09
-2.85008e-09
-2.81537e-09
-2.77951e-09
-2.74487e-09
-2.7094e-09
-2.67531e-09
-2.64065e-09
-2.60747e-09
-2.57389e-09
-2.54181e-09
-2.50943e-09
-2.47855e-09
-2.44744e-09
-2.41792e-09
-2.38837e-09
-2.36046e-09
-2.33258e-09
-2.30641e-09
-2.28042e-09
-2.25614e-09
-2.23209e-09
-2.20971e-09
-2.18749e-09
-2.16684e-09
-2.14624e-09
-2.12707e-09
-2.10784e-09
-2.08991e-09
-2.0718e-09
-2.05489e-09
-2.03769e-09
-2.02164e-09
-2.00523e-09
-1.98994e-09
-1.97427e-09
-1.95973e-09
-1.9448e-09
-1.93101e-09
-1.91685e-09
-1.90384e-09
-1.89048e-09
-1.87826e-09
-1.8657e-09
-1.85427e-09
-1.84247e-09
-1.83179e-09
-1.82066e-09
-1.81068e-09
-1.80006e-09
-1.79075e-09
-1.78041e-09
-1.7718e-09
-1.76139e-09
-1.75362e-09
-1.74277e-09
-1.7356e-09
-1.72518e-09
-1.71498e-09
-2.79706e-09
-2.77928e-09
-2.76336e-09
-2.74666e-09
-2.74784e-09
-2.75113e-09
-2.76317e-09
-2.77664e-09
-2.79596e-09
-2.81776e-09
-2.84325e-09
-2.87267e-09
-2.90006e-09
-2.92827e-09
-2.96034e-09
-2.99501e-09
-3.0335e-09
-3.07248e-09
-3.11068e-09
-3.14648e-09
-3.17818e-09
-3.20645e-09
-3.22909e-09
-3.24777e-09
-3.26061e-09
-3.26956e-09
-3.27176e-09
-3.27192e-09
-3.26636e-09
-3.25784e-09
-3.24419e-09
-3.22891e-09
-3.20874e-09
-3.18764e-09
-3.16204e-09
-3.13627e-09
-3.1057e-09
-3.07707e-09
-3.04456e-09
-3.01267e-09
-2.97836e-09
-2.94493e-09
-2.90958e-09
-2.87535e-09
-2.83969e-09
-2.80539e-09
-2.77004e-09
-2.73616e-09
-2.70154e-09
-2.66846e-09
-2.63487e-09
-2.60278e-09
-2.57037e-09
-2.53939e-09
-2.50818e-09
-2.47856e-09
-2.44908e-09
-2.42114e-09
-2.39335e-09
-2.36717e-09
-2.34132e-09
-2.31712e-09
-2.29322e-09
-2.27087e-09
-2.24873e-09
-2.22801e-09
-2.20734e-09
-2.18797e-09
-2.16851e-09
-2.15025e-09
-2.13179e-09
-2.11444e-09
-2.09681e-09
-2.08025e-09
-2.06339e-09
-2.04759e-09
-2.03147e-09
-2.01645e-09
-2.00111e-09
-1.9869e-09
-1.97236e-09
-1.95899e-09
-1.94527e-09
-1.93274e-09
-1.91984e-09
-1.90811e-09
-1.89596e-09
-1.88498e-09
-1.87347e-09
-1.86317e-09
-1.85213e-09
-1.84246e-09
-1.83166e-09
-1.82259e-09
-1.81175e-09
-1.80336e-09
-1.79225e-09
-1.78398e-09
-1.7739e-09
-1.76179e-09
-2.74078e-09
-2.70749e-09
-2.6878e-09
-2.67743e-09
-2.67205e-09
-2.67262e-09
-2.67883e-09
-2.68721e-09
-2.70159e-09
-2.71942e-09
-2.74477e-09
-2.7735e-09
-2.81032e-09
-2.85369e-09
-2.90032e-09
-2.94902e-09
-2.99679e-09
-3.04301e-09
-3.08632e-09
-3.12742e-09
-3.16364e-09
-3.19669e-09
-3.22377e-09
-3.24759e-09
-3.26474e-09
-3.27834e-09
-3.28377e-09
-3.28755e-09
-3.28638e-09
-3.28162e-09
-3.27121e-09
-3.25871e-09
-3.24119e-09
-3.22208e-09
-3.19852e-09
-3.17428e-09
-3.14504e-09
-3.11733e-09
-3.08606e-09
-3.05505e-09
-3.0218e-09
-2.9891e-09
-2.9546e-09
-2.92091e-09
-2.88595e-09
-2.85216e-09
-2.81738e-09
-2.78395e-09
-2.74983e-09
-2.71717e-09
-2.68405e-09
-2.65236e-09
-2.62043e-09
-2.58982e-09
-2.55893e-09
-2.52978e-09
-2.5009e-09
-2.47348e-09
-2.44619e-09
-2.42053e-09
-2.39527e-09
-2.37164e-09
-2.34834e-09
-2.32651e-09
-2.30485e-09
-2.28448e-09
-2.26408e-09
-2.24488e-09
-2.22552e-09
-2.20726e-09
-2.18875e-09
-2.17128e-09
-2.15352e-09
-2.13681e-09
-2.1198e-09
-2.10385e-09
-2.08764e-09
-2.07251e-09
-2.05713e-09
-2.04286e-09
-2.02834e-09
-2.01494e-09
-2.00128e-09
-1.98873e-09
-1.97584e-09
-1.96408e-09
-1.95187e-09
-1.94078e-09
-1.92912e-09
-1.91862e-09
-1.90734e-09
-1.89737e-09
-1.88623e-09
-1.87668e-09
-1.86552e-09
-1.85638e-09
-1.84515e-09
-1.83557e-09
-1.82571e-09
-1.81219e-09
-2.60141e-09
-2.55127e-09
-2.5188e-09
-2.50242e-09
-2.4966e-09
-2.49793e-09
-2.51015e-09
-2.53108e-09
-2.55995e-09
-2.59591e-09
-2.63676e-09
-2.68169e-09
-2.72989e-09
-2.78046e-09
-2.8322e-09
-2.8836e-09
-2.93163e-09
-2.97923e-09
-3.02328e-09
-3.06664e-09
-3.10487e-09
-3.14118e-09
-3.17124e-09
-3.19832e-09
-3.21812e-09
-3.23379e-09
-3.24068e-09
-3.24709e-09
-3.24778e-09
-3.24482e-09
-3.2357e-09
-3.22437e-09
-3.2076e-09
-3.18912e-09
-3.16596e-09
-3.142e-09
-3.11362e-09
-3.08552e-09
-3.0553e-09
-3.02533e-09
-2.99322e-09
-2.96177e-09
-2.92856e-09
-2.89609e-09
-2.86251e-09
-2.83017e-09
-2.79688e-09
-2.76498e-09
-2.73244e-09
-2.70144e-09
-2.67004e-09
-2.64016e-09
-2.61012e-09
-2.58127e-09
-2.55194e-09
-2.52487e-09
-2.49816e-09
-2.47274e-09
-2.44727e-09
-2.42365e-09
-2.40042e-09
-2.37895e-09
-2.35768e-09
-2.33784e-09
-2.31796e-09
-2.29926e-09
-2.28029e-09
-2.26243e-09
-2.24423e-09
-2.22705e-09
-2.2095e-09
-2.19294e-09
-2.17603e-09
-2.16014e-09
-2.14396e-09
-2.12882e-09
-2.11345e-09
-2.09913e-09
-2.08462e-09
-2.07115e-09
-2.05749e-09
-2.04485e-09
-2.03198e-09
-2.02008e-09
-2.00789e-09
-1.99664e-09
-1.985e-09
-1.97426e-09
-1.96303e-09
-1.95271e-09
-1.94172e-09
-1.93176e-09
-1.92077e-09
-1.91096e-09
-1.90002e-09
-1.89028e-09
-1.87943e-09
-1.86864e-09
-1.85953e-09
-1.84463e-09
-2.36237e-09
-2.33915e-09
-2.30693e-09
-2.30782e-09
-2.31421e-09
-2.33264e-09
-2.35609e-09
-2.38734e-09
-2.42376e-09
-2.46529e-09
-2.51014e-09
-2.55493e-09
-2.60045e-09
-2.64611e-09
-2.69253e-09
-2.73826e-09
-2.77923e-09
-2.82245e-09
-2.86216e-09
-2.9031e-09
-2.93842e-09
-2.97143e-09
-2.99817e-09
-3.02194e-09
-3.03647e-09
-3.04711e-09
-3.05286e-09
-3.05738e-09
-3.0539e-09
-3.0483e-09
-3.03666e-09
-3.02315e-09
-3.00466e-09
-2.98448e-09
-2.96061e-09
-2.93561e-09
-2.90861e-09
-2.88003e-09
-2.85223e-09
-2.8252e-09
-2.79645e-09
-2.76887e-09
-2.73971e-09
-2.7112e-09
-2.68212e-09
-2.65442e-09
-2.62601e-09
-2.59897e-09
-2.5716e-09
-2.54588e-09
-2.51996e-09
-2.49575e-09
-2.47142e-09
-2.44793e-09
-2.42361e-09
-2.40226e-09
-2.38131e-09
-2.36116e-09
-2.34079e-09
-2.3225e-09
-2.30461e-09
-2.28845e-09
-2.27225e-09
-2.25718e-09
-2.2418e-09
-2.22728e-09
-2.21217e-09
-2.19799e-09
-2.18325e-09
-2.16936e-09
-2.15495e-09
-2.14142e-09
-2.12744e-09
-2.11439e-09
-2.101e-09
-2.0886e-09
-2.07592e-09
-2.06424e-09
-2.05231e-09
-2.04131e-09
-2.03009e-09
-2.01975e-09
-2.00907e-09
-1.99922e-09
-1.98898e-09
-1.97948e-09
-1.96954e-09
-1.96028e-09
-1.95055e-09
-1.94143e-09
-1.93174e-09
-1.9227e-09
-1.91282e-09
-1.90358e-09
-1.89384e-09
-1.88425e-09
-1.87464e-09
-1.86352e-09
-1.85566e-09
-1.84067e-09
-1.7798e-09
-1.8323e-09
-1.88639e-09
-1.9278e-09
-1.97486e-09
-2.01359e-09
-2.05252e-09
-2.09225e-09
-2.13127e-09
-2.16869e-09
-2.20753e-09
-2.24238e-09
-2.27631e-09
-2.31014e-09
-2.34283e-09
-2.3707e-09
-2.39346e-09
-2.42101e-09
-2.44534e-09
-2.47061e-09
-2.48701e-09
-2.50021e-09
-2.51111e-09
-2.51385e-09
-2.51792e-09
-2.5173e-09
-2.50938e-09
-2.50229e-09
-2.48882e-09
-2.47728e-09
-2.46069e-09
-2.44511e-09
-2.42643e-09
-2.40767e-09
-2.388e-09
-2.36778e-09
-2.34929e-09
-2.3283e-09
-2.31089e-09
-2.2961e-09
-2.28029e-09
-2.26651e-09
-2.25091e-09
-2.23529e-09
-2.22008e-09
-2.20626e-09
-2.19211e-09
-2.17893e-09
-2.16616e-09
-2.15457e-09
-2.14269e-09
-2.1331e-09
-2.12232e-09
-2.11178e-09
-2.10078e-09
-2.09157e-09
-2.08178e-09
-2.07345e-09
-2.0651e-09
-2.05858e-09
-2.05174e-09
-2.04602e-09
-2.03979e-09
-2.03389e-09
-2.02743e-09
-2.02117e-09
-2.01398e-09
-2.00745e-09
-2.00013e-09
-1.99335e-09
-1.98589e-09
-1.97903e-09
-1.97153e-09
-1.96475e-09
-1.95746e-09
-1.951e-09
-1.94403e-09
-1.93795e-09
-1.93132e-09
-1.92548e-09
-1.91914e-09
-1.91341e-09
-1.90703e-09
-1.90138e-09
-1.89497e-09
-1.88921e-09
-1.88278e-09
-1.87689e-09
-1.87037e-09
-1.86421e-09
-1.85748e-09
-1.85095e-09
-1.84388e-09
-1.83677e-09
-1.82948e-09
-1.82152e-09
-1.81444e-09
-1.80483e-09
-1.79851e-09
-1.78638e-09
-2.67524e-10
-4.69705e-10
-6.43485e-10
-7.77285e-10
-9.06393e-10
-1.00827e-09
-1.09735e-09
-1.17767e-09
-1.23982e-09
-1.28977e-09
-1.33102e-09
-1.3518e-09
-1.36091e-09
-1.36779e-09
-1.36779e-09
-1.36448e-09
-1.35074e-09
-1.33884e-09
-1.32135e-09
-1.29691e-09
-1.2788e-09
-1.2568e-09
-1.23647e-09
-1.21792e-09
-1.1977e-09
-1.18396e-09
-1.16703e-09
-1.16004e-09
-1.1483e-09
-1.14547e-09
-1.13931e-09
-1.13815e-09
-1.1361e-09
-1.13698e-09
-1.13952e-09
-1.14362e-09
-1.15082e-09
-1.15896e-09
-1.16924e-09
-1.18633e-09
-1.20423e-09
-1.22529e-09
-1.24485e-09
-1.26348e-09
-1.28438e-09
-1.30566e-09
-1.32785e-09
-1.34803e-09
-1.36979e-09
-1.39099e-09
-1.4106e-09
-1.43309e-09
-1.45236e-09
-1.46997e-09
-1.48664e-09
-1.50277e-09
-1.51626e-09
-1.53134e-09
-1.54513e-09
-1.5592e-09
-1.57125e-09
-1.58314e-09
-1.59365e-09
-1.60312e-09
-1.61193e-09
-1.62008e-09
-1.62708e-09
-1.63461e-09
-1.64108e-09
-1.64765e-09
-1.65322e-09
-1.65891e-09
-1.66359e-09
-1.66856e-09
-1.6726e-09
-1.67712e-09
-1.68051e-09
-1.68451e-09
-1.68718e-09
-1.69051e-09
-1.69196e-09
-1.69382e-09
-1.6948e-09
-1.69669e-09
-1.69636e-09
-1.69769e-09
-1.69762e-09
-1.69796e-09
-1.69735e-09
-1.69669e-09
-1.69536e-09
-1.69365e-09
-1.69161e-09
-1.689e-09
-1.686e-09
-1.68199e-09
-1.67875e-09
-1.67358e-09
-1.67007e-09
-1.66397e-09
1.04217e-09
9.70455e-10
8.44888e-10
7.59752e-10
6.767e-10
6.05253e-10
5.39067e-10
4.8342e-10
4.30698e-10
3.86193e-10
3.46425e-10
3.06985e-10
2.73409e-10
2.29762e-10
1.94469e-10
1.47469e-10
1.0379e-10
5.56117e-11
2.39992e-12
-4.46328e-11
-9.59096e-11
-1.38696e-10
-1.81653e-10
-2.17925e-10
-2.49424e-10
-2.77904e-10
-2.99552e-10
-3.22407e-10
-3.36385e-10
-3.53595e-10
-3.63459e-10
-3.74643e-10
-3.82159e-10
-3.89728e-10
-3.95291e-10
-3.98731e-10
-4.05355e-10
-4.07886e-10
-4.09875e-10
-4.15212e-10
-4.25281e-10
-4.28104e-10
-4.32977e-10
-4.36789e-10
-4.40819e-10
-4.49736e-10
-4.58564e-10
-4.65615e-10
-4.73698e-10
-4.81574e-10
-4.93435e-10
-5.08008e-10
-5.23263e-10
-5.4183e-10
-5.6128e-10
-5.85209e-10
-6.09963e-10
-6.36485e-10
-6.63882e-10
-6.95193e-10
-7.27207e-10
-7.60862e-10
-7.95855e-10
-8.2943e-10
-8.65595e-10
-9.00911e-10
-9.35262e-10
-9.70709e-10
-1.00486e-09
-1.03773e-09
-1.06849e-09
-1.09786e-09
-1.12518e-09
-1.15141e-09
-1.17574e-09
-1.19892e-09
-1.2199e-09
-1.23995e-09
-1.25796e-09
-1.27522e-09
-1.2909e-09
-1.30578e-09
-1.31917e-09
-1.33206e-09
-1.34361e-09
-1.3547e-09
-1.36468e-09
-1.37421e-09
-1.38296e-09
-1.39102e-09
-1.3985e-09
-1.40501e-09
-1.41103e-09
-1.41622e-09
-1.42023e-09
-1.42408e-09
-1.42636e-09
-1.42948e-09
-1.43178e-09
-1.43498e-09
1.27998e-09
1.2565e-09
1.19346e-09
1.15171e-09
1.11289e-09
1.07716e-09
1.03661e-09
9.98513e-10
9.54134e-10
9.06372e-10
8.56814e-10
7.96708e-10
7.35079e-10
6.58748e-10
5.87835e-10
5.05655e-10
4.28168e-10
3.48604e-10
2.68816e-10
1.96714e-10
1.24741e-10
6.48099e-11
6.91626e-12
-4.05419e-11
-8.32732e-11
-1.20253e-10
-1.50744e-10
-1.79474e-10
-1.99883e-10
-2.21539e-10
-2.35997e-10
-2.49399e-10
-2.60727e-10
-2.68921e-10
-2.74987e-10
-2.79408e-10
-2.85496e-10
-2.84373e-10
-2.84179e-10
-2.85286e-10
-2.85781e-10
-2.8152e-10
-2.77719e-10
-2.69222e-10
-2.64806e-10
-2.60894e-10
-2.56524e-10
-2.50775e-10
-2.45089e-10
-2.34454e-10
-2.27264e-10
-2.16309e-10
-2.06964e-10
-1.99957e-10
-1.96255e-10
-1.94343e-10
-1.9306e-10
-1.91309e-10
-1.90587e-10
-1.92995e-10
-1.94454e-10
-1.97569e-10
-2.00724e-10
-2.05424e-10
-2.13004e-10
-2.23873e-10
-2.39128e-10
-2.5754e-10
-2.78643e-10
-3.02783e-10
-3.28983e-10
-3.57931e-10
-3.87874e-10
-4.20013e-10
-4.52118e-10
-4.85623e-10
-5.18898e-10
-5.53027e-10
-5.86534e-10
-6.20408e-10
-6.53812e-10
-6.86877e-10
-7.18874e-10
-7.50463e-10
-7.80323e-10
-8.09341e-10
-8.36453e-10
-8.62452e-10
-8.86716e-10
-9.09713e-10
-9.31176e-10
-9.51321e-10
-9.69814e-10
-9.87053e-10
-1.0021e-09
-1.01702e-09
-1.02871e-09
-1.04252e-09
-1.04913e-09
-1.07231e-09
1.17755e-09
1.17211e-09
1.13741e-09
1.11324e-09
1.08668e-09
1.05698e-09
1.01906e-09
9.83149e-10
9.38422e-10
8.93104e-10
8.4158e-10
7.8048e-10
7.15755e-10
6.39977e-10
5.67973e-10
4.85106e-10
4.09002e-10
3.29278e-10
2.57154e-10
1.89897e-10
1.2463e-10
7.1993e-11
2.02074e-11
-2.07566e-11
-6.00697e-11
-9.42709e-11
-1.24048e-10
-1.50926e-10
-1.71877e-10
-1.93003e-10
-2.07885e-10
-2.21342e-10
-2.33913e-10
-2.41957e-10
-2.46882e-10
-2.5535e-10
-2.57068e-10
-2.58136e-10
-2.58765e-10
-2.57203e-10
-2.54074e-10
-2.51975e-10
-2.43091e-10
-2.39568e-10
-2.38232e-10
-2.32581e-10
-2.27606e-10
-2.2226e-10
-2.15947e-10
-2.07176e-10
-1.97528e-10
-1.87182e-10
-1.75425e-10
-1.67555e-10
-1.57795e-10
-1.52512e-10
-1.43581e-10
-1.36611e-10
-1.28404e-10
-1.20125e-10
-1.1237e-10
-1.02133e-10
-9.38166e-11
-8.53844e-11
-7.74394e-11
-6.99459e-11
-6.52008e-11
-6.13821e-11
-5.5877e-11
-5.4955e-11
-5.48283e-11
-5.94705e-11
-6.56762e-11
-7.51888e-11
-8.35386e-11
-9.43661e-11
-1.02797e-10
-1.14037e-10
-1.2271e-10
-1.35102e-10
-1.44854e-10
-1.58929e-10
-1.71153e-10
-1.8755e-10
-2.02069e-10
-2.21205e-10
-2.38175e-10
-2.60152e-10
-2.79484e-10
-3.03966e-10
-3.24918e-10
-3.50962e-10
-3.72333e-10
-3.99764e-10
-4.20608e-10
-4.49178e-10
-4.6817e-10
-4.97418e-10
-5.17789e-10
-5.47947e-10
1.07217e-09
1.07408e-09
1.04451e-09
1.02429e-09
1.00065e-09
9.69908e-10
9.36319e-10
9.00499e-10
8.60446e-10
8.152e-10
7.63977e-10
7.06381e-10
6.45209e-10
5.79167e-10
5.13462e-10
4.4606e-10
3.82053e-10
3.17518e-10
2.55198e-10
1.96308e-10
1.41707e-10
9.62284e-11
4.97041e-11
1.28434e-11
-2.26893e-11
-5.3627e-11
-8.04657e-11
-1.0687e-10
-1.27758e-10
-1.49845e-10
-1.64859e-10
-1.8011e-10
-1.93874e-10
-2.01093e-10
-2.0991e-10
-2.17878e-10
-2.2041e-10
-2.24601e-10
-2.25843e-10
-2.27049e-10
-2.25627e-10
-2.22836e-10
-2.18629e-10
-2.18438e-10
-2.18696e-10
-2.17045e-10
-2.13046e-10
-2.0898e-10
-2.0239e-10
-1.96956e-10
-1.88139e-10
-1.8106e-10
-1.7029e-10
-1.62802e-10
-1.52642e-10
-1.46084e-10
-1.36732e-10
-1.30038e-10
-1.21223e-10
-1.13675e-10
-1.06461e-10
-9.64303e-11
-8.95423e-11
-7.94959e-11
-7.19286e-11
-6.28239e-11
-5.57016e-11
-5.086e-11
-4.15654e-11
-3.691e-11
-3.23333e-11
-2.8508e-11
-2.77798e-11
-2.15567e-11
-2.38157e-11
-1.69304e-11
-1.75207e-11
-1.82915e-11
-2.78017e-11
-3.94718e-11
-3.63023e-11
-4.05571e-11
-4.28002e-11
-4.15911e-11
-4.11411e-11
-3.88113e-11
-3.74885e-11
-3.79929e-11
-3.77193e-11
-4.14302e-11
-4.31297e-11
-4.33193e-11
-4.47858e-11
-4.91019e-11
-5.24449e-11
-5.98181e-11
-6.51038e-11
-7.51675e-11
-8.36292e-11
-9.66491e-11
1.01672e-09
1.01705e-09
9.86658e-10
9.72316e-10
9.49977e-10
9.15619e-10
8.77679e-10
8.4056e-10
8.03568e-10
7.64884e-10
7.2146e-10
6.72509e-10
6.18042e-10
5.60367e-10
5.00589e-10
4.41823e-10
3.8286e-10
3.26916e-10
2.74912e-10
2.24278e-10
1.80917e-10
1.36776e-10
9.69474e-11
6.24439e-11
2.57389e-11
-3.06198e-12
-3.72601e-11
-6.42e-11
-9.24557e-11
-1.18542e-10
-1.38323e-10
-1.59444e-10
-1.74917e-10
-1.85072e-10
-1.96227e-10
-2.04423e-10
-2.07876e-10
-2.14567e-10
-2.17571e-10
-2.25516e-10
-2.2281e-10
-2.20138e-10
-2.13902e-10
-2.12795e-10
-2.10403e-10
-2.09398e-10
-2.09864e-10
-2.07103e-10
-2.01551e-10
-1.95976e-10
-1.8937e-10
-1.81349e-10
-1.72922e-10
-1.63015e-10
-1.55313e-10
-1.45174e-10
-1.38902e-10
-1.28645e-10
-1.22605e-10
-1.13097e-10
-1.07362e-10
-9.8215e-11
-9.22818e-11
-8.36472e-11
-7.8728e-11
-7.06898e-11
-6.62941e-11
-5.90513e-11
-5.28645e-11
-4.78454e-11
-3.92695e-11
-3.45815e-11
-3.04321e-11
-2.66892e-11
-2.60913e-11
-2.04919e-11
-2.21856e-11
-1.9779e-11
-2.48494e-11
-2.21506e-11
-2.25361e-11
-3.09967e-11
-2.84288e-11
-3.24625e-11
-3.37322e-11
-3.12111e-11
-2.87031e-11
-2.47833e-11
-2.12266e-11
-1.78162e-11
-1.39506e-11
-1.09389e-11
-7.31159e-12
-4.74932e-12
-2.15537e-12
7.69378e-14
2.02703e-12
3.71744e-12
5.44484e-12
6.04543e-12
9.70207e-10
9.63078e-10
9.27846e-10
9.23747e-10
9.13033e-10
8.87866e-10
8.50916e-10
8.10189e-10
7.69993e-10
7.32943e-10
6.93616e-10
6.5207e-10
6.02845e-10
5.51449e-10
4.95512e-10
4.40654e-10
3.86892e-10
3.33279e-10
2.8448e-10
2.35525e-10
1.93413e-10
1.50408e-10
1.1327e-10
7.89611e-11
4.27169e-11
1.29906e-11
-2.24453e-11
-5.00056e-11
-8.14577e-11
-1.08486e-10
-1.30913e-10
-1.54188e-10
-1.69379e-10
-1.82315e-10
-1.92544e-10
-2.01146e-10
-2.06669e-10
-2.12883e-10
-2.16667e-10
-2.20239e-10
-2.19507e-10
-2.19339e-10
-2.14928e-10
-2.1328e-10
-2.1079e-10
-2.09225e-10
-2.09981e-10
-2.0814e-10
-2.03965e-10
-1.97414e-10
-1.90807e-10
-1.83036e-10
-1.73912e-10
-1.66104e-10
-1.57024e-10
-1.49346e-10
-1.4265e-10
-1.34581e-10
-1.28886e-10
-1.21254e-10
-1.15804e-10
-1.09809e-10
-1.03405e-10
-9.8651e-11
-9.13459e-11
-8.66565e-11
-8.1498e-11
-7.65652e-11
-7.04821e-11
-6.60921e-11
-6.39331e-11
-5.65682e-11
-5.38723e-11
-5.08983e-11
-5.29326e-11
-4.82792e-11
-5.10539e-11
-5.21277e-11
-5.0692e-11
-4.93545e-11
-4.70319e-11
-4.48354e-11
-4.28488e-11
-3.98882e-11
-3.79986e-11
-3.46851e-11
-3.22432e-11
-2.92553e-11
-2.61293e-11
-2.35239e-11
-2.0244e-11
-1.76479e-11
-1.46645e-11
-1.16623e-11
-9.10028e-12
-6.31629e-12
-4.14459e-12
-3.77025e-13
1.10474e-12
7.54951e-12
9.06338e-10
8.99995e-10
8.21997e-10
8.08419e-10
8.17428e-10
8.21693e-10
8.01039e-10
7.68356e-10
7.28142e-10
6.87921e-10
6.46176e-10
6.0515e-10
5.59957e-10
5.13033e-10
4.63165e-10
4.11155e-10
3.61072e-10
3.09999e-10
2.64928e-10
2.22006e-10
1.83686e-10
1.48033e-10
1.14625e-10
8.11146e-11
4.74144e-11
1.72371e-11
-1.56884e-11
-4.52404e-11
-7.79586e-11
-1.06395e-10
-1.3195e-10
-1.56962e-10
-1.70738e-10
-1.85866e-10
-1.9729e-10
-2.03338e-10
-2.08756e-10
-2.14915e-10
-2.16999e-10
-2.16829e-10
-2.19366e-10
-2.17271e-10
-2.17774e-10
-2.18724e-10
-2.1397e-10
-2.1267e-10
-2.09995e-10
-2.08944e-10
-2.04975e-10
-1.98528e-10
-1.91366e-10
-1.83764e-10
-1.77177e-10
-1.70557e-10
-1.656e-10
-1.60113e-10
-1.55635e-10
-1.50446e-10
-1.44873e-10
-1.40181e-10
-1.35147e-10
-1.28535e-10
-1.25045e-10
-1.16775e-10
-1.11758e-10
-1.03189e-10
-9.83829e-11
-9.20335e-11
-8.36363e-11
-8.6692e-11
-8.20476e-11
-8.49282e-11
-8.50335e-11
-8.16597e-11
-7.78225e-11
-7.28959e-11
-6.82591e-11
-6.3597e-11
-5.88503e-11
-5.47437e-11
-5.03437e-11
-4.65283e-11
-4.28825e-11
-3.91097e-11
-3.62532e-11
-3.27329e-11
-3.01786e-11
-2.72108e-11
-2.46382e-11
-2.21452e-11
-1.95053e-11
-1.72829e-11
-1.47429e-11
-1.22061e-11
-1.03912e-11
-7.03081e-12
-5.15455e-12
-1.89759e-12
3.02574e-13
2.48061e-12
8.40353e-10
8.30436e-10
7.74534e-10
7.43916e-10
6.97133e-10
6.85316e-10
7.02238e-10
6.98606e-10
6.71476e-10
6.30676e-10
5.84147e-10
5.3842e-10
4.95489e-10
4.52934e-10
4.10537e-10
3.65871e-10
3.20376e-10
2.74381e-10
2.31204e-10
1.90899e-10
1.5437e-10
1.22102e-10
9.31522e-11
6.55026e-11
4.20292e-11
1.6117e-11
-9.93352e-12
-4.0172e-11
-7.17168e-11
-1.02518e-10
-1.32551e-10
-1.58754e-10
-1.77586e-10
-1.94585e-10
-2.04892e-10
-2.09682e-10
-2.16092e-10
-2.18672e-10
-2.19828e-10
-2.23412e-10
-2.24208e-10
-2.18921e-10
-2.21692e-10
-2.16641e-10
-2.14778e-10
-2.10243e-10
-2.07976e-10
-2.06731e-10
-2.0527e-10
-2.02789e-10
-1.96425e-10
-1.88049e-10
-1.81254e-10
-1.75963e-10
-1.71402e-10
-1.69338e-10
-1.65305e-10
-1.61983e-10
-1.56777e-10
-1.51702e-10
-1.46142e-10
-1.42326e-10
-1.38525e-10
-1.35601e-10
-1.32997e-10
-1.29619e-10
-1.22282e-10
-1.19297e-10
-1.15911e-10
-1.1358e-10
-1.14485e-10
-1.13376e-10
-1.09352e-10
-1.04013e-10
-9.76168e-11
-9.13311e-11
-8.47135e-11
-7.89565e-11
-7.27252e-11
-6.79215e-11
-6.274e-11
-5.87792e-11
-5.46736e-11
-5.13121e-11
-4.76762e-11
-4.49104e-11
-4.1316e-11
-3.88889e-11
-3.59489e-11
-3.33769e-11
-3.13668e-11
-2.86899e-11
-2.70911e-11
-2.43664e-11
-2.27226e-11
-1.9878e-11
-1.83485e-11
-1.49302e-11
-1.34461e-11
-8.55351e-12
7.68036e-10
7.65555e-10
7.30599e-10
6.95305e-10
6.79776e-10
6.70451e-10
6.61713e-10
6.47955e-10
6.18801e-10
5.79634e-10
5.3392e-10
4.91057e-10
4.52225e-10
4.13738e-10
3.76619e-10
3.32898e-10
2.89703e-10
2.40433e-10
1.98496e-10
1.5769e-10
1.24995e-10
9.79617e-11
7.678e-11
5.66601e-11
3.92845e-11
1.76058e-11
-2.30459e-12
-3.2203e-11
-6.21939e-11
-9.53894e-11
-1.30966e-10
-1.55986e-10
-1.79024e-10
-1.95734e-10
-2.0346e-10
-2.11968e-10
-2.14886e-10
-2.17071e-10
-2.1987e-10
-2.26447e-10
-2.27093e-10
-2.21179e-10
-2.17109e-10
-2.10357e-10
-2.13353e-10
-2.12211e-10
-2.1218e-10
-2.11369e-10
-2.09131e-10
-2.10751e-10
-2.09588e-10
-2.04235e-10
-1.98414e-10
-1.92807e-10
-1.87108e-10
-1.84198e-10
-1.82164e-10
-1.78717e-10
-1.73888e-10
-1.69407e-10
-1.64763e-10
-1.62583e-10
-1.59146e-10
-1.5744e-10
-1.54574e-10
-1.52429e-10
-1.49973e-10
-1.43619e-10
-1.41561e-10
-1.42475e-10
-1.42136e-10
-1.38975e-10
-1.33166e-10
-1.26807e-10
-1.19256e-10
-1.12132e-10
-1.05132e-10
-9.8689e-11
-9.29799e-11
-8.80162e-11
-8.36785e-11
-8.03981e-11
-7.69995e-11
-7.42607e-11
-7.23197e-11
-6.97755e-11
-6.76314e-11
-6.54127e-11
-6.28715e-11
-6.01566e-11
-5.75093e-11
-5.4141e-11
-5.11944e-11
-4.96292e-11
-4.77325e-11
-4.59749e-11
-4.38738e-11
-4.07675e-11
-3.85983e-11
-3.45893e-11
6.89101e-10
6.91889e-10
6.70432e-10
6.31848e-10
6.11333e-10
5.95254e-10
5.77194e-10
5.74348e-10
5.52007e-10
5.2627e-10
4.89119e-10
4.52031e-10
4.18468e-10
3.78853e-10
3.46695e-10
3.02041e-10
2.57379e-10
2.09978e-10
1.68297e-10
1.27838e-10
9.27504e-11
6.45792e-11
4.43225e-11
2.64521e-11
8.49911e-12
-7.42221e-12
-2.01212e-11
-4.06811e-11
-6.79367e-11
-9.99078e-11
-1.31888e-10
-1.57146e-10
-1.8072e-10
-1.96739e-10
-2.04993e-10
-2.13162e-10
-2.16581e-10
-2.19253e-10
-2.22004e-10
-2.27859e-10
-2.25896e-10
-2.2101e-10
-2.13935e-10
-2.17366e-10
-2.19805e-10
-2.17509e-10
-2.17041e-10
-2.15542e-10
-2.15843e-10
-2.14538e-10
-2.16479e-10
-2.18467e-10
-2.12247e-10
-2.09645e-10
-2.02375e-10
-1.99163e-10
-1.97059e-10
-1.9661e-10
-1.98785e-10
-1.96333e-10
-1.92513e-10
-1.89624e-10
-1.86839e-10
-1.85778e-10
-1.83773e-10
-1.82911e-10
-1.80618e-10
-1.78939e-10
-1.75518e-10
-1.72008e-10
-1.66424e-10
-1.60641e-10
-1.53095e-10
-1.45629e-10
-1.37205e-10
-1.29285e-10
-1.21547e-10
-1.14399e-10
-1.07875e-10
-1.02342e-10
-9.73001e-11
-9.36668e-11
-9.00765e-11
-8.76503e-11
-8.5172e-11
-8.33378e-11
-8.12779e-11
-7.95307e-11
-7.76148e-11
-7.56035e-11
-7.38082e-11
-7.15265e-11
-6.9666e-11
-6.69897e-11
-6.52858e-11
-6.23861e-11
-6.04353e-11
-5.66507e-11
-5.38861e-11
-5.09047e-11
6.04146e-10
6.07374e-10
6.06334e-10
5.75473e-10
5.56741e-10
5.29924e-10
4.84314e-10
4.66756e-10
4.70011e-10
4.63555e-10
4.36846e-10
4.05333e-10
3.72896e-10
3.27518e-10
2.97694e-10
2.54639e-10
2.16899e-10
1.80093e-10
1.47077e-10
1.14888e-10
8.14409e-11
5.73266e-11
3.57808e-11
1.12273e-11
-2.47864e-11
-6.18712e-11
-7.56663e-11
-7.18551e-11
-8.46333e-11
-1.08029e-10
-1.30265e-10
-1.56416e-10
-1.76567e-10
-1.89021e-10
-1.97141e-10
-2.0261e-10
-2.05802e-10
-2.07467e-10
-2.10402e-10
-2.1493e-10
-2.13079e-10
-2.1006e-10
-2.10927e-10
-2.2623e-10
-2.21278e-10
-2.20691e-10
-2.15181e-10
-2.14107e-10
-2.1731e-10
-2.11308e-10
-2.14938e-10
-2.19076e-10
-2.19596e-10
-2.11883e-10
-2.12049e-10
-2.05531e-10
-2.05902e-10
-2.08347e-10
-2.11087e-10
-2.07803e-10
-2.04122e-10
-2.01693e-10
-1.99258e-10
-1.98054e-10
-1.95009e-10
-1.92789e-10
-1.8927e-10
-1.86893e-10
-1.83552e-10
-1.80573e-10
-1.76229e-10
-1.71641e-10
-1.65367e-10
-1.58073e-10
-1.49484e-10
-1.40145e-10
-1.31121e-10
-1.22084e-10
-1.14162e-10
-1.06854e-10
-1.00773e-10
-9.56972e-11
-9.13715e-11
-8.81414e-11
-8.50568e-11
-8.28779e-11
-8.04769e-11
-7.85465e-11
-7.68204e-11
-7.48573e-11
-7.36988e-11
-7.17206e-11
-7.06909e-11
-6.85344e-11
-6.74531e-11
-6.51636e-11
-6.39685e-11
-6.14481e-11
-5.96254e-11
-5.79253e-11
5.2883e-10
5.24096e-10
5.25641e-10
5.23746e-10
4.97323e-10
4.77744e-10
4.46015e-10
4.02267e-10
3.86762e-10
3.92107e-10
3.87326e-10
3.63463e-10
3.28072e-10
2.83579e-10
2.40177e-10
1.9415e-10
1.55548e-10
1.2817e-10
1.01306e-10
8.94058e-11
6.65677e-11
4.98803e-11
2.32993e-11
6.82376e-12
-2.18903e-11
-3.71075e-11
-6.32405e-11
-8.2656e-11
-1.12104e-10
-1.33139e-10
-1.53335e-10
-1.674e-10
-1.76749e-10
-1.81028e-10
-1.84394e-10
-1.84421e-10
-1.85778e-10
-1.85572e-10
-1.9424e-10
-1.96399e-10
-1.99487e-10
-2.0064e-10
-2.0733e-10
-2.1674e-10
-2.07754e-10
-2.13027e-10
-2.09476e-10
-2.10883e-10
-2.08413e-10
-2.13317e-10
-2.08033e-10
-2.11909e-10
-2.14266e-10
-2.17104e-10
-2.08421e-10
-2.05355e-10
-1.9756e-10
-1.93092e-10
-1.95752e-10
-1.95852e-10
-1.99136e-10
-1.98658e-10
-2.00998e-10
-2.0319e-10
-2.01982e-10
-1.99513e-10
-1.96081e-10
-1.92441e-10
-1.89399e-10
-1.85158e-10
-1.8154e-10
-1.76178e-10
-1.70725e-10
-1.62433e-10
-1.53639e-10
-1.42814e-10
-1.32765e-10
-1.2188e-10
-1.12106e-10
-1.02702e-10
-9.45849e-11
-8.75694e-11
-8.12378e-11
-7.65326e-11
-7.17682e-11
-6.86628e-11
-6.52172e-11
-6.27982e-11
-6.03003e-11
-5.83897e-11
-5.64326e-11
-5.48604e-11
-5.34177e-11
-5.13992e-11
-5.03536e-11
-4.86251e-11
-4.75326e-11
-4.56849e-11
-4.51504e-11
-4.05267e-11
4.71924e-10
4.43546e-10