/*--------------------------------*- C++ -*----------------------------------*\
  =========                 |
  \\      /  F ield         | OpenFOAM: The Open Source CFD Toolbox
   \\    /   O peration     | Website:  https://openfoam.org
    \\  /    A nd           | Version:  8
     \\/     M anipulation  |
\*---------------------------------------------------------------------------*/
FoamFile
{
    version     2.0;
    format      ascii;
    class       volScalarField;
    location    "0.999971";
    object      epsilon;
}
// * * * * * * * * * * * * * * * * * * * * * * * * * * * * * * * * * * * * * //

dimensions      [0 2 -3 0 0 0 0];

internalField   nonuniform List<scalar> 
6800
(
6447.41
24972.8
32431.6
33584.9
27097.6
11291.6
4256.87
1724.28
764.565
384.49
7313.58
33946.4
32137.2
20522.1
6866.62
2477.05
1041.59
498.53
254.745
150.407
6979.16
23457.5
14355.5
4825.8
1851.08
861.032
439.251
233.505
127.055
75.9582
5124.6
9239.94
4935.91
2026.88
1004.14
509.56
267.435
141.606
77.0306
46.6012
1406.88
3245.84
2180.72
1238.64
688.882
343.823
156.586
78.0074
46.4227
32.2711
1119.68
2329.13
1814.26
1026.3
460.527
187.479
92.0243
54.7169
36.2135
27.0952
1201.35
1776.09
1516.76
736.901
290.679
131.443
70.0265
43.0411
28.3689
23.2863
1235.44
1756.78
1396.83
533.186
203.699
88.503
51.3509
34.0199
25.3328
22.1115
1278.93
1808.58
1173.91
368.056
140.384
74.2623
45.6546
31.1511
23.2975
20.8354
1303.41
1965.42
993.953
305.421
121.388
60.7445
38.1301
27.1576
21.6703
20.2906
6889.82
3861.66
3174.92
2972.95
2949.84
3044.66
3209.19
3414.09
3643.7
3888.28
6743.26
3772.77
3118.37
2945.53
2954.02
3091.72
3310.23
3586.25
3908.89
4270.16
6479.02
3625.22
3025.01
2896.26
2976.14
3198.91
3529.08
3956.95
4487.71
5113
6116.84
3445.46
2917.3
2865.14
3053.2
3414.23
3929.04
4618.3
5541.12
6689.18
5694.06
3273.08
2859.62
2934.01
3296.21
3897.25
4734.26
5895.52
7624.99
10023.7
5262.77
3193.65
2963.36
3287.68
4025.52
5170.47
6818.27
9128.54
12613.1
17351
4894.85
3300.05
3491.41
4456.59
6159.71
8959.86
13125
18090
23546.5
24141.9
4687.1
3871.73
5198.98
7957.66
12360.6
19089.9
25820.1
27931.6
28573.5
23633.1
4787.07
5782
10227.1
17107.5
25651.7
30300.9
31077.1
27765.8
21710.6
8344.27
5269.99
11117
22265.6
29854.7
33284.1
30905.5
22150.8
9191.17
4036.38
1494.68
4235.48
4675.61
5122.25
5561.11
5987.94
6396.87
6784.26
7148.16
7488.48
7806.42
8102.18
8371.06
8611.9
8820.09
8998.95
9147.06
9263.17
9342.09
9382.74
9387.1
9359.02
9294.61
9198.83
9075.95
8929.07
8761.58
8576.98
8378.61
8169.79
7953.56
7732.7
7509.51
7285.91
7063.64
6844.24
6628.84
6418.2
6212.86
6013.14
5819.19
5631.14
5448.99
5272.73
5102.35
4937.75
4778.87
4625.61
4477.84
4335.44
4198.28
4066.23
3939.13
3816.83
3699.18
3586.01
3477.16
3372.44
3271.66
3174.65
3081.24
2991.29
2904.64
2821.19
2740.8
2663.39
2588.83
2517.04
2447.92
2381.38
2317.31
2255.63
2196.23
2139.02
2083.9
2030.78
1979.56
1930.16
1882.49
1836.46
1792
1749.03
1707.5
1667.33
1628.48
1590.9
1554.53
1519.34
1485.28
1452.35
1420.45
1389.66
1359.72
1331.05
1302.79
1276.38
1249.15
1225.82
1197.83
1180.18
1145.27
4771.56
5348.44
5943.61
6525.93
7086.75
7620.06
8120.82
8585.27
9013.19
9409.82
9776.31
10103.6
10392.8
10637
10846.8
11010.7
11125.4
11189.3
11205.6
11177.4
11104.8
10990.1
10838.9
10655.3
10443.2
10207.4
9952.81
9683.91
9405.02
9120.01
8832.36
8544.66
8259.61
7979.16
7704.75
7437.46
7177.92
6926.55
6683.53
6448.84
6222.51
6004.42
5794.45
5592.52
5398.42
5211.96
5032.93
4861.1
4696.22
4538.08
4386.42
4240.99
4101.58
3967.92
3839.8
3716.99
3599.2
3486.17
3377.69
3273.53
3173.51
3077.43
2985.14
2896.47
2811.28
2729.44
2650.83
2575.3
2502.74
2433.02
2366.01
2301.61
2239.68
2180.11
2122.78
2067.59
2014.42
1963.18
1913.77
1866.11
1820.1
1775.68
1732.77
1691.32
1651.27
1612.56
1575.16
1538.99
1504.07
1470.26
1437.69
1406.03
1375.76
1345.92
1318.12
1289.38
1264.88
1235.38
1216.86
1180.14
5920.27
6756.43
7628.32
8470.64
9270.35
10023.3
10723.4
11366.3
11951.8
12503.5
12988.4
13411.7
13770.8
14064.3
14291.7
14446.1
14524.7
14541.3
14496.8
14388.9
14222.3
14005.3
13742.4
13439.1
13099.9
12732.8
12345.9
11945.6
11537.9
11127.7
10719.8
10318
9925.03
9542.85
9172.61
8815.28
8471.18
8140.45
7822.99
7518.41
7226.54
6947.07
6679.61
6424
6179.79
5946.58
5723.93
5511.42
5308.61
5115.1
4930.42
4754.15
4585.91
4425.29
4272.01
4125.72
3985.96
3852.34
3724.55
3602.34
3485.4
3373.49
3266.35
3163.77
3065.54
2971.47
2881.37
2795.05
2712.35
2633.1
2557.11
2484.24
2414.32
2347.21
2282.75
2220.8
2161.23
2103.92
2048.75
1995.62
1944.43
1895.08
1847.51
1801.62
1757.36
1714.65
1673.45
1633.68
1595.34
1558.27
1522.64
1488.01
1455
1422.42
1392.22
1360.87
1334.36
1302.23
1282.13
1242.31
7908.86
9096.82
10322.9
11489.5
12574.8
13580.9
14503.2
15336.3
16082
16750.8
17303.9
17770.7
18138
18407.1
18561.6
18645.3
18630.9
18547.9
18375.3
18129
17815.7
17442.5
17017
16546.9
16033.2
15492.8
14937.4
14375.2
13813.6
13258.2
12713.7
12183.7
11670.3
11175.8
10701
10246.5
9812.04
9397.22
9001.59
8624
8264.08
7921.23
7594.6
7284.11
6988.92
6708.35
6441.66
6188.22
5947.22
5717.99
5499.95
5292.47
5095.08
4907.15
4728.39
4558.38
4396.4
4241.91
4094.58
3954.11
3820.09
3692.18
3570.03
3453.36
3341.9
3235.38
3133.59
3036.26
2943.18
2854.12
2768.88
2687.25
2609.03
2534.06
2462.12
2393.07
2326.74
2263.01
2201.75
2142.82
2086.11
2031.53
1978.97
1928.35
1879.59
1832.59
1787.33
1743.68
1701.68
1661.08
1622.14
1584.27
1548.31
1512.69
1479.92
1445.62
1416.98
1381.86
1359.99
1316.72
11520.7
12979.2
14442.1
15821.4
17059.3
18175
19167.6
20030.4
20764.6
21360
21835.4
22189.5
22424.5
22525.5
22504.7
22383.2
22128.8
21792.1
21375.1
20884.2
20330.6
19725.4
19080.1
18403.1
17723.1
17038
16352.9
15673.3
15005.9
14355.5
13725.6
13119.4
12537.5
11981.4
11450.7
10945.6
10465.1
10008.2
9574.36
9161.43
8769.05
8396.53
8042.34
7706.81
7388.74
7087.2
6801.26
6530.15
6272.9
6028.62
5796.67
5576.14
5366.59
5167.13
4977.62
4797.74
4626.42
4463.03
4307.37
4159.15
4017.87
3883.13
3754.49
3631.67
3514.36
3402.27
3295.17
3192.76
3094.8
3001.07
2911.33
2825.36
2742.96
2663.95
2588.17
2515.44
2445.59
2378.47
2313.92
2251.84
2192.1
2134.59
2079.22
2025.9
1974.54
1925.05
1877.4
1831.42
1787.23
1744.44
1703.5
1663.55
1625.78
1588.12
1553.79
1517.4
1487.47
1450.2
1427.06
1381.39
18098.4
19182.9
20362.5
21495.1
22449.5
23263.9
23951.8
24483.2
24835.9
25058.9
25158.3
25117.8
24986.1
24762
24449.8
24040.6
23533.9
22952.2
22306.5
21600.7
20848.4
20062.5
19256.9
18441.6
17628
16823.8
16041.3
15286
14562.5
13873.4
13218.5
12599
12012.6
11459.1
10936.3
10443
9977.67
9538.16
9123.98
8731.43
8360.21
8009.68
7677.02
7363.35
7067.13
6786.98
6522.03
6271.25
6033.8
5808.38
5594.58
5391.15
5197.73
5013.25
4837.72
4671.21
4512.37
4360.52
4215.66
4077.61
3945.83
3819.94
3699.47
3584.21
3473.9
3368.25
3267.09
3170.14
3077.19
2988.04
2902.46
2820.29
2741.34
2665.45
2592.46
2522.23
2454.64
2389.57
2326.9
2266.53
2208.37
2152.3
2098.27
2046.16
1995.94
1947.46
1900.76
1855.6
1812.21
1770.05
1729.79
1690.26
1653.09
1615.62
1581.87
1545.42
1516.01
1478.61
1455.43
1409.83
24792.6
25241.8
25605.8
25982.3
26259.5
26420.4
26495.5
26464.6
26335.5
26091.4
25794.2
25368.2
24842.1
24212
23486
22667
21797.1
20879.7
19933.5
18965.1
17989.9
17023.6
16083
15178.6
14322.1
13517.6
12768.3
12075.2
11434.3
10845.3
10300.7
9799.3
9334.58
8903.98
8504.18
8131.41
7785.19
7461.23
7160.68
6877.55
6611.75
6363.48
6127.72
5906.71
5699.38
5503.48
5318.88
5143.91
4978.83
4821.2
4671.71
4528.57
4391.27
4259.13
4131.76
4010.05
3893.45
3781.47
3673.79
3570.4
3470.86
3375.22
3283.07
3194.36
3108.98
3026.63
2947.34
2870.86
2797.05
2725.79
2656.94
2590.39
2526.05
2463.81
2403.59
2345.31
2288.89
2234.29
2181.45
2130.3
2080.81
2032.88
1986.53
1941.63
1898.22
1856.11
1815.46
1775.91
1737.89
1700.62
1665.14
1629.85
1596.95
1563.09
1533.13
1499.84
1473.64
1439.32
1418.01
1376.32
23504
23328.1
23194.6
23064.5
22978.5
22748.9
22529.4
22206.4
21777.1
21159.1
20481.5
19705.9
18815.6
17863.4
16830.2
15754.7
14666.3
13540.3
12436
11377.1
10382.4
9467.54
8640.7
7908.91
7265.23
6712.14
6232.29
5826.9
5475.49
5179.04
4920.54
4698.7
4504.65
4333.02
4183.49
4047.52
3930.05
3821.9
3729.66
3645.96
3569.25
3501.77
3437.42
3377.22
3323.03
3270.61
3222.13
3174.21
3129.02
3082.44
3036.85
2990.69
2942.6
2892.42
2840.62
2790.35
2740.46
2691.22
2643.09
2596.39
2550.45
2505.62
2461.49
2418.18
2375.75
2333.88
2292.88
2252.53
2212.71
2173.31
2134.47
2096.19
2058.34
2020.94
1984.03
1947.64
1911.83
1876.64
1842.11
1808.25
1775.14
1742.66
1710.98
1679.93
1649.7
1619.98
1591.16
1562.67
1535.23
1507.81
1481.78
1455.25
1430.76
1404.7
1382.18
1355.97
1335.98
1308.74
1291.63
1258.48
8329.07
8275.3
8225.03
8166.71
8129.39
8051.83
7931.86
7693.01
7471.17
7102.81
6717.56
6302.45
5825.72
5341.92
4845.88
4362.82
3902.68
3458.8
3058.67
2700.77
2385.61
2114.8
1883.02
1690.58
1527.57
1396.64
1285.86
1199.26
1125.79
1069.01
1021.37
983.987
953.924
929.606
912.004
896.772
889.065
881.707
882.327
885.423
890.986
900.165
913.658
926.592
944.695
961.362
982.4
1001.8
1024.63
1045.93
1069.11
1090.86
1113.77
1137.99
1161.01
1184.29
1207.37
1230.42
1251.69
1272.23
1291.02
1308.49
1324.13
1337.59
1349.34
1358.69
1365.94
1371.54
1373.87
1373.64
1372.95
1370.36
1365.76
1359.7
1352.41
1344.15
1335.08
1325.38
1315.15
1304.49
1293.53
1282.14
1270.69
1258.83
1246.95
1234.67
1222.48
1209.75
1197.35
1184.17
1171.67
1157.99
1145.41
1131
1118.93
1103.74
1092.56
1076.22
1065.57
1045.27
1544.04
1607.22
1614.05
1588.31
1559.44
1505.35
1450.26
1371.47
1291.8
1200.27
1098.6
999.984
896.865
797.4
700.978
610.765
529.498
456.136
392.042
337.198
290.773
252.279
220.145
194.276
172.561
155.596
141.138
130.128
120.639
113.455
107.382
102.669
98.9555
95.9887
94.0044
92.3576
91.7943
91.4974
92.3177
93.6526
95.3508
98.044
101.922
105.698
111.15
116.473
123.409
130.415
138.8
147.852
157.778
169.037
180.766
194.124
207.775
223.152
239.007
256.901
275.238
295.215
315.868
337.391
359.806
382.172
405.272
428.007
450.655
473.107
494.854
516.131
536.956
557.293
576.835
595.597
613.373
630.241
646.061
660.907
674.704
687.476
699.301
709.914
719.711
728.23
735.897
742.333
747.833
752.077
755.646
757.975
760.012
760.696
760.109
759.798
758.589
757.266
755.593
752.527
749.712
744.648
231.124
255.455
278.219
278.506
275.643
268.702
257.955
244.185
228.457
211.54
193.596
175.861
158.276
141.597
125.937
111.565
98.6006
87.0449
76.8854
68.0429
60.4191
53.888
48.2742
43.5354
39.4168
35.9832
32.9536
30.4382
28.195
26.3096
24.6364
23.1861
21.9255
20.7922
19.8344
18.9436
18.2168
17.5331
16.9735
16.5033
16.1013
15.7868
15.5454
15.3786
15.2689
15.2995
15.3519
15.5193
15.7136
16.1316
16.5029
17.2028
17.8129
18.8517
19.778
21.2361
22.6081
24.6298
26.6592
29.3819
32.2679
35.8256
39.7216
44.258
49.202
54.8884
60.8772
67.7986
74.937
83.0889
91.4097
100.778
110.26
120.821
131.436
143.125
154.797
167.48
180.064
193.479
206.79
220.615
234.218
248.122
261.64
275.178
288.326
301.384
313.827
326.023
337.351
348.467
358.309
368.191
376.372
385.206
391.493
399.571
403.269
413.174
111.32
111.404
111.085
109.96
107.289
103.567
99.0853
93.9524
88.3047
82.4052
76.3217
70.3043
64.4201
58.8271
53.5702
48.7212
44.2812
40.2793
36.6904
33.4996
30.6775
28.1872
25.9913
24.0728
22.3681
20.8943
19.5634
18.4191
17.3724
16.4668
15.6365
14.9027
14.2364
13.6306
13.0868
12.5797
12.1296
11.7014
11.3168
10.9679
10.6364
10.3387
10.0554
9.79728
9.55206
9.33316
9.11836
8.93303
8.74446
8.59112
8.42609
8.30287
8.1603
8.06489
7.94579
7.87845
7.79027
7.74976
7.70545
7.69746
7.70893
7.74898
7.81077
7.95182
8.07241
8.33971
8.53766
8.9678
9.26728
9.91068
10.3458
11.2694
11.8827
13.1738
14.0185
15.7864
16.9362
19.2659
20.863
23.8167
26.0078
29.6511
32.5112
36.9113
40.5045
45.6753
49.9946
55.9154
60.8851
67.4905
72.9527
80.1397
85.857
93.5151
99.1888
107.229
112.534
120.995
124.858
138.096
59.5632
59.5394
59.296
58.6927
57.4835
55.8631
53.8541
51.5569
48.996
46.3045
43.5063
40.7059
37.9332
35.2667
32.7181
30.3413
28.1406
26.1415
24.316
22.6738
21.1919
19.8593
18.6663
17.6006
16.641
15.7914
15.0125
14.3292
13.6942
13.1349
12.6138
12.1458
11.7129
11.3146
10.9479
10.6049
10.2897
9.98861
9.7154
9.45357
9.21284
8.98369
8.7655
8.56031
8.36731
8.18445
8.00888
7.84461
7.68491
7.53651
7.38987
7.25459
7.11829
6.9938
6.86554
6.75041
6.6293
6.52568
6.41373
6.32072
6.21674
6.1341
6.03725
5.96475
5.8748
5.81274
5.72999
5.67888
5.6048
5.56502
5.50201
5.47441
5.4257
5.4117
5.38301
5.38352
5.38874
5.41232
5.44198
5.51856
5.5792
5.72797
5.83124
6.07639
6.23852
6.60927
6.84817
7.38049
7.71538
8.44749
8.89596
9.863
10.4397
11.6556
12.3878
13.8428
14.7501
16.4799
17.2512
20.8252
35.2482
35.2685
35.1759
34.9155
34.3894
33.6661
32.7448
31.671
30.4519
29.148
27.7757
26.3911
25.005
23.6543
22.3509
21.1088
19.946
18.8492
17.8434
16.9056
16.0517
15.2663
14.5541
13.9009
13.3064
12.7667
12.2715
11.8249
11.4091
11.032
10.6788
10.3524
10.0495
9.76167
9.49832
9.24358
9.01025
8.78288
8.57542
8.37483
8.18853
8.00578
7.83703
7.67234
7.52046
7.37107
7.23178
7.09532
6.96749
6.84246
6.72476
6.60961
6.50055
6.3937
6.29185
6.19205
6.09659
6.00321
5.91365
5.82607
5.74188
5.65952
5.58006
5.50243
5.427
5.35381
5.28189
5.21284
5.14407
5.0788
5.01285
4.9512
4.88825
4.83044
4.77018
4.71628
4.65847
4.60882
4.55333
4.50824
4.45548
4.41519
4.36601
4.33062
4.28657
4.25614
4.21907
4.19424
4.16614
4.14802
4.1314
4.12079
4.11895
4.12389
4.13112
4.15539
4.17552
4.22503
4.24959
4.41998
23.8591
23.8397
23.7856
23.626
23.3316
22.944
22.4591
21.8967
21.2602
20.5775
19.8568
19.1218
18.3778
17.6426
16.9205
16.2219
15.5515
14.9121
14.3085
13.7388
13.2052
12.7072
12.2444
11.8122
11.4152
11.046
10.7045
10.3876
10.0905
9.81401
9.55243
9.30628
9.07393
8.85163
8.64362
8.44244
8.25371
8.07118
7.90044
7.73276
7.57947
7.42654
7.28316
7.14177
7.01323
6.88345
6.76441
6.64435
6.53465
6.4235
6.32225
6.21865
6.12431
6.02691
5.93832
5.84617
5.76274
5.67547
5.59695
5.51427
5.4405
5.36209
5.29277
5.21817
5.15285
5.08164
5.01987
4.9517
4.89322
4.82767
4.77218
4.70901
4.65629
4.59521
4.54509
4.4859
4.43825
4.38081
4.33551
4.27967
4.23662
4.18223
4.14131
4.08824
4.04937
3.99747
3.96058
3.90973
3.87481
3.82494
3.79221
3.7435
3.71306
3.66559
3.63752
3.59133
3.56572
3.52134
3.49573
3.44857
18.2841
18.2359
18.1516
18.0085
17.7994
17.5471
17.2447
16.9058
16.5245
16.1189
15.6872
15.2459
14.7932
14.3421
13.8906
13.4488
13.0151
12.5953
12.1914
11.8012
11.4346
11.0804
10.7526
10.4381
10.1487
9.87146
9.61532
9.37028
9.14104
8.92213
8.71461
8.51561
8.32708
8.1438
7.97245
7.80445
7.64594
7.49345
7.34814
7.20589
7.07435
6.94286
6.81881
6.69778
6.58566
6.47172
6.36696
6.26093
6.1637
6.06484
5.97446
5.88148
5.79696
5.70926
5.62972
5.54642
5.47133
5.39209
5.32131
5.24594
5.17937
5.10763
5.04487
4.97627
4.91687
4.85097
4.79458
4.73105
4.6775
4.61608
4.56519
4.50573
4.45737
4.39967
4.35368
4.29757
4.25382
4.19917
4.15758
4.10428
4.06477
4.01271
3.97518
3.92428
3.88863
3.83877
3.80493
3.75602
3.72394
3.67589
3.64553
3.59828
3.56963
3.52311
3.49616
3.45031
3.42493
3.3803
3.3531
3.30308
15.3204
15.2378
15.1343
14.9996
14.8292
14.6333
14.4172
14.1787
13.9198
13.6418
13.3498
13.0485
12.7408
12.4307
12.1209
11.8113
11.5082
11.207
10.9162
10.6298
10.3564
10.089
9.83662
9.59239
9.36175
9.14013
8.93296
8.73322
8.54566
8.36343
8.19132
8.02228
7.86359
7.7054
7.55909
7.41166
7.27499
7.14045
7.01025
6.88603
6.76826
6.649
6.53857
6.42884
6.32652
6.22287
6.12734
6.03003
5.94017
5.84838
5.76419
5.67716
5.59791
5.51552
5.4409
5.3626
5.29223
5.21776
5.1514
5.08046
5.01788
4.95007
4.8908
4.82564
4.76926
4.70639
4.65272
4.59191
4.54083
4.48197
4.43339
4.37632
4.33011
4.27464
4.23061
4.17653
4.13454
4.08176
4.04173
3.99017
3.95205
3.90166
3.8654
3.81613
3.78167
3.73344
3.70071
3.65343
3.6224
3.576
3.54663
3.50106
3.47335
3.42853
3.40249
3.35836
3.33387
3.29096
3.26472
3.21637
13.6059
13.4959
13.3883
13.2651
13.1203
12.9531
12.7765
12.5843
12.3848
12.1699
11.95
11.7192
11.4865
11.249
11.0115
10.7733
10.5361
10.3008
10.0675
9.83767
9.61231
9.39229
9.17948
8.97366
8.77773
8.58885
8.41044
8.23916
8.07618
7.91827
7.76672
7.61875
7.47655
7.33689
7.20444
7.07287
6.94951
6.82761
6.71153
6.5975
6.49259
6.38453
6.28381
6.18331
6.09089
5.99602
5.90761
5.81734
5.73389
5.64836
5.56987
5.48824
5.41377
5.33604
5.26567
5.19165
5.12514
5.05457
4.99174
4.92438
4.86503
4.80056
4.74429
4.68229
4.6288
4.56897
4.51807
4.46026
4.41181
4.3558
4.30969
4.25532
4.21141
4.15846
4.11654
4.06484
4.0248
3.97426
3.93602
3.88659
3.85012
3.80176
3.76704
3.71968
3.68662
3.6402
3.60875
3.56318
3.5333
3.48851
3.46017
3.4161
3.38932
3.34591
3.32074
3.27791
3.25449
3.21158
3.19303
3.13348
12.5246
12.4139
12.2973
12.1781
12.0463
11.8976
11.741
11.5749
11.4042
11.2248
11.0413
10.8513
10.6589
10.4632
10.2679
10.0701
9.87446
9.67696
9.48146
9.2856
9.09337
8.90367
8.72059
8.54094
8.37076
8.20472
8.04824
7.89553
7.75149
7.60914
7.475
7.34038
7.21359
7.08621
6.96616
6.84657
6.73356
6.62267
6.5154
6.41256
6.3149
6.21468
6.12283
6.03004
5.94333
5.85409
5.77146
5.68657
5.60781
5.52702
5.45218
5.37404
5.3025
5.22742
5.15925
5.08736
5.02267
4.95391
4.89253
4.82671
4.76864
4.70561
4.65061
4.59007
4.53786
4.47952
4.42991
4.37357
4.32644
4.27191
4.22708
4.17416
4.13146
4.07995
4.0392
3.98894
3.95001
3.90089
3.8637
3.81565
3.78015
3.73311
3.69925
3.65318
3.6209
3.57571
3.54496
3.50058
3.47132
3.42768
3.39989
3.35692
3.33063
3.28827
3.26352
3.22174
3.19847
3.15781
3.13291
3.08726
11.8106
11.6859
11.5697
11.455
11.333
11.1927
11.049
10.8956
10.7431
10.5817
10.4207
10.2521
10.0841
9.91298
9.74312
9.57122
9.40092
9.22875
9.05736
8.8852
8.71625
8.54897
8.3872
8.22736
8.07445
7.92413
7.78084
7.64089
7.50685
7.37489
7.24834
7.12296
7.00379
6.88487
6.77309
6.66094
6.55612
6.45124
6.35223
6.25473
6.16308
6.06922
5.98119
5.89324
5.81139
5.72617
5.64769
5.56613
5.49107
5.41349
5.34194
5.26699
5.19871
5.12714
5.06219
4.99336
4.93136
4.86518
4.80599
4.74208
4.6855
4.62377
4.56986
4.51045
4.45925
4.40203
4.35338
4.29814
4.2519
4.1985
4.15456
4.10281
4.06102
4.01071
3.97089
3.92186
3.88386
3.83596
3.7997
3.75286
3.71827
3.67242
3.63948
3.59456
3.56319
3.51911
3.48927
3.44595
3.41757
3.37492
3.34799
3.30594
3.28044
3.23892
3.21488
3.17385
3.15118
3.11117
3.0869
3.04195
11.305
11.1869
11.0645
10.9459
10.8308
10.6965
10.5635
10.4189
10.2781
10.1287
9.98103
9.82708
9.67437
9.5185
9.36595
9.21158
9.06076
8.90794
8.75695
8.60629
8.45786
8.31204
8.16914
8.02751
7.88864
7.74872
7.61293
7.47707
7.34663
7.21678
7.09351
6.97065
6.85581
6.74037
6.63406
6.52646
6.42671
6.32698
6.2321
6.13857
6.04991
5.95938
5.87479
5.7897
5.71002
5.62701
5.55113
5.47219
5.39973
5.32458
5.25608
5.18466
5.11945
5.05073
4.98884
4.92288
4.8635
4.79966
4.74257
4.68021
4.62507
4.56481
4.51203
4.45359
4.40305
4.3466
4.29847
4.24396
4.19815
4.14548
4.10193
4.05096
4.00954
3.96006
3.92063
3.87244
3.83482
3.78775
3.75187
3.70581
3.67164
3.62653
3.59403
3.54982
3.51896
3.47558
3.44631
3.40369
3.37594
3.334
3.30771
3.26636
3.24149
3.20066
3.17718
3.13678
3.11479
3.0742
3.05665
3.0003
10.9561
10.8374
10.7178
10.5949
10.4833
10.3491
10.2225
10.0855
9.94988
9.80864
9.66696
9.52091
9.37587
9.23065
9.08854
8.94537
8.80598
8.66454
8.52767
8.38963
8.25674
8.12483
7.99553
7.86649
7.73716
7.6051
7.4755
7.34193
7.21335
7.08446
6.96263
6.84229
6.72959
6.61834
6.51519
6.41184
6.31634
6.21919
6.12895
6.03666
5.95158
5.86267
5.77965
5.69653
5.61856
5.53807
5.4644
5.38716
5.31717
5.24496
5.17853
5.10874
5.04598
4.97947
4.91925
4.85508
4.79769
4.73589
4.68062
4.62027
4.56714
4.50848
4.45726
4.40054
4.35162
4.29676
4.24994
4.19684
4.1521
4.10066
4.05792
4.00803
3.96722
3.91866
3.87965
3.83226
3.79492
3.74854
3.71283
3.66741
3.63333
3.58881
3.55638
3.51271
3.48192
3.43907
3.40989
3.36782
3.34022
3.29886
3.27278
3.23207
3.20746
3.16734
3.14416
3.10457
3.08267
3.04409
3.02047
2.97704
10.6851
10.5664
10.4346
10.3213
10.2025
10.0738
9.94317
9.8146
9.68226
9.55058
9.41688
9.28107
9.14355
9.00749
8.87353
8.7391
8.60726
8.4735
8.34042
8.20455
8.07167
7.93698
7.80656
7.67507
7.54584
7.41705
7.29132
7.16597
7.0476
6.93076
6.821
6.71252
6.61019
6.50808
6.4115
6.31442
6.22219
6.12985
6.04174
5.95328
5.87034
5.78414
5.70574
5.62502
5.54906
5.47182
5.39976
5.32493
5.25744
5.18592
5.1212
5.05327
4.99137
4.92554
4.86679
4.8038
4.7473
4.68654
4.63267
4.57398
4.52259
4.4661
4.41721
4.36278
4.31607
4.26339
4.21852
4.16726
4.12407
4.07402
4.03237
3.98337
3.94319
3.89501
3.85618
3.80892
3.77139
3.72498
3.68892
3.64337
3.60885
3.56419
3.53131
3.48761
3.45638
3.41363
3.3841
3.34224
3.31437
3.27331
3.24705
3.20673
3.18204
3.14239
3.11924
3.08019
3.05844
3.02045
2.99713
2.95426
10.506
10.3826
10.2509
10.1347
10.0108
9.87899
9.756
9.62943
9.49499
9.36716
9.23497
9.10143
8.96945
8.83885
8.71115
8.58296
8.45731
8.32792
8.19695
8.06163
7.92679
7.79012
7.65675
7.52329
7.39552
7.26935
7.15186
7.0367
6.92885
6.82248
6.72112
6.61901
6.52157
6.42252
6.32863
6.23232
6.14214
6.05113
5.96408
5.87826
5.79772
5.71405
5.63868
5.55981
5.48752
5.41327
5.34434
5.27223
5.20649
5.13815
5.07586
5.00873
4.94883
4.88539
4.8281
4.76611
4.71138
4.65247
4.60024
4.54328
4.49376
4.43883
4.39164
4.3386
4.29337
4.24186
4.19804
4.14756
4.1051
4.05535
4.01422
3.96553
3.92577
3.8779
3.83943
3.7925
3.75549
3.70922
3.67358
3.62826
3.59401
3.54972
3.517
3.47362
3.44253
3.4001
3.37067
3.32915
3.3013
3.26051
3.23424
3.19407
3.16932
3.1297
3.10646
3.06736
3.04558
3.00747
2.98432
2.94167
10.3466
10.2307
10.1
9.99326
9.87591
9.72958
9.61181
9.47809
9.35585
9.22723
9.09727
8.9596
8.82513
8.69003
8.56175
8.43392
8.30934
8.18109
8.05235
7.91986
7.78685
7.65303
7.52203
7.39261
7.26915
7.14871
7.03552
6.92547
6.82207
6.71987
6.62236
6.5251
6.43106
6.33727
6.24641
6.15625
6.06903
5.98164
5.89963
5.81607
5.737
5.65821
5.58443
5.50917
5.43904
5.36705
5.29983
5.22951
5.16677
5.09981
5.03801
4.97437
4.9158
4.85254
4.79643
4.73577
4.68171
4.62339
4.57179
4.51542
4.46639
4.41163
4.36441
4.31097
4.2657
4.2135
4.1695
4.11843
4.07581
4.02577
3.98474
3.9361
3.89683
3.84954
3.81212
3.76625
3.73048
3.68579
3.65165
3.60795
3.57535
3.53249
3.50139
3.45937
3.42967
3.38829
3.36003
3.31923
3.29226
3.25194
3.2263
3.18633
3.16201
3.12235
3.09937
3.06002
3.03852
2.99893
2.98178
2.9275
10.2174
10.0913
9.95726
9.85583
9.72986
9.59253
9.47789
9.33583
9.20982
9.08363
8.96106
8.82768
8.69679
8.56216
8.43373
8.30245
8.17483
8.04613
7.91995
7.79274
7.66802
7.54385
7.42416
7.3056
7.19158
7.07869
6.97071
6.86337
6.76143
6.65964
6.56304
6.46644
6.37463
6.28251
6.19491
6.10634
6.02265
5.93743
5.85699
5.77623
5.69999
5.6229
5.5498
5.4757
5.40668
5.33552
5.26888
5.1997
5.13703
5.07056
5.01003
4.94566
4.88689
4.82485
4.76857
4.70807
4.65341
4.59485
4.54288
4.48587
4.43572
4.38006
4.33191
4.27781
4.23158
4.17913
4.13476
4.08377
4.04128
3.99168
3.95105
3.90304
3.86442
3.81785
3.78112
3.73604
3.70116
3.65726
3.62407
3.58126
3.54963
3.50776
3.47758
3.43638
3.40752
3.3669
3.33936
3.29917
3.27283
3.23301
3.20788
3.16839
3.14448
3.10529
3.08264
3.04375
3.0223
2.98427
2.96123
2.91862
10.1506
10.0169
9.90244
9.7771
9.63686
9.51191
9.39607
9.25213
9.13181
9.00837
8.87851
8.74633
8.61529
8.4813
8.35435
8.22729
8.10211
7.97522
7.851
7.72611
7.60363
7.4816
7.36495
7.24946
7.13931
7.02873
6.92325
6.81656
6.71561
6.61342
6.51712
6.41978
6.32765
6.235
6.14685
6.05901
5.9747
5.89098
5.81207
5.73166
5.65657
5.57985
5.50925
5.43593
5.36776
5.29815
5.23278
5.16467
5.10325
5.03749
4.97722
4.9139
4.85606
4.79406
4.73883
4.67834
4.6244
4.56662
4.5147
4.45814
4.40868
4.35342
4.30528
4.25169
4.20579
4.15361
4.1095
4.05894
4.0167
3.96748
3.92712
3.87942
3.84097
3.79458
3.75786
3.71272
3.6777
3.63371
3.60033
3.55737
3.52552
3.48344
3.45308
3.41182
3.38288
3.34231
3.31475
3.27481
3.24859
3.20917
3.18426
3.14533
3.12171
3.08323
3.06093
3.02282
3.00194
2.96362
2.94703
2.89361
10.053
9.90024
9.77388
9.66666
9.52608
9.40165
9.27505
9.13967
9.01797
8.89248
8.77254
8.64844
8.52023
8.39127
8.27041
8.14822
8.02894
7.90716
7.7875
7.66638
7.54595
7.42643
7.31139
7.19686
7.0866
6.97555
6.86854
6.76123
6.65947
6.55784
6.46215
6.36693
6.2773
6.18754
6.10305
6.01817
5.93715
5.85563
5.77912
5.70126
5.62753
5.55295
5.48297
5.41043
5.34422
5.27437
5.20973
5.14249
5.08089
5.01523
4.95594
4.89241
4.83485
4.77361
4.71827
4.6584
4.60537
4.54774
4.49647
4.44073
4.39153
4.33702
4.28985
4.23684
4.19141
4.14002
4.09644
4.04639
4.0046
3.95587
3.9159
3.86846
3.83018
3.78396
3.74734
3.70228
3.66733
3.62335
3.59001
3.54706
3.51524
3.47317
3.4428
3.40161
3.37269
3.33221
3.30468
3.26488
3.23873
3.1995
3.17469
3.13598
3.1125
3.07429
3.05216
3.01435
2.99363
2.95561
2.93917
2.88612
10.0395
9.90063
9.77973
9.65553
9.5201
9.40157
9.27487
9.14092
9.03047
8.90689
8.7809
8.64246
8.50598
8.37046
8.2434
8.1193
7.99635
7.87113
7.74846
7.62509
7.50315
7.38159
7.26515
7.15006
7.03971
6.9306
6.82679
6.72347
6.62574
6.52814
6.4359
6.34389
6.25643
6.16884
6.08615
6.00185
5.92252
5.84197
5.76589
5.68831
5.61506
5.5407
5.47082
5.39858
5.33181
5.26226
5.19795
5.13102
5.06952
5.00457
4.94538
4.88251
4.82551
4.76471
4.70995
4.6506
4.59781
4.54047
4.48972
4.43409
4.38532
4.33115
4.28417
4.23153
4.18643
4.13522
4.09188
4.04202
4.00043
3.95187
3.91203
3.86473
3.82657
3.78044
3.74391
3.69893
3.664
3.62004
3.58669
3.54373
3.51191
3.46983
3.43949
3.39829
3.36938
3.32889
3.3014
3.26162
3.23551
3.19632
3.17154
3.13285
3.10939
3.0712
3.04908
3.01129
2.99058
2.95258
2.93615
2.88306
9.94514
9.79964
9.68427
9.5396
9.41439
9.29108
9.14747
9.01555
8.88765
8.76302
8.63646
8.50808
8.38084
8.25062
8.13015
8.01256
7.89701
7.78195
7.67021
7.55754
7.44687
7.33548
7.22773
7.12001
7.01632
6.91233
6.8124
6.71203
6.61632
6.52036
6.42909
6.3378
6.25107
6.16362
6.08124
5.99739
5.91817
5.83764
5.76162
5.68428
5.61142
5.53675
5.46719
5.395
5.32861
5.25924
5.19494
5.12815
5.06684
5.00201
4.943
4.88053
4.82365
4.76299
4.70837
4.64918
4.5965
4.53918
4.48858
4.43298
4.38429
4.33021
4.28331
4.23071
4.18563
4.13445
4.0912
4.04135
3.99981
3.95126
3.91143
3.86417
3.82602
3.77991
3.74343
3.69844
3.66354
3.61958
3.58623
3.54324
3.51139
3.46929
3.43891
3.39761
3.36869
3.32813
3.30062
3.26075
3.23463
3.19535
3.17057
3.13181
3.10838
3.07009
3.04798
3.01009
2.98941
2.95132
2.93486
2.88193
17.5062
17.9387
19.3776
20.1111
22.4573
24.5538
30.1139
40.8334
67.4159
211.619
15.4439
15.7053
16.6547
17.2301
19.0577
20.3462
23.1012
27.5794
36.8634
110.792
14.5653
14.6762
15.1707
15.4785
16.4241
17.7276
19.0101
21.7868
25.1968
59.2287
13.5798
13.7484
13.9399
14.3664
14.7164
15.7438
16.4488
18.3652
19.8996
35.0163
13.0081
13.1345
13.1968
13.4883
13.6802
14.3166
14.7466
16.0194
16.8833
23.8014
12.5714
12.6203
12.6454
12.8193
12.9318
13.3193
13.5813
14.3817
14.9105
18.3
12.2383
12.2418
12.2431
12.3311
12.3914
12.6183
12.7729
13.2612
13.5837
15.3527
11.9758
11.9396
11.9235
11.9508
11.9768
12.102
12.1891
12.4807
12.6687
13.6445
11.7853
11.7222
11.6726
11.6596
11.6596
11.7114
11.7535
11.9183
12.025
12.5665
11.6309
11.5555
11.4872
11.4418
11.4103
11.4128
11.4232
11.5023
11.5517
11.8658
11.5043
11.4129
11.3387
11.275
11.2238
11.1877
11.1735
11.1902
11.2108
11.3779
11.3986
11.3027
11.2168
11.1326
11.0794
11.0184
10.9802
10.9578
10.9565
11.0414
11.3228
11.2061
11.1303
11.0241
10.9517
10.8893
10.8159
10.7778
10.7434
10.7771
11.2676
11.1417
11.0504
10.9582
10.8573
10.802
10.7085
10.6625
10.5831
10.5903
11.2056
11.0942
10.9725
10.8867
10.7716
10.7104
10.599
10.5547
10.4679
10.4348
11.173
11.0583
10.9428
10.8365
10.7135
10.6534
10.5297
10.4612
10.3608
10.3164
11.149
11.0259
10.9095
10.8151
10.6786
10.6159
10.4908
10.4231
10.3175
10.243
11.1241
10.9982
10.8715
10.7726
10.6243
10.5532
10.4309
10.3438
10.2408
10.1524
11.1264
11.0004
10.8754
10.7793
10.6291
10.5452
10.4397
10.3269
10.2273
10.1434
11.095
10.9687
10.8339
10.735
10.5917
10.4884
10.3829
10.2738
10.1609
10.0595
17.088
19.2742
21.6283
26.6029
36.0125
52.9229
104.122
266.041
1687.29
1402.39
16.9763
18.9051
22.0157
26.4605
35.7933
54.1495
115.942
310.387
1845.43
1408.83
17.1985
18.6314
21.9146
26.7718
37.834
55.6089
117.238
294.991
1861.29
1421.33
17.4926
18.773
22.1852
26.8847
38.0115
56.7397
119.548
339.7
1988.89
1416.18
17.8779
18.7616
22.0692
27.1732
40.1565
62.4645
137.143
355.618
1992.34
1420.55
18.1216
19.3046
22.7846
27.9955
39.4469
61.4268
135.788
391.408
2050.56
1396.02
18.2182
19.3163
22.8387
29.0614
43.9309
70.9193
154.457
426.748
2179.08
1400.54
18.8511
19.9025
23.8282
31.1556
46.7501
74.111
166.219
496.164
2165.75
1381.37
19.0214
20.3196
24.1952
32.0513
49.1468
86.7109
205.099
638.338
2131.82
1354.2
19.5679
21.2292
26.308
36.2286
55.3291
91.8156
216.819
767.264
2061.63
1334.92
18.1533
19.8671
22.0926
28.1061
33.0851
62.6161
80.9155
317.328
1272.61
1363.02
18.1809
19.6024
21.8624
26.1232
32.1902
52.4352
78.2686
238.713
1088.79
1294.57
18.3065
20.1774
22.4427
27.0276
33.1891
51.0429
82.5007
228.141
1173.18
1296.99
18.113
19.9934
22.6661
27.0352
34.8473
51.5027
87.7787
235.922
1183.9
1300.21
18.0158
19.6906
22.6909
26.8609
33.851
53.1307
86.3294
235.603
1247.68
1312.44
17.7349
19.5824
22.0297
26.8855
33.6818
51.8505
93.7342
252.256
1333.8
1329.14
17.9583
19.4638
22.2763
26.2096
34.9186
50.7852
93.3913
250.969
1345.42
1342.21
17.7333
19.0799
22.3257
26.6025
34.605
51.6601
96.111
269.613
1472.04
1359.33
17.7226
18.9126
22.0956
26.9159
34.5605
51.7476
96.1861
255.407
1500.25
1375.58
17.4948
19.4197
21.8114
26.8105
34.3622
52.7687
104.767
284.225
1658.31
1389.15
4607.91
3458.75
2681.46
2133.92
1735
1436.2
1206.97
1027.61
884.732
769.245
674.577
596.124
530.355
474.765
427.312
386.562
351.254
320.534
293.582
269.876
248.854
230.195
213.494
198.555
185.073
172.935
161.9
151.909
142.766
134.449
126.79
119.796
113.317
107.382
101.855
96.7771
92.0231
87.6476
83.5293
79.7337
76.1423
72.8299
69.6788
66.7723
63.9918
61.4288
58.9623
56.692
54.4932
52.4737
50.5044
48.7013
46.9297
45.3142
43.7137
42.262
40.8102
39.5019
38.1798
36.998
35.7894
34.7195
33.6106
32.6402
31.619
30.7375
29.7938
28.992
28.117
27.3869
26.5729
25.9077
25.1482
24.5418
23.8311
23.2781
22.6119
22.1072
21.482
21.0208
20.4345
20.0127
19.4638
19.0782
18.5656
18.2152
17.7383
17.4235
16.9849
16.7075
16.3159
16.081
15.7558
15.5775
15.3616
15.2795
15.3148
15.4685
15.9387
16.8088
4607.38
3457.8
2680.39
2132.84
1733.98
1435.25
1206.1
1026.82
884.008
768.584
673.974
595.572