/*--------------------------------*- C++ -*----------------------------------*\
  =========                 |
  \\      /  F ield         | OpenFOAM: The Open Source CFD Toolbox
   \\    /   O peration     | Website:  https://openfoam.org
    \\  /    A nd           | Version:  8
     \\/     M anipulation  |
\*---------------------------------------------------------------------------*/
FoamFile
{
    version     2.0;
    format      ascii;
    class       volScalarField;
    location    "0.999971";
    object      I;
}
// * * * * * * * * * * * * * * * * * * * * * * * * * * * * * * * * * * * * * //

dimensions      [0 -3 -1 0 0 0 0];

internalField   nonuniform List<scalar> 
6800
(
701758
709316
759097
937597
1.4709e+06
3.64076e+06
1.55343e+07
2.85291e+07
3.55813e+07
3.73224e+07
651965
698223
874005
1.55949e+06
5.59819e+06
2.18151e+07
3.41795e+07
3.92282e+07
3.95158e+07
3.86878e+07
676446
864766
1.47853e+06
6.02489e+06
2.35031e+07
3.78898e+07
4.19096e+07
4.13045e+07
3.87663e+07
3.43851e+07
679265
1.72557e+06
3.71342e+06
2.10666e+07
3.81494e+07
4.39808e+07
4.35485e+07
3.95907e+07
3.57353e+07
3.29122e+07
575525
3.89832e+06
1.29028e+07
3.5286e+07
4.55175e+07
4.66111e+07
4.3382e+07
3.75749e+07
3.46708e+07
3.23816e+07
668694
1.30418e+07
2.1398e+07
4.55474e+07
4.88255e+07
4.72726e+07
4.13887e+07
3.72774e+07
3.494e+07
3.46267e+07
864134
1.98777e+07
3.9987e+07
6.09633e+07
5.25452e+07
4.74225e+07
4.20893e+07
3.80559e+07
3.59732e+07
3.50127e+07
1.96612e+06
6.67284e+07
6.13198e+07
6.80585e+07
5.30452e+07
4.72155e+07
4.18886e+07
3.85019e+07
3.74464e+07
3.84094e+07
5.88636e+06
9.46015e+07
6.80418e+07
7.73675e+07
5.45761e+07
4.84436e+07
4.16386e+07
3.96568e+07
3.88692e+07
3.88016e+07
1.33293e+07
1.79382e+08
8.28549e+07
8.61063e+07
6.69271e+07
4.98457e+07
4.17533e+07
3.92696e+07
4.02879e+07
3.97781e+07
746305
727246
715862
713172
714432
718141
723929
730634
737848
745097
743899
726887
715828
712896
714294
718001
723864
730973
739153
747871
742504
725348
715774
713220
714656
718472
724575
732590
742497
754499
740604
724394
716018
713971
715556
719718
725828
733790
744385
760816
736726
722682
716366
715300
717881
723169
730033
737664
747545
765560
730695
720154
716246
717898
724571
735286
748088
758000
760752
774797
724311
717103
716553
725485
740900
766450
795876
828528
841278
913507
717514
713452
721026
737007
766416
824371
884205
990487
1.11496e+06
1.814e+06
709305
710235
726682
752975
808760
949864
1.12136e+06
1.65354e+06
2.51566e+06
8.50963e+06
717984
711571
727154
789110
939270
1.34027e+06
2.23827e+06
6.15251e+06
1.71026e+07
3.01777e+07
753991
764804
774226
781539
786563
789807
791440
791721
790967
789261
787028
784628
782390
780844
779867
779805
780952
783371
787390
793047
800333
809581
820656
833622
848579
864803
883133
903587
925833
949839
975575
1.00302e+06
1.03216e+06
1.06298e+06
1.09546e+06
1.12996e+06
1.16594e+06
1.20269e+06
1.24153e+06
1.28182e+06
1.32355e+06
1.36669e+06
1.41118e+06
1.45693e+06
1.50384e+06
1.55179e+06
1.60066e+06
1.65034e+06
1.70069e+06
1.75163e+06
1.80305e+06
1.85489e+06
1.90707e+06
1.95953e+06
2.0122e+06
2.06496e+06
2.11768e+06
2.17026e+06
2.22254e+06
2.27435e+06
2.32553e+06
2.37593e+06
2.42546e+06
2.47404e+06
2.52164e+06
2.56825e+06
2.61392e+06
2.65869e+06
2.70263e+06
2.74583e+06
2.78836e+06
2.83033e+06
2.87181e+06
2.91286e+06
2.95355e+06
2.99389e+06
3.03389e+06
3.07353e+06
3.11279e+06
3.15162e+06
3.18995e+06
3.22773e+06
3.2649e+06
3.30138e+06
3.33716e+06
3.37217e+06
3.40647e+06
3.43992e+06
3.47279e+06
3.5047e+06
3.53646e+06
3.5668e+06
3.59812e+06
3.62663e+06
3.65875e+06
3.6846e+06
3.7192e+06
3.74244e+06
3.77638e+06
3.81288e+06
758535
771799
783276
791958
798137
802119
804077
804344
803343
800965
797744
794173
790682
787665
785283
783305
782751
783647
785739
789446
794790
801948
810949
821847
834718
849308
865578
884180
904669
926995
951122
977034
1.00473e+06
1.0342e+06
1.06544e+06
1.09872e+06
1.13377e+06
1.16952e+06
1.2075e+06
1.24704e+06
1.2881e+06
1.33062e+06
1.37452e+06
1.41971e+06
1.46606e+06
1.51344e+06
1.56175e+06
1.61085e+06
1.66063e+06
1.711e+06
1.76185e+06
1.81314e+06
1.86477e+06
1.9167e+06
1.96887e+06
2.02111e+06
2.0733e+06
2.12532e+06
2.17703e+06
2.22825e+06
2.27881e+06
2.32861e+06
2.37753e+06
2.42553e+06
2.47259e+06
2.51873e+06
2.564e+06
2.60844e+06
2.65214e+06
2.69518e+06
2.73763e+06
2.77958e+06
2.8211e+06
2.86224e+06
2.90304e+06
2.9435e+06
2.98363e+06
3.02339e+06
3.06274e+06
3.10163e+06
3.14001e+06
3.17781e+06
3.21498e+06
3.25147e+06
3.28726e+06
3.32228e+06
3.35662e+06
3.39014e+06
3.42313e+06
3.45518e+06
3.48717e+06
3.51777e+06
3.5494e+06
3.57832e+06
3.61079e+06
3.63729e+06
3.67204e+06
3.69654e+06
3.73039e+06
3.768e+06
766984
785420
799856
811318
819720
825078
827406
827208
825142
821553
816704
811255
805502
799820
794774
790501
786957
784621
783511
783843
785715
789353
794854
802279
811768
823356
836723
851986
869631
889252
910795
934260
959664
987011
1.01628e+06
1.04761e+06
1.08128e+06
1.11543e+06
1.15208e+06
1.19038e+06
1.23029e+06
1.2717e+06
1.31454e+06
1.35867e+06
1.40397e+06
1.45031e+06
1.49758e+06
1.54564e+06
1.59438e+06
1.64372e+06
1.69354e+06
1.74382e+06
1.79446e+06
1.84543e+06
1.89667e+06
1.94794e+06
1.99909e+06
2.05006e+06
2.10071e+06
2.15083e+06
2.20029e+06
2.24897e+06
2.2968e+06
2.34375e+06
2.38983e+06
2.4351e+06
2.47962e+06
2.52344e+06
2.56665e+06
2.60931e+06
2.65152e+06
2.69332e+06
2.73478e+06
2.77591e+06
2.81674e+06
2.85724e+06
2.8974e+06
2.93717e+06
2.97652e+06
3.01537e+06
3.05368e+06
3.09139e+06
3.12848e+06
3.16488e+06
3.20061e+06
3.23561e+06
3.26998e+06
3.3036e+06
3.33678e+06
3.36909e+06
3.40144e+06
3.43248e+06
3.46465e+06
3.49426e+06
3.52727e+06
3.55492e+06
3.58983e+06
3.61651e+06
3.6496e+06
3.69002e+06
776274
802772
822283
837347
848477
855684
858719
858273
854792
849496
842999
835188
826507
817571
808843
800896
793845
787918
783209
779850
778187
778341
780409
784456
790456
798661
809693
821871
836352
853373
872489
893739
917162
942755
970532
1.0003e+06
1.03313e+06
1.06606e+06
1.10167e+06
1.13891e+06
1.17777e+06
1.2181e+06
1.25985e+06
1.30289e+06
1.34704e+06
1.3922e+06
1.43826e+06
1.48508e+06
1.53256e+06
1.5806e+06
1.62911e+06
1.67808e+06
1.72736e+06
1.777e+06
1.82693e+06
1.87674e+06
1.92629e+06
1.97561e+06
2.02461e+06
2.07302e+06
2.12072e+06
2.16759e+06
2.21364e+06
2.2589e+06
2.30339e+06
2.34722e+06
2.39046e+06
2.43316e+06
2.47541e+06
2.51727e+06
2.55881e+06
2.60006e+06
2.64106e+06
2.6818e+06
2.72225e+06
2.76239e+06
2.80217e+06
2.84153e+06
2.88043e+06
2.91881e+06
2.95663e+06
2.99385e+06
3.03046e+06
3.0664e+06
3.10173e+06
3.13639e+06
3.17052e+06
3.20399e+06
3.23714e+06
3.26954e+06
3.30211e+06
3.33349e+06
3.36608e+06
3.39643e+06
3.42982e+06
3.45885e+06
3.49358e+06
3.52306e+06
3.55468e+06
3.59866e+06
788154
826525
853035
872182
886188
895223
898380
897291
892650
885202
876032
865737
854397
842664
830884
819950
810226
801638
794214
788122
783577
780899
780209
781592
785318
791654
801662
812974
825704
841602
859930
880618
903690
929111
956906
986586
1.01972e+06
1.05287e+06
1.08852e+06
1.12569e+06
1.1644e+06
1.20447e+06
1.24593e+06
1.28862e+06
1.33227e+06
1.37684e+06
1.42222e+06
1.46826e+06
1.51485e+06
1.56192e+06
1.60933e+06
1.65712e+06
1.70507e+06
1.75338e+06
1.80203e+06
1.85013e+06
1.89771e+06
1.94504e+06
1.99202e+06
2.03827e+06
2.08363e+06
2.12805e+06
2.17158e+06
2.21434e+06
2.25641e+06
2.29797e+06
2.3391e+06
2.37987e+06
2.42037e+06
2.46063e+06
2.50071e+06
2.54061e+06
2.58034e+06
2.61985e+06
2.65909e+06
2.698e+06
2.73652e+06
2.7746e+06
2.81218e+06
2.84922e+06
2.88568e+06
2.92152e+06
2.95677e+06
2.9914e+06
3.02552e+06
3.05908e+06
3.09224e+06
3.12489e+06
3.15737e+06
3.18928e+06
3.22148e+06
3.25271e+06
3.2852e+06
3.31596e+06
3.34909e+06
3.37934e+06
3.41313e+06
3.44554e+06
3.47489e+06
3.5223e+06
822329
870747
907244
929999
945188
954505
956504
953537
946987
937159
925924
914745
902627
890281
877484
865979
856254
847603
839890
833412
828419
825515
824779
826432
831100
838911
851115
863601
878150
896040
916751
940027
965900
994330
1.02515e+06
1.05799e+06
1.09357e+06
1.13037e+06
1.16802e+06
1.2071e+06
1.24748e+06
1.28886e+06
1.33151e+06
1.37523e+06
1.41955e+06
1.46453e+06
1.51004e+06
1.55599e+06
1.60218e+06
1.64856e+06
1.69492e+06
1.74141e+06
1.78765e+06
1.83428e+06
1.88136e+06
1.92677e+06
1.97132e+06
2.0158e+06
2.05989e+06
2.10278e+06
2.1444e+06
2.1848e+06
2.22421e+06
2.26292e+06
2.30101e+06
2.33884e+06
2.37646e+06
2.41391e+06
2.45127e+06
2.48857e+06
2.52581e+06
2.56299e+06
2.60006e+06
2.63693e+06
2.67354e+06
2.70978e+06
2.74561e+06
2.78095e+06
2.81577e+06
2.85005e+06
2.88378e+06
2.91694e+06
2.94962e+06
2.98179e+06
3.01359e+06
3.04497e+06
3.07613e+06
3.10698e+06
3.13777e+06
3.16828e+06
3.19912e+06
3.22934e+06
3.26077e+06
3.29126e+06
3.32297e+06
3.35391e+06
3.38572e+06
3.42049e+06
3.44681e+06
3.49665e+06
984242
1.00722e+06
1.04883e+06
1.06195e+06
1.07237e+06
1.07471e+06
1.07332e+06
1.06802e+06
1.0598e+06
1.04944e+06
1.03695e+06
1.02759e+06
1.0185e+06
1.01119e+06
1.00261e+06
996848
994105
991930
989967
989044
989940
993852
999805
1.00858e+06
1.02236e+06
1.03965e+06
1.05797e+06
1.07724e+06
1.10148e+06
1.12793e+06
1.15766e+06
1.1898e+06
1.22449e+06
1.26197e+06
1.30104e+06
1.34269e+06
1.38441e+06
1.4299e+06
1.47231e+06
1.51567e+06
1.5596e+06
1.60351e+06
1.64852e+06
1.6943e+06
1.73958e+06
1.78503e+06
1.83026e+06
1.87551e+06
1.92001e+06
1.9641e+06
2.00729e+06
2.04993e+06
2.09167e+06
2.13399e+06
2.17717e+06
2.21617e+06
2.25419e+06
2.29271e+06
2.33077e+06
2.36666e+06
2.40054e+06
2.43286e+06
2.4642e+06
2.49522e+06
2.52575e+06
2.55656e+06
2.58752e+06
2.61855e+06
2.64971e+06
2.68103e+06
2.71243e+06
2.7439e+06
2.77533e+06
2.8066e+06
2.83762e+06
2.86824e+06
2.89848e+06
2.92819e+06
2.95746e+06
2.98626e+06
3.01457e+06
3.04248e+06
3.07015e+06
3.09749e+06
3.12472e+06
3.1518e+06
3.17888e+06
3.20595e+06
3.23307e+06
3.26039e+06
3.2879e+06
3.31553e+06
3.34405e+06
3.37282e+06
3.40117e+06
3.43161e+06
3.45985e+06
3.49548e+06
3.51805e+06
3.56792e+06
1.76611e+06
1.67966e+06
1.60122e+06
1.55268e+06
1.50407e+06
1.47464e+06
1.4489e+06
1.43414e+06
1.41925e+06
1.41344e+06
1.40373e+06
1.40652e+06
1.41207e+06
1.42207e+06
1.43298e+06
1.45439e+06
1.48056e+06
1.50566e+06
1.52991e+06
1.55547e+06
1.5881e+06
1.62621e+06
1.66059e+06
1.70779e+06
1.74575e+06
1.79105e+06
1.84233e+06
1.89211e+06
1.94706e+06
1.99894e+06
2.05457e+06
2.10944e+06
2.16481e+06
2.22219e+06
2.27605e+06
2.33329e+06
2.38168e+06
2.43795e+06
2.48139e+06
2.52276e+06
2.56187e+06
2.59737e+06
2.63504e+06
2.67324e+06
2.70721e+06
2.74051e+06
2.77139e+06
2.80211e+06
2.82879e+06
2.85489e+06
2.87881e+06
2.8999e+06
2.92198e+06
2.94512e+06
2.96764e+06
2.98763e+06
3.0073e+06
3.02484e+06
3.04116e+06
3.05461e+06
3.06734e+06
3.07905e+06
3.09058e+06
3.10329e+06
3.11588e+06
3.13009e+06
3.14524e+06
3.16081e+06
3.17689e+06
3.19354e+06
3.21057e+06
3.22806e+06
3.24579e+06
3.26363e+06
3.28142e+06
3.29894e+06
3.31645e+06
3.33351e+06
3.35066e+06
3.36761e+06
3.3845e+06
3.4017e+06
3.41927e+06
3.43675e+06
3.45488e+06
3.47317e+06
3.49176e+06
3.51087e+06
3.53015e+06
3.55046e+06
3.57068e+06
3.59252e+06
3.61405e+06
3.63802e+06
3.66047e+06
3.68744e+06
3.70933e+06
3.74198e+06
3.76109e+06
3.80386e+06
7.8265e+06
6.53864e+06
5.58998e+06
4.95553e+06
4.42552e+06
4.06792e+06
3.81191e+06
3.6206e+06
3.50437e+06
3.43751e+06
3.40596e+06
3.46026e+06
3.55526e+06
3.66581e+06
3.80242e+06
3.96256e+06
4.16271e+06
4.36053e+06
4.5814e+06
4.84067e+06
5.06813e+06
5.32035e+06
5.55888e+06
5.79152e+06
6.02442e+06
6.22159e+06
6.42605e+06
6.5694e+06
6.72797e+06
6.8276e+06
6.93354e+06
7.0039e+06
7.06522e+06
7.1053e+06
7.12034e+06
7.12486e+06
7.09537e+06
7.0625e+06
6.99954e+06
6.90987e+06
6.80228e+06
6.6779e+06
6.56454e+06
6.45494e+06
6.32738e+06
6.20581e+06
6.07486e+06
5.9615e+06
5.83576e+06
5.72012e+06
5.6079e+06
5.48952e+06
5.38675e+06
5.29513e+06
5.2075e+06
5.12683e+06
5.05448e+06
4.97868e+06
4.90851e+06
4.84049e+06
4.78051e+06
4.72422e+06
4.67252e+06
4.62817e+06
4.58488e+06
4.54736e+06
4.51246e+06
4.4791e+06
4.4477e+06
4.41861e+06
4.39153e+06
4.36693e+06
4.34413e+06
4.32315e+06
4.3035e+06
4.28504e+06
4.26855e+06
4.25276e+06
4.23963e+06
4.22696e+06
4.21897e+06
4.21236e+06
4.20653e+06
4.2002e+06
4.19964e+06
4.19579e+06
4.19462e+06
4.19465e+06
4.19569e+06
4.19959e+06
4.20342e+06
4.21127e+06
4.21776e+06
4.229e+06
4.23914e+06
4.25541e+06
4.26627e+06
4.28693e+06
4.29839e+06
4.3237e+06
2.74648e+07
2.60281e+07
2.35298e+07
2.1925e+07
2.04898e+07
1.93883e+07
1.85198e+07
1.7894e+07
1.74091e+07
1.70428e+07
1.68514e+07
1.66852e+07
1.66177e+07
1.64115e+07
1.63465e+07
1.61158e+07
1.59388e+07
1.56873e+07
1.53683e+07
1.51262e+07
1.48145e+07
1.46026e+07
1.43697e+07
1.42056e+07
1.40772e+07
1.39653e+07
1.39147e+07
1.38279e+07
1.38275e+07
1.37673e+07
1.37751e+07
1.37502e+07
1.37488e+07
1.37352e+07
1.37246e+07
1.37342e+07
1.36824e+07
1.36803e+07
1.36637e+07
1.36168e+07
1.34883e+07
1.3468e+07
1.34064e+07
1.33405e+07
1.32735e+07
1.31546e+07
1.30299e+07
1.2927e+07
1.28098e+07
1.26963e+07
1.2539e+07
1.23577e+07
1.21657e+07
1.19456e+07
1.17192e+07
1.1457e+07
1.11902e+07
1.09157e+07
1.0639e+07
1.03377e+07
1.00376e+07
9.73607e+06
9.43062e+06
9.15055e+06
8.85537e+06
8.58196e+06
8.31808e+06
8.06229e+06
7.8195e+06
7.59559e+06
7.38858e+06
7.19991e+06
7.02553e+06
6.86578e+06
6.71767e+06
6.58312e+06
6.46049e+06
6.34891e+06
6.24737e+06
6.15484e+06
6.06953e+06
5.99279e+06
5.92144e+06
5.85696e+06
5.79701e+06
5.74332e+06
5.69274e+06
5.64801e+06
5.60451e+06
5.5677e+06
5.53104e+06
5.50227e+06
5.47294e+06
5.45083e+06
5.43106e+06
5.4153e+06
5.40355e+06
5.39115e+06
5.3798e+06
5.36628e+06
3.55673e+07
3.49387e+07
3.34654e+07
3.24343e+07
3.1526e+07
3.07578e+07
2.99943e+07
2.93605e+07
2.86845e+07
2.79574e+07
2.72861e+07
2.64194e+07
2.55917e+07
2.44821e+07
2.3562e+07
2.24531e+07
2.14996e+07
2.05336e+07
1.96005e+07
1.88224e+07
1.80583e+07
1.74964e+07
1.69594e+07
1.65757e+07
1.62449e+07
1.59789e+07
1.57843e+07
1.55934e+07
1.54969e+07
1.53619e+07
1.53051e+07
1.52438e+07
1.51907e+07
1.51653e+07
1.51492e+07
1.51452e+07
1.50991e+07
1.51453e+07
1.51662e+07
1.51515e+07
1.51575e+07
1.52335e+07
1.52609e+07
1.53536e+07
1.53946e+07
1.54283e+07
1.54597e+07
1.55073e+07
1.55543e+07
1.56628e+07
1.57341e+07
1.58466e+07
1.59295e+07
1.59858e+07
1.59961e+07
1.59867e+07
1.5968e+07
1.59564e+07
1.59294e+07
1.58629e+07
1.58088e+07
1.57355e+07
1.56615e+07
1.55702e+07
1.54413e+07
1.52738e+07
1.50522e+07
1.47969e+07
1.45128e+07
1.42019e+07
1.38727e+07
1.35235e+07
1.31709e+07
1.2808e+07
1.2454e+07
1.20995e+07
1.17559e+07
1.14174e+07
1.10933e+07
1.07773e+07
1.04745e+07
1.0187e+07
9.91243e+06
9.65294e+06
9.411e+06
9.18558e+06
8.97698e+06
8.78496e+06
8.60658e+06
8.44427e+06
8.29259e+06
8.15607e+06
8.0296e+06
7.91686e+06
7.81654e+06
7.72182e+06
7.6452e+06
7.55966e+06
7.5167e+06
7.37432e+06
3.40196e+07
3.39735e+07
3.33381e+07
3.28047e+07
3.22179e+07
3.15884e+07
3.08527e+07
3.0218e+07
2.94603e+07
2.87199e+07
2.79168e+07
2.69337e+07
2.5944e+07
2.47491e+07
2.37165e+07
2.25046e+07
2.15006e+07
2.04649e+07
1.96147e+07
1.887e+07
1.81726e+07
1.76818e+07
1.72034e+07
1.68746e+07
1.65599e+07
1.63076e+07
1.61008e+07
1.59182e+07
1.57996e+07
1.56604e+07
1.55889e+07
1.55199e+07
1.54457e+07
1.54173e+07
1.54183e+07
1.53539e+07
1.53711e+07
1.53856e+07
1.53895e+07
1.54323e+07
1.54901e+07
1.55156e+07
1.56187e+07
1.5657e+07
1.56603e+07
1.5722e+07
1.57641e+07
1.58116e+07
1.58691e+07
1.59599e+07
1.60619e+07
1.61704e+07
1.62951e+07
1.63699e+07
1.64703e+07
1.65103e+07
1.66001e+07
1.66634e+07
1.67432e+07
1.68267e+07
1.69022e+07
1.70156e+07
1.71016e+07
1.71903e+07
1.72742e+07
1.73499e+07
1.73923e+07
1.74131e+07
1.74625e+07
1.74486e+07
1.74233e+07
1.73303e+07
1.72157e+07
1.70571e+07
1.69164e+07
1.67449e+07
1.6608e+07
1.64365e+07
1.6301e+07
1.61198e+07
1.59747e+07
1.57773e+07
1.56057e+07
1.53855e+07
1.51912e+07
1.49451e+07
1.47286e+07
1.44583e+07
1.42227e+07
1.3935e+07
1.3691e+07
1.33984e+07
1.31603e+07
1.28659e+07
1.26433e+07
1.235e+07
1.21547e+07
1.18673e+07
1.16673e+07
1.13813e+07
3.20264e+07
3.21909e+07
3.1697e+07
3.12821e+07
3.07838e+07
3.01422e+07
2.95225e+07
2.88824e+07
2.82199e+07
2.74648e+07
2.66442e+07
2.57229e+07
2.47933e+07
2.38013e+07
2.28831e+07
2.19689e+07
2.11719e+07
2.03892e+07
1.96787e+07
1.90412e+07
1.84875e+07
1.80794e+07
1.76491e+07
1.73555e+07
1.70721e+07
1.68467e+07
1.66644e+07
1.64725e+07
1.63418e+07
1.61781e+07
1.60963e+07
1.59972e+07
1.58994e+07
1.58826e+07
1.5826e+07
1.57686e+07
1.57754e+07
1.57443e+07
1.57384e+07
1.57528e+07
1.57759e+07
1.58199e+07
1.58691e+07
1.58628e+07
1.58461e+07
1.58538e+07
1.58862e+07
1.59186e+07
1.59833e+07
1.603e+07
1.61216e+07
1.61902e+07
1.63061e+07
1.63784e+07
1.6486e+07
1.65457e+07
1.66434e+07
1.67055e+07
1.67965e+07
1.68722e+07
1.69423e+07
1.70553e+07
1.71225e+07
1.72376e+07
1.73168e+07
1.742e+07
1.74951e+07
1.75354e+07
1.76433e+07
1.76854e+07
1.77262e+07
1.77571e+07
1.77422e+07
1.78101e+07
1.77527e+07
1.78321e+07
1.78007e+07
1.77694e+07
1.76093e+07
1.74243e+07
1.74496e+07
1.73706e+07
1.73224e+07
1.73237e+07
1.73143e+07
1.73321e+07
1.73357e+07
1.73141e+07
1.73036e+07
1.72379e+07
1.72004e+07
1.71848e+07
1.71512e+07
1.7079e+07
1.70203e+07
1.69078e+07
1.68236e+07
1.66766e+07
1.65509e+07
1.63675e+07
3.12909e+07
3.14405e+07
3.096e+07
3.07274e+07
3.02766e+07
2.9537e+07
2.87925e+07
2.81087e+07
2.75064e+07
2.68989e+07
2.62407e+07
2.54897e+07
2.46737e+07
2.38241e+07
2.29847e+07
2.21983e+07
2.14472e+07
2.07736e+07
2.01927e+07
1.96442e+07
1.9228e+07
1.87979e+07
1.84321e+07
1.81502e+07
1.78196e+07
1.76015e+07
1.72802e+07
1.70591e+07
1.67996e+07
1.65614e+07
1.63984e+07
1.62048e+07
1.60754e+07
1.60121e+07
1.59185e+07
1.58552e+07
1.58506e+07
1.57773e+07
1.57623e+07
1.56587e+07
1.5713e+07
1.57404e+07
1.58353e+07
1.58448e+07
1.58654e+07
1.58655e+07
1.58384e+07
1.58562e+07
1.59077e+07
1.59587e+07
1.60218e+07
1.6107e+07
1.61931e+07
1.63025e+07
1.63782e+07
1.64918e+07
1.65482e+07
1.66641e+07
1.67179e+07
1.68246e+07
1.68757e+07
1.69787e+07
1.70345e+07
1.7131e+07
1.7174e+07
1.7263e+07
1.72998e+07
1.73787e+07
1.74423e+07
1.7491e+07
1.75921e+07
1.76374e+07
1.76748e+07
1.77076e+07
1.76941e+07
1.77557e+07
1.771e+07
1.7726e+07
1.76325e+07
1.76542e+07
1.763e+07
1.74905e+07
1.75117e+07
1.74386e+07
1.74053e+07
1.74267e+07
1.74481e+07
1.749e+07
1.75268e+07
1.75619e+07
1.76035e+07
1.7633e+07
1.76715e+07
1.76946e+07
1.77186e+07
1.77368e+07
1.77518e+07
1.77616e+07
1.77721e+07
1.77669e+07
3.08112e+07
3.07459e+07
3.01119e+07
3.01774e+07
3.00536e+07
2.95555e+07
2.88104e+07
2.8002e+07
2.72841e+07
2.66856e+07
2.60913e+07
2.54774e+07
2.47381e+07
2.39821e+07
2.31764e+07
2.24221e+07
2.17277e+07
2.10525e+07
2.0493e+07
1.99365e+07
1.95132e+07
1.90694e+07
1.87262e+07
1.84185e+07
1.80678e+07
1.78124e+07
1.74513e+07
1.72048e+07
1.68827e+07
1.662e+07
1.64097e+07
1.61787e+07
1.60491e+07
1.59429e+07
1.58614e+07
1.57914e+07
1.57592e+07
1.56976e+07
1.56788e+07
1.56366e+07
1.56378e+07
1.56495e+07
1.57187e+07
1.57344e+07
1.57605e+07
1.57747e+07
1.57474e+07
1.57567e+07
1.5791e+07
1.58575e+07
1.59235e+07
1.60088e+07
1.61087e+07
1.61918e+07
1.629e+07
1.6371e+07
1.64358e+07
1.65225e+07
1.65738e+07
1.66557e+07
1.67051e+07
1.67648e+07
1.68292e+07
1.68719e+07
1.69505e+07
1.69931e+07
1.70422e+07
1.70894e+07
1.71526e+07
1.71938e+07
1.72022e+07
1.72879e+07
1.73054e+07
1.73287e+07
1.72791e+07
1.73279e+07
1.72692e+07
1.72369e+07
1.72401e+07
1.72436e+07
1.72607e+07
1.7277e+07
1.72906e+07
1.73189e+07
1.73317e+07
1.73655e+07
1.73866e+07
1.74162e+07
1.74476e+07
1.74719e+07
1.75059e+07
1.75303e+07
1.75603e+07
1.75905e+07
1.76147e+07
1.76417e+07
1.76602e+07
1.77004e+07
1.77083e+07
1.7788e+07
2.99328e+07
2.98848e+07
2.80143e+07
2.7817e+07
2.82247e+07
2.85267e+07
2.82178e+07
2.76092e+07
2.68743e+07
2.61774e+07
2.55057e+07
2.48839e+07
2.42163e+07
2.35379e+07
2.28379e+07
2.21174e+07
2.14696e+07
2.08179e+07
2.03013e+07
1.98274e+07
1.94428e+07
1.91003e+07
1.8791e+07
1.84758e+07
1.81421e+07
1.78594e+07
1.75209e+07
1.72288e+07
1.68744e+07
1.65809e+07
1.63157e+07
1.60546e+07
1.59398e+07
1.58002e+07
1.56981e+07
1.5665e+07
1.56332e+07
1.55757e+07
1.55871e+07
1.55889e+07
1.55462e+07
1.55992e+07
1.55817e+07
1.55651e+07
1.56323e+07
1.5642e+07
1.5664e+07
1.56656e+07
1.56976e+07
1.57633e+07
1.58392e+07
1.5926e+07
1.59934e+07
1.60626e+07
1.6105e+07
1.61574e+07
1.61928e+07
1.62409e+07
1.62923e+07
1.63348e+07
1.63804e+07
1.64509e+07
1.64758e+07
1.65701e+07
1.66174e+07
1.67169e+07
1.67623e+07
1.68314e+07
1.69292e+07
1.68657e+07
1.69114e+07
1.6852e+07
1.68315e+07
1.68621e+07
1.68986e+07
1.69523e+07
1.70013e+07
1.70523e+07
1.7104e+07
1.71481e+07
1.7196e+07
1.72365e+07
1.72747e+07
1.73156e+07
1.73432e+07
1.73809e+07
1.74046e+07
1.74347e+07
1.74591e+07
1.74827e+07
1.75083e+07
1.75283e+07
1.75527e+07
1.75772e+07
1.75914e+07
1.76274e+07
1.76424e+07
1.76765e+07
1.76959e+07
1.77158e+07
2.89759e+07
2.88148e+07
2.75524e+07
2.69021e+07
2.5863e+07
2.5733e+07
2.63668e+07
2.64964e+07
2.60858e+07
2.5367e+07
2.45753e+07
2.38379e+07
2.32123e+07
2.26181e+07
2.20616e+07
2.14757e+07
2.08996e+07
2.03273e+07
1.9824e+07
1.93797e+07
1.90058e+07
1.87056e+07
1.84544e+07
1.82219e+07
1.80431e+07
1.78131e+07
1.75701e+07
1.72527e+07
1.69043e+07
1.65641e+07
1.62251e+07
1.59412e+07
1.57502e+07
1.55829e+07
1.54943e+07
1.5481e+07
1.54318e+07
1.54312e+07
1.54547e+07
1.54093e+07
1.54004e+07
1.54869e+07
1.54392e+07
1.55104e+07
1.5535e+07
1.5584e+07
1.56067e+07
1.56159e+07
1.56132e+07
1.56246e+07
1.56933e+07
1.57956e+07
1.58687e+07
1.59218e+07
1.59614e+07
1.59681e+07
1.59995e+07
1.60233e+07
1.60717e+07
1.61217e+07
1.6177e+07
1.62106e+07
1.62421e+07
1.62633e+07
1.62785e+07
1.63064e+07
1.63883e+07
1.64116e+07
1.64395e+07
1.6455e+07
1.64246e+07
1.64243e+07
1.64635e+07
1.65228e+07
1.65961e+07
1.66696e+07
1.67474e+07
1.68146e+07
1.68882e+07
1.69429e+07
1.70028e+07
1.70464e+07
1.70921e+07
1.71281e+07
1.71677e+07
1.71956e+07
1.7235e+07
1.72583e+07
1.72887e+07
1.73144e+07
1.73318e+07
1.73592e+07
1.7371e+07
1.7399e+07
1.74115e+07
1.74412e+07
1.7452e+07
1.74897e+07
1.74998e+07
1.75589e+07
2.78277e+07
2.78658e+07
2.71576e+07
2.63756e+07
2.61134e+07
2.60247e+07
2.59985e+07
2.58554e+07
2.53813e+07
2.46935e+07
2.3912e+07
2.32274e+07
2.26738e+07
2.21467e+07
2.16772e+07
2.10891e+07
2.05375e+07
1.98844e+07
1.9388e+07
1.89165e+07
1.85949e+07
1.83636e+07
1.82284e+07
1.80963e+07
1.80057e+07
1.78291e+07
1.76685e+07
1.73409e+07
1.70038e+07
1.66151e+07
1.61859e+07
1.59117e+07
1.56575e+07
1.54884e+07
1.54363e+07
1.53656e+07
1.53665e+07
1.53693e+07
1.53588e+07
1.528e+07
1.52839e+07
1.53678e+07
1.54226e+07
1.55109e+07
1.54606e+07
1.54801e+07
1.54783e+07
1.54749e+07
1.5482e+07
1.54327e+07
1.54363e+07
1.5502e+07
1.55638e+07
1.56228e+07
1.56799e+07
1.57006e+07
1.57066e+07
1.57338e+07
1.57791e+07
1.58234e+07
1.58687e+07
1.58824e+07
1.59111e+07
1.59177e+07
1.59385e+07
1.59514e+07
1.59674e+07
1.60385e+07
1.605e+07
1.60231e+07
1.60126e+07
1.60422e+07
1.6107e+07
1.6181e+07
1.62708e+07
1.63563e+07
1.64398e+07
1.6517e+07
1.65839e+07
1.66415e+07
1.66904e+07
1.67255e+07
1.67622e+07
1.67905e+07
1.68074e+07
1.68333e+07
1.68532e+07
1.68747e+07
1.69004e+07
1.6929e+07
1.69563e+07
1.69942e+07
1.70257e+07
1.70387e+07
1.70556e+07
1.70713e+07
1.7091e+07
1.71253e+07
1.71458e+07
1.71936e+07
2.64793e+07
2.66769e+07
2.63246e+07
2.54632e+07
2.50778e+07
2.48162e+07
2.45559e+07
2.46577e+07
2.43416e+07
2.39585e+07
2.33617e+07
2.27876e+07
2.2326e+07
2.17544e+07
2.13626e+07
2.07358e+07
2.01364e+07
1.95023e+07
1.89919e+07
1.85112e+07
1.81313e+07
1.78657e+07
1.77281e+07
1.76202e+07
1.75048e+07
1.74123e+07
1.73571e+07
1.71697e+07
1.68662e+07
1.6489e+07
1.6106e+07
1.58232e+07
1.55562e+07
1.53944e+07
1.53306e+07
1.52649e+07
1.52546e+07
1.52527e+07
1.52364e+07
1.51751e+07
1.52185e+07
1.52742e+07
1.53757e+07
1.53322e+07
1.52924e+07
1.53393e+07
1.53384e+07
1.53371e+07
1.53089e+07
1.53078e+07
1.52671e+07
1.52322e+07
1.53062e+07
1.53274e+07
1.54077e+07
1.54354e+07
1.54451e+07
1.54333e+07
1.53855e+07
1.54054e+07
1.54422e+07
1.54682e+07
1.54905e+07
1.54912e+07
1.55025e+07
1.55007e+07
1.55166e+07
1.55264e+07
1.55582e+07
1.55932e+07
1.56549e+07
1.5721e+07
1.58099e+07
1.58995e+07
1.60015e+07
1.60982e+07
1.61923e+07
1.62796e+07
1.63582e+07
1.64244e+07
1.6484e+07
1.6525e+07
1.65654e+07
1.65905e+07
1.66159e+07
1.6633e+07
1.66527e+07
1.66686e+07
1.66865e+07
1.67063e+07
1.67226e+07
1.67462e+07
1.67635e+07
1.67926e+07
1.68078e+07
1.68399e+07
1.68584e+07
1.69027e+07
1.69323e+07
1.69666e+07
2.5011e+07
2.52055e+07
2.53725e+07
2.47174e+07
2.43787e+07
2.38623e+07
2.29813e+07
2.27392e+07
2.29852e+07
2.30207e+07
2.26472e+07
2.21829e+07
2.17309e+07
2.10339e+07
2.06735e+07
2.00706e+07
1.95905e+07
1.91369e+07
1.87631e+07
1.84064e+07
1.80343e+07
1.78172e+07
1.76394e+07
1.7408e+07
1.69901e+07
1.65612e+07
1.64813e+07
1.66606e+07
1.65757e+07
1.63234e+07
1.60787e+07
1.57755e+07
1.55512e+07
1.54333e+07
1.5366e+07
1.53347e+07
1.53239e+07
1.53368e+07
1.5313e+07
1.52822e+07
1.53138e+07
1.53463e+07
1.53375e+07
1.51382e+07
1.52067e+07
1.52215e+07
1.52755e+07
1.52792e+07
1.52176e+07
1.52936e+07
1.52306e+07
1.51597e+07
1.51429e+07
1.52352e+07
1.52168e+07
1.52893e+07
1.5266e+07
1.52156e+07
1.51611e+07
1.51975e+07
1.52368e+07
1.52602e+07
1.52806e+07
1.52852e+07
1.53121e+07
1.53303e+07
1.53643e+07
1.53852e+07
1.54178e+07
1.54474e+07
1.5494e+07
1.55458e+07
1.56187e+07
1.57071e+07
1.58119e+07
1.59284e+07
1.60403e+07
1.6154e+07
1.62523e+07
1.63438e+07
1.64185e+07
1.64804e+07
1.6532e+07
1.65693e+07
1.66042e+07
1.66268e+07
1.6652e+07
1.66712e+07
1.66873e+07
1.67072e+07
1.67157e+07
1.67359e+07
1.67426e+07
1.67654e+07
1.67728e+07
1.67974e+07
1.68064e+07
1.6834e+07
1.68516e+07
1.68693e+07
2.38698e+07
2.38043e+07
2.40358e+07
2.40809e+07
2.35662e+07
2.32186e+07
2.26404e+07
2.18325e+07
2.16562e+07
2.19195e+07
2.19961e+07
2.16806e+07
2.11563e+07
2.04703e+07
1.98399e+07
1.9183e+07
1.86847e+07
1.8391e+07
1.81128e+07
1.80858e+07
1.78744e+07
1.776e+07
1.7482e+07
1.73628e+07
1.70445e+07
1.69353e+07
1.6649e+07
1.64645e+07
1.61227e+07
1.59047e+07
1.56882e+07
1.55571e+07
1.54825e+07
1.54749e+07
1.54686e+07
1.55101e+07
1.55235e+07
1.55588e+07
1.54568e+07
1.54604e+07
1.54216e+07
1.54122e+07
1.53148e+07
1.5183e+07
1.53265e+07
1.52471e+07
1.52755e+07
1.52543e+07
1.52792e+07
1.52053e+07
1.52684e+07
1.52014e+07
1.51532e+07
1.51007e+07
1.52054e+07
1.52343e+07
1.53233e+07
1.53696e+07
1.53216e+07
1.53129e+07
1.52547e+07
1.52548e+07
1.52152e+07
1.51762e+07
1.51801e+07
1.52035e+07
1.52377e+07
1.52769e+07
1.5307e+07
1.53549e+07
1.53933e+07
1.54567e+07
1.55201e+07
1.5623e+07
1.57314e+07
1.58691e+07
1.59958e+07
1.61356e+07
1.62601e+07
1.63816e+07
1.64857e+07
1.65759e+07
1.66568e+07
1.6716e+07
1.67754e+07
1.68118e+07
1.68523e+07
1.68791e+07
1.69067e+07
1.69265e+07
1.69466e+07
1.69619e+07
1.69749e+07
1.69964e+07
1.70039e+07
1.70214e+07
1.70297e+07
1.70487e+07
1.70492e+07
1.71079e+07
2.32032e+07
2.25677e+07
2.27906e+07
2.28716e+07
2.27933e+07
2.24509e+07
2.19938e+07
2.16907e+07
2.1507e+07
2.13002e+07
2.11762e+07
2.09921e+07
2.06488e+07
2.01365e+07
1.95729e+07
1.89389e+07
1.8309e+07
1.78851e+07
1.73919e+07
1.72066e+07
1.67032e+07
1.64908e+07
1.59974e+07
1.56105e+07
1.51876e+07
1.48817e+07
1.45858e+07
1.45419e+07
1.43772e+07
1.4412e+07
1.44614e+07
1.47116e+07
1.47263e+07
1.48362e+07
1.49381e+07
1.52969e+07
1.53322e+07
1.55028e+07
1.55619e+07
1.5597e+07
1.54798e+07
1.54744e+07
1.53163e+07
1.53187e+07
1.53689e+07
1.5347e+07
1.53325e+07
1.54241e+07
1.54207e+07
1.54603e+07
1.54491e+07
1.54107e+07
1.53956e+07
1.5379e+07
1.53186e+07
1.53298e+07
1.54109e+07
1.55054e+07
1.56549e+07
1.56003e+07
1.54828e+07
1.5457e+07
1.53482e+07
1.537e+07
1.53364e+07
1.53237e+07
1.53548e+07
1.54004e+07
1.5455e+07
1.55146e+07
1.55731e+07
1.56304e+07
1.57022e+07
1.57974e+07
1.59175e+07
1.60555e+07
1.61903e+07
1.63378e+07
1.64741e+07
1.66073e+07
1.67228e+07
1.68254e+07
1.69076e+07
1.69735e+07
1.70249e+07
1.70629e+07
1.7106e+07
1.71319e+07
1.71739e+07
1.71963e+07
1.72261e+07
1.72457e+07
1.72641e+07
1.72857e+07
1.72991e+07
1.73211e+07
1.73341e+07
1.7355e+07
1.73713e+07
1.73851e+07
2.24852e+07
2.20577e+07
2.17507e+07
2.18307e+07
2.18407e+07
2.18491e+07
2.14769e+07
2.11874e+07
2.08405e+07
2.06562e+07
2.03973e+07
2.02489e+07
1.9911e+07
1.95997e+07
1.91743e+07
1.87336e+07
1.81638e+07
1.76985e+07
1.72122e+07
1.68334e+07
1.63642e+07
1.61025e+07
1.57135e+07
1.51554e+07
1.48943e+07
1.43923e+07
1.42368e+07
1.40567e+07
1.41447e+07
1.41541e+07
1.41453e+07
1.46411e+07
1.46421e+07
1.51816e+07
1.51031e+07
1.52722e+07
1.53745e+07
1.55039e+07
1.55425e+07
1.55468e+07
1.55299e+07
1.55449e+07
1.53544e+07
1.54665e+07
1.54293e+07
1.54218e+07
1.54647e+07
1.55231e+07
1.55196e+07
1.55702e+07
1.55728e+07
1.56198e+07
1.56211e+07
1.55805e+07
1.55479e+07
1.55696e+07
1.57292e+07
1.59535e+07
1.60774e+07
1.61306e+07
1.61235e+07
1.61624e+07
1.61105e+07
1.61772e+07
1.61595e+07
1.60499e+07
1.6093e+07
1.60651e+07
1.60898e+07
1.61679e+07
1.62393e+07
1.63206e+07
1.63879e+07
1.63962e+07
1.64483e+07
1.65315e+07
1.66169e+07
1.67207e+07
1.68352e+07
1.69381e+07
1.70473e+07
1.71258e+07
1.71946e+07
1.72354e+07
1.72648e+07
1.72805e+07
1.73077e+07
1.73255e+07
1.73612e+07
1.73904e+07
1.74192e+07
1.7448e+07
1.74754e+07
1.7508e+07
1.75309e+07
1.75673e+07
1.75878e+07
1.76186e+07
1.76312e+07
1.76539e+07
2.17592e+07
2.17088e+07
2.11762e+07
2.08322e+07
2.08444e+07
2.04959e+07
2.05605e+07
2.05562e+07
2.02841e+07
2.00371e+07
1.97646e+07
1.95244e+07
1.92802e+07
1.90116e+07
1.86883e+07
1.82325e+07
1.77461e+07
1.73261e+07
1.6934e+07
1.65053e+07
1.63146e+07
1.59597e+07
1.57839e+07
1.55698e+07
1.53965e+07
1.52973e+07
1.5142e+07
1.49715e+07
1.48e+07
1.47195e+07
1.47488e+07
1.47644e+07
1.48412e+07
1.47901e+07
1.49398e+07
1.5062e+07
1.51829e+07
1.52519e+07
1.53017e+07
1.53972e+07
1.55405e+07
1.55375e+07
1.55958e+07
1.58216e+07
1.58299e+07
1.58327e+07
1.59137e+07
1.59079e+07
1.59724e+07
1.60613e+07
1.61889e+07
1.61506e+07
1.61498e+07
1.61009e+07
1.60847e+07
1.61003e+07
1.62328e+07
1.6333e+07
1.6379e+07
1.64911e+07
1.65165e+07
1.65371e+07
1.65527e+07
1.65217e+07
1.65317e+07
1.65703e+07
1.66496e+07
1.67344e+07
1.68844e+07
1.70114e+07
1.71369e+07
1.72701e+07
1.73429e+07
1.74519e+07
1.75361e+07
1.75691e+07
1.76627e+07
1.7672e+07
1.75949e+07
1.76163e+07
1.75558e+07
1.74921e+07
1.74985e+07
1.74737e+07
1.74667e+07
1.75259e+07
1.75659e+07
1.76197e+07
1.76644e+07
1.76869e+07
1.77358e+07
1.77117e+07
1.77338e+07