/*--------------------------------*- C++ -*----------------------------------*\
  =========                 |
  \\      /  F ield         | OpenFOAM: The Open Source CFD Toolbox
   \\    /   O peration     | Website:  https://openfoam.org
    \\  /    A nd           | Version:  8
     \\/     M anipulation  |
\*---------------------------------------------------------------------------*/
FoamFile
{
    version     2.0;
    format      ascii;
    class       volScalarField;
    location    "0.999971";
    object      k;
}
// * * * * * * * * * * * * * * * * * * * * * * * * * * * * * * * * * * * * * //

dimensions      [0 2 -2 0 0 0 0];

internalField   nonuniform List<scalar> 
6800
(
101.648
238.27
281.664
273.779
219.636
101.56
48.2249
25.8106
14.9548
10.6265
114.921
264.822
245.675
158.77
69.0665
34.4212
20.1126
12.9027
8.70964
7.18446
109.334
182.89
124.936
56.642
30.9502
19.6682
12.909
8.88776
6.58907
4.52078
79.1139
89.7891
57.3005
33.2613
22.0385
14.9988
9.91567
6.61109
4.22201
3.14429
22.0463
43.603
35.2334
26.2948
18.3582
10.9667
6.47233
4.45455
3.27497
2.62156
17.6099
35.2736
31.3987
23.7282
13.2622
7.60682
5.16768
3.76745
2.77458
2.22966
18.8083
31.2664
28.9562
18.7376
10.3875
6.37963
4.19757
2.98681
2.31506
2.03516
19.298
30.8767
27.7093
15.3159
8.0503
4.96802
3.50132
2.72568
2.17531
1.96749
19.9138
32.7003
25.6358
11.7519
6.74538
4.54149
3.25947
2.41744
1.99644
1.866
20.2287
34.6184
22.0179
10.8264
5.99364
3.9416
2.85351
2.28114
1.946
1.84205
108.353
145.646
160.199
167.528
173.308
179.308
185.995
193.413
201.426
209.847
106.044
142.284
156.875
164.7
171.152
177.952
185.651
194.36
204.023
214.549
101.882
136.102
150.616
159.267
167.001
175.319
184.801
195.752
208.487
223.042
96.1792
127.97
142.452
152.296
161.736
172.041
183.725
197.351
214.028
233.828
89.5231
119.293
134.125
145.63
157.386
170.359
184.611
201.115
222.762
248.328
82.728
111.994
128.398
142.764
158.064
174.862
194.524
217.481
248.925
271.352
76.9699
108.952
129.133
148.173
169.225
196.115
230.804
262.181
289.848
286.125
73.5987
112.363
140.181
170.66
205.347
249.17
280.391
296.842
293.683
238.125
75.3344
127.102
174.958
224.968
265.705
292.663
287.964
255.332
199.155
84.9046
81.9148
165.262
240.593
273.035
287.524
261.232
184.75
88.6162
46.0808
21.9302
221.774
236.809
251.537
265.678
279.137
291.816
303.645
314.6
324.705
334.024
342.612
350.385
357.338
363.376
368.572
372.9
376.354
378.824
380.289
380.809
380.459
379.248
377.179
374.402
370.998
367.046
362.621
357.79
352.629
347.211
341.602
335.86
330.033
324.163
318.283
312.422
306.604
300.847
295.163
289.561
284.049
278.632
273.313
268.098
262.99
257.99
253.101
248.323
243.657
239.103
234.66
230.327
226.103
221.988
217.978
214.073
210.269
206.563
202.952
199.434
196.007
192.668
189.414
186.246
183.161
180.157
177.233
174.388
171.619
168.925
166.303
163.752
161.269
158.851
156.497
154.204
151.969
149.791
147.667
145.595
143.573
141.6
139.674
137.794
135.959
134.167
132.418
130.711
129.045
127.42
125.835
124.287
122.782
121.304
119.885
118.453
117.157
115.68
114.682
112.784
229.356
247.084
264.516
281.154
296.876
311.586
325.21
337.694
349.061
359.458
368.992
377.499
385.04
391.494
397.065
401.494
404.772
406.864
407.835
407.746
406.72
404.677
401.775
398.108
393.778
388.874
383.483
377.675
371.548
365.185
358.66
352.035
345.362
338.684
332.037
325.45
318.944
312.534
306.231
300.041
293.97
288.024
282.206
276.52
270.968
265.552
260.271
255.125
250.113
245.233
240.483
235.862
231.366
226.994
222.744
218.612
214.595
210.688
206.888
203.192
199.597
196.099
192.698
189.39
186.174
183.046
180.006
177.051
174.179
171.387
168.673
166.034
163.468
160.972
158.542
156.177
153.874
151.631
149.445
147.313
145.235
143.208
141.23
139.301
137.419
135.583
133.792
132.045
130.341
128.679
127.06
125.479
123.944
122.435
120.989
119.527
118.209
116.698
115.69
113.747
243.074
265.455
287.426
308.117
327.433
345.381
361.893
376.91
390.452
402.986
414.012
423.652
431.937
438.884
444.486
448.476
450.954
452.174
452.051
450.83
448.345
444.836
440.386
435.103
429.118
422.539
415.473
407.985
400.225
392.294
384.271
376.22
368.198
360.25
352.407
344.696
337.129
329.719
322.473
315.39
308.476
301.735
295.168
288.78
282.57
276.538
270.68
264.994
259.476
254.12
248.924
243.883
238.993
234.249
229.65
225.193
220.87
216.673
212.601
208.65
204.815
201.094
197.482
193.977
190.575
187.274
184.07
180.961
177.943
175.014
172.169
169.407
166.723
164.115
161.579
159.113
156.713
154.377
152.102
149.887
147.728
145.624
143.574
141.576
139.628
137.729
135.878
134.074
132.317
130.604
128.936
127.308
125.729
124.175
122.692
121.184
119.838
118.275
117.255
115.24
260.014
288.189
315.324
340.441
363.535
384.819
404.26
421.741
437.271
451.09
462.734
472.617
480.665
487.017
491.291
493.702
494.48
493.855
491.822
488.336
483.662
477.931
471.276
463.83
455.754
447.174
438.215
429.088
419.864
410.596
401.344
392.167
383.105
374.2
365.47
356.936
348.607
340.486
332.58
324.877
317.386
310.107
303.035
296.184
289.547
283.12
276.898
270.877
265.048
259.404
253.941
248.649
243.525
238.561
233.758
229.113
224.614
220.252
216.026
211.933
207.968
204.127
200.404
196.796
193.299
189.909
186.622
183.435
180.345
177.346
174.436
171.611
168.868
166.202
163.611
161.092
158.641
156.256
153.935
151.675
149.474
147.33
145.242
143.207
141.225
139.294
137.413
135.581
133.796
132.057
130.365
128.712
127.112
125.533
124.033
122.497
121.141
119.541
118.521
116.45
279.075
312.199
342.833
370.71
395.628
417.922
437.823
455.145
469.794
481.914
491.975
500.025
506.278
510.717
513.259
513.706
512.714
510.119
505.956
500.48
493.84
486.208
477.751
468.628
458.986
448.978
438.763
428.457
418.161
407.973
397.952
388.149
378.58
369.272
360.226
351.452
342.948
334.708
326.734
319
311.512
304.27
297.257
290.494
283.968
277.672
271.595
265.731
260.068
254.594
249.304
244.184
239.229
234.428
229.786
225.306
220.966
216.758
212.685
208.745
204.932
201.241
197.663
194.197
190.837
187.579
184.421
181.358
178.385
175.499
172.696
169.971
167.323
164.748
162.242
159.803
157.429
155.117
152.865
150.671
148.535
146.453
144.424
142.448
140.522
138.645
136.816
135.033
133.297
131.603
129.956
128.344
126.785
125.241
123.782
122.27
120.956
119.373
118.385
116.322
298.156
330.197
359.588
385.958
408.903
428.939
446.616
461.742
474.089
484.186
492.275
497.731
501.073
502.097
501.292
498.696
493.941
487.776
480.342
471.746
462.219
451.996
441.303
430.328
419.275
408.282
397.477
386.943
376.725
366.87
357.367
348.242
339.461
331.031
322.926
315.137
307.661
300.47
293.578
286.927
280.526
274.38
268.441
262.747
257.284
252.028
246.973
242.107
237.421
232.889
228.513
224.267
220.15
216.146
212.264
208.521
204.89
201.359
197.937
194.627
191.419
188.309
185.289
182.357
179.509
176.741
174.051
171.435
168.888
166.407
163.989
161.632
159.331
157.087
154.896
152.757
150.669
148.631
146.641
144.699
142.803
140.953
139.147
137.384
135.663
133.982
132.342
130.74
129.177
127.647
126.16
124.697
123.285
121.873
120.551
119.156
117.965
116.493
115.595
113.655
304.535
326.176
347.331
367.517
385.663
400.842
413.881
424.259
431.861
437.146
440.819
441.736
440.858
438.172
432.944
425.911
417.482
407.725
397.036
385.578
373.621
361.462
349.384
337.608
326.316
315.643
305.627
296.332
287.677
279.692
272.244
265.34
258.871
252.812
247.121
241.742
236.698
231.918
227.454
223.2
219.16
215.361
211.698
208.227
204.947
201.802
198.805
195.926
193.167
190.477
187.874
185.313
182.792
180.31
177.861
175.489
173.186
170.939
168.746
166.612
164.529
162.501
160.519
158.582
156.691
154.836
153.023
151.243
149.494
147.774
146.08
144.412
142.769
141.15
139.556
137.987
136.444
134.928
133.438
131.976
130.541
129.133
127.753
126.398
125.069
123.764
122.484
121.225
119.994
118.78
117.598
116.422
115.292
114.139
113.075
111.918
110.954
109.716
108.982
107.322
244.454
254.962
265.749
276.039
286.991
296.098
304.705
311.251
315.806
317.504
317.024
314.967
310.331
303.502
294.591
284.166
272.638
259.689
246.321
232.927
219.865
207.495
196.023
185.709
176.483
168.549
161.614
155.846
150.859
146.779
143.267
140.372
137.903
135.818
134.08
132.556
131.369
130.337
129.621
129.073
128.639
128.399
128.197
128.041
128.015
127.957
127.983
127.973
127.947
127.816
127.627
127.327
126.959
126.528
126.03
125.563
125.092
124.619
124.151
123.697
123.235
122.774
122.302
121.816
121.322
120.805
120.277
119.722
119.14
118.533
117.899
117.24
116.558
115.857
115.138
114.409
113.669
112.925
112.176
111.428
110.68
109.932
109.19
108.443
107.7
106.953
106.213
105.472
104.74
104.004
103.285
102.548
101.839
101.089
100.408
99.6244
98.9929
98.1315
97.6304
96.4458
87.2563
92.1085
97.4912
102.46
107.634
111.752
115.119
116.778
117.809
117.102
115.139
112.213
107.806
102.712
96.791
90.4892
84.064
77.3961
71.0847
65.191
59.8005
55.0373
50.8465
47.3376
44.3077
41.9228
39.8869
38.3952
37.1418
36.2965
35.628
35.2366
34.9801
34.9488
34.9527
35.1182
35.4695
35.9313
36.6004
37.3988
38.2763
39.3209
40.4961
41.6486
43.0368
44.3522
45.8921
47.3233
48.9912
50.6927
52.5046
54.337
56.1789
58.0303
59.8046
61.5679
63.3077
65.0345
66.6823
68.2925
69.8289
71.303
72.7021
74.0022
75.2342
76.3517
77.3627
78.2539
79.0346
79.722
80.3193
80.8378
81.2844
81.6727
82.0049
82.2939
82.5378
82.7503
82.9238
83.0754
83.1891
83.2865
83.3515
83.3452
83.3517
83.2913
83.2638
83.1988
83.1079
83.005
82.8844
82.7185
82.5515
82.3278
82.1317
81.8512
81.635
81.284
81.0734
80.5451
22.9009
23.9504
24.9267
25.4424
25.8544
26.1333
26.1692
26.0175
25.6165
24.9198
23.8811
22.748
21.3477
19.8638
18.2773
16.6715
15.1306
13.6487
12.2851
11.0639
9.98611
9.06215
8.26189
7.60601
7.03536
6.59092
6.19818
5.90829
5.6498
5.46698
5.30931
5.20219
5.11965
5.07282
5.05328
5.05255
5.09049
5.14779
5.24096
5.37514
5.55512
5.76517
6.04575
6.32142
6.69443
7.06414
7.53007
8.00812
8.56795
9.1827
9.85839
10.631
11.4497
12.3801
13.3425
14.4199
15.538
16.7883
18.0751
19.4695
20.9111
22.4137
23.9751
25.5413
27.1592
28.7592
30.3971
32.046
33.6796
35.3006
36.8802
38.421
39.9059
41.3457
42.7246
44.0564
45.326
46.5486
47.7088
48.8215
49.8766
50.8747
51.8103
52.6734
53.4737
54.2102
54.8923
55.5184
56.1009
56.6364
57.1316
57.5781
57.9881
58.3525
58.6757
58.9685
59.1961
59.4337
59.5617
59.7842
7.8617
8.10393
8.32887
8.31911
8.26027
8.13119
7.94176
7.70121
7.41579
7.09881
6.74369
6.37714
5.99238
5.60945
5.23039
4.8653
4.51996
4.1979
3.90229
3.63384
3.39296
3.17832
2.98639
2.81887
2.6671
2.5371
2.41729
2.31557
2.22088
2.13953
2.06459
1.99796
1.93843
1.88322
1.83586
1.79008
1.75276
1.71604
1.68659
1.65981
1.63882
1.62016
1.60882
1.59854
1.59646
1.59856
1.60395
1.61846
1.63441
1.66675
1.69598
1.74989
1.79808
1.87971
1.95417
2.07134
2.18325
2.3485
2.51556
2.741
2.98037
3.27752
3.60272
3.98389
4.39916
4.87917
5.3848
5.97372
6.58224
7.28273
7.99871
8.80858
9.62678
10.5408
11.4564
12.4671
13.4714
14.5654
15.6443
16.7989
17.9354
19.1224
20.2946
21.5105
22.6908
23.8916
25.0401
26.1917
27.2753
28.358
29.3532
30.3548
31.2459
32.168
32.933
33.7874
34.4059
35.2098
35.7056
36.6055
5.00739
5.00981
4.99869
4.96397
4.89384
4.79189
4.66547
4.51704
4.34911
4.16961
3.97941
3.78679
3.59341
3.40525
3.22354
3.052
2.89065
2.74136
2.6033
2.47657
2.36073
2.25481
2.15818
2.07066
1.98995
1.91803
1.85038
1.79085
1.73411
1.68404
1.6364
1.59343
1.55326
1.5159
1.48162
1.44895
1.41941
1.39075
1.36462
1.3406
1.31731
1.29625
1.27587
1.25712
1.23914
1.22287
1.20685
1.1927
1.17854
1.1665
1.15406
1.14411
1.13341
1.12545
1.11665
1.11093
1.10468
1.10173
1.0991
1.09962
1.10186
1.10713
1.11417
1.12828
1.14136
1.16718
1.18833
1.23008
1.26215
1.32546
1.37226
1.46476
1.53109
1.66249
1.75422
1.93679
2.06007
2.30437
2.47647
2.78782
3.02288
3.40783
3.71336
4.17918
4.56215
5.11049
5.56964
6.19696
6.72201
7.41922
7.99245
8.7471
9.34338
10.1447
10.7334
11.5721
12.1246
12.9774
13.5491
14.6155
3.39138
3.39868
3.39327
3.37692
3.3428
3.29286
3.22861
3.15295
3.06634
2.9727
2.87327
2.77123
2.66809
2.5663
2.46662
2.37098
2.27898
2.19226
2.10968
2.03232
1.95962
1.89151
1.82782
1.76837
1.71283
1.6621
1.61399
1.57093
1.52964
1.49274
1.45745
1.42533
1.39506
1.36679
1.34043
1.31547
1.29224
1.26984
1.2493
1.22956
1.21107
1.1936
1.17652
1.16069
1.14535
1.13109
1.1169
1.10398
1.09088
1.07907
1.0669
1.056
1.04458
1.03442
1.02357
1.01403
1.00371
0.994713
0.984883
0.976336
0.967107
0.959437
0.951017
0.944174
0.936546
0.930575
0.923756
0.918769
0.91288
0.908992
0.904286
0.90161
0.898579
0.897215
0.896677
0.897577
0.899146
0.904219
0.908622
0.919763
0.928037
0.947952
0.961603
0.993587
1.01467
1.06273
1.09375
1.16259
1.20617
1.30087
1.35937
1.48467
1.55977
1.71929
1.81194
2.00519
2.12044
2.33543
2.51006
2.83562
2.49015
2.49652
2.49413
2.48559
2.46791
2.4415
2.40655
2.36474
2.31603
2.26273
2.20532
2.14557
2.08419
2.02218
1.96066
1.8995
1.84063
1.78258
1.72796
1.67486
1.62546
1.5783
1.53526
1.49509
1.45825
1.42426
1.39271
1.36383
1.33658
1.31152
1.28773
1.2654
1.24447
1.22421
1.20554
1.18713
1.17018
1.15333
1.13792
1.12267
1.10857
1.09436
1.08126
1.06821
1.05629
1.04429
1.03318
1.02209
1.01179
1.00156
0.991985
0.982491
0.973513
0.964618
0.956127
0.947733
0.939682
0.931756
0.924132
0.916641
0.909422
0.902326
0.895462
0.888723
0.882152
0.875754
0.869432
0.863351
0.857246
0.851454
0.845533
0.840039
0.834293
0.829143
0.823546
0.818773
0.813328
0.808943
0.803712
0.799701
0.794831
0.791164
0.786828
0.783549
0.779899
0.777156
0.774338
0.772328
0.77063
0.769512
0.769362
0.769954
0.770825
0.773857
0.776077
0.781983
0.785885
0.79532
0.799361
0.82699
1.99387
1.99488
1.99337
1.98829
1.97663
1.9604
1.93944
1.91451
1.88548
1.85358
1.81898
1.78283
1.74526
1.70716
1.66878
1.63061
1.59315
1.55639
1.52106
1.48677
1.45422
1.42304
1.39383
1.36575
1.33984
1.31507
1.29202
1.27011
1.24939
1.22968
1.21088
1.19278
1.17564
1.15879
1.1431
1.12748
1.1129
1.09844
1.08494
1.07128
1.05895
1.04632
1.03458
1.02271
1.01216
1.00116
0.991282
0.981021
0.971876
0.962313
0.95383
0.944854
0.936893
0.928386
0.920842
0.912722
0.905552
0.897798
0.890999
0.883599
0.877169
0.870102
0.864023
0.85725
0.851481
0.844963
0.839465
0.83317
0.827923
0.821814
0.816794
0.810854
0.806045
0.800251
0.795642
0.789978
0.785563
0.780019
0.77579
0.77035
0.766303
0.760953
0.757076
0.751805
0.748087
0.742886
0.739317
0.734181
0.730757
0.725688
0.722406
0.71742
0.714343
0.709478
0.706633
0.701895
0.699324
0.69468
0.69264
0.686934
1.70366
1.70313
1.6997
1.69608
1.68718
1.67571
1.66135
1.64473
1.62545
1.60436
1.58135
1.55721
1.53188
1.50598
1.47953
1.45294
1.42636
1.39991
1.37408
1.3484
1.32408
1.29987
1.27739
1.2552
1.23478
1.21468
1.19613
1.17797
1.16096
1.14442
1.12871
1.11337
1.09889
1.0845
1.07118
1.05781
1.04531
1.03304
1.02153
1.01004
0.999648
0.988926
0.979016
0.969102
0.96014
0.950721
0.942283
0.933443
0.925547
0.917224
0.909826
0.901912
0.89493
0.887387
0.880757
0.873521
0.867214
0.860268
0.854283
0.847622
0.84196
0.835566
0.830191
0.824021
0.818893
0.812906
0.807996
0.802167
0.797469
0.791775
0.787275
0.781707
0.777395
0.771935
0.767798
0.762432
0.758459
0.753178
0.749364
0.74416
0.740501
0.735371
0.731859
0.726796
0.723423
0.718423
0.715181
0.710238
0.707126
0.702234
0.69925
0.694406
0.691553
0.686753
0.684032
0.679275
0.676675
0.672015
0.669191
0.663915
1.52506
1.52314
1.51963
1.51475
1.50732
1.49797
1.48734
1.47497
1.46118
1.44577
1.42923
1.41165
1.39337
1.37448
1.3553
1.33564
1.31616
1.29631
1.27697
1.25746
1.23872
1.21998
1.20227
1.18476
1.16824
1.15205
1.13701
1.1222
1.1084
1.0947
1.08186
1.06896
1.05698
1.04472
1.03356
1.02197
1.01142
1.00077
0.990525
0.980582
0.971288
0.961556
0.952729
0.943702
0.935458
0.926812
0.919044
0.910838
0.903452
0.895625
0.888646
0.881138
0.874506
0.867328
0.861029
0.85414
0.848152
0.841541
0.835853
0.829503
0.824104
0.817983
0.812831
0.806893
0.801952
0.796166
0.791424
0.785769
0.781219
0.775691
0.771327
0.765911
0.761727
0.756407
0.752383
0.747143
0.743268
0.738101
0.73437
0.729274
0.725684
0.72066
0.717209
0.712255
0.708937
0.704049
0.700858
0.696029
0.692964
0.68819
0.685249
0.680528
0.677714
0.673043
0.670362
0.665732
0.6632
0.658533
0.656511
0.649914
1.41088
1.40704
1.40326
1.39824
1.39177
1.38349
1.37458
1.36428
1.35343
1.34112
1.3284
1.31449
1.30035
1.28546
1.27043
1.25495
1.23938
1.22357
1.20775
1.1918
1.17608
1.16039
1.14521
1.13023
1.11602
1.10207
1.08898
1.07619
1.0641
1.05214
1.04074
1.02936
1.01851
1.00759
0.997368
0.986931
0.977308
0.967545
0.95837
0.949124
0.940838
0.931958
0.92386
0.915536
0.908091
0.900151
0.892933
0.885293
0.878419
0.871108
0.864597
0.857547
0.851314
0.844537
0.838603
0.832095
0.826447
0.820191
0.814822
0.808804
0.803702
0.797894
0.793023
0.78739
0.782724
0.777235
0.772762
0.767407
0.763117
0.757877
0.753762
0.748624
0.744672
0.739614
0.735805
0.730813
0.727138
0.722207
0.71866
0.71379
0.710372
0.705563
0.70227
0.697521
0.694348
0.689655
0.686596
0.681953
0.679006
0.674409
0.671574
0.667022
0.664305
0.659794
0.657205
0.652731
0.650289
0.645781
0.643829
0.637481
1.33354
1.32943
1.32467
1.31956
1.31352
1.30601
1.29791
1.28886
1.27943
1.26908
1.25834
1.24681
1.23502
1.22267
1.21025
1.19732
1.18445
1.17109
1.15779
1.14412
1.13066
1.11708
1.104
1.09089
1.07857
1.06629
1.05485
1.04344
1.03282
1.02204
1.01204
1.00169
0.992104
0.982175
0.972979
0.963556
0.9548
0.945999
0.937586
0.929367
0.921721
0.913557
0.906298
0.898703
0.891786
0.884373
0.8777
0.870566
0.864127
0.857261
0.851081
0.844345
0.838369
0.83182
0.826065
0.81973
0.814223
0.808105
0.802837
0.796927
0.791906
0.786197
0.781408
0.775873
0.771294
0.765911
0.761528
0.756278
0.752084
0.746953
0.742934
0.737905
0.734044
0.729098
0.725381
0.720503
0.716917
0.712101
0.708639
0.703883
0.700542
0.695845
0.692621
0.68798
0.684869
0.68028
0.677277
0.672736
0.669839
0.66534
0.66255
0.65809
0.655415
0.650991
0.64844
0.644046
0.641642
0.637211
0.635294
0.629059
1.27986
1.27513
1.26997
1.26479
1.25912
1.25182
1.24431
1.23576
1.22732
1.21787
1.20846
1.19815
1.18786
1.17703
1.16626
1.15502
1.14386
1.13222
1.12059
1.10858
1.09679
1.08483
1.07333
1.06168
1.05064
1.03953
1.02905
1.0186
1.0087
0.998714
0.989253
0.979625
0.970621
0.961363
0.952839
0.94401
0.935944
0.927624
0.91993
0.91215
0.905012
0.897408
0.890452
0.883275
0.876785
0.869717
0.863408
0.85656
0.850451
0.843873
0.837989
0.831547
0.825873
0.81966
0.814209
0.808163
0.8029
0.797022
0.791945
0.7862
0.781294
0.775682
0.770965
0.765513
0.761
0.755701
0.75138
0.746218
0.742082
0.737046
0.733087
0.728162
0.724366
0.719533
0.715886
0.711128
0.707614
0.70292
0.699532
0.694898
0.691633
0.687058
0.683913
0.679392
0.676362
0.67189
0.668971
0.664542
0.661729
0.657335
0.654627
0.650264
0.647665
0.643328
0.640842
0.63653
0.634153
0.629925
0.627336
0.622544
1.24065
1.23583
1.23016
1.22454
1.21921
1.21213
1.20517
1.19703
1.18921
1.18041
1.17177
1.16234
1.153
1.14313
1.13351
1.12346
1.11368
1.10345
1.09334
1.08299
1.0728
1.06256
1.05256
1.04239
1.03247
1.02218
1.01227
1.00208
0.992414
0.982534
0.973304
0.963839
0.955185
0.946194
0.938146
0.929697
0.922079
0.914208
0.906868
0.899428
0.89253
0.885207
0.878549
0.871612
0.865298
0.858415
0.852342
0.845735
0.839873
0.833526
0.827946
0.821859
0.816493
0.81056
0.805416
0.799653
0.79465
0.788994
0.784117
0.778507
0.773729
0.768246
0.763622
0.758243
0.753768
0.748522
0.744224
0.739114
0.73499
0.730011
0.726059
0.721199
0.717411
0.712651
0.709012
0.704332
0.700826
0.696209
0.692832
0.688271
0.685021
0.680514
0.677393
0.672937
0.669942
0.665534
0.662663
0.658298
0.655543
0.651216
0.648572
0.644274
0.641738
0.637465
0.635034
0.630784
0.628447
0.624278
0.621709
0.616986
1.21275
1.20735
1.20185
1.19581
1.19065
1.18339
1.17679
1.16908
1.16149
1.15317
1.14482
1.13585
1.12697
1.11781
1.10891
1.09965
1.09071
1.08132
1.07233
1.06297
1.05407
1.04498
1.03612
1.02701
1.01788
1.00822
0.998801
0.988747
0.979177
0.969314
0.960148
0.950858
0.942338
0.933692
0.925885
0.91779
0.910533
0.902847
0.895917
0.888529
0.881935
0.874709
0.868149
0.861355
0.85516
0.848482
0.842587
0.836103
0.830456
0.824373
0.818968
0.81301
0.80787
0.802136
0.797137
0.791532
0.78672
0.781254
0.776554
0.771134
0.766559
0.761225
0.756757
0.751547
0.747239
0.742151
0.737983
0.733012
0.728991
0.72413
0.72025
0.715491
0.711748
0.70707
0.703454
0.698843
0.695341
0.690782
0.687396
0.682885
0.679621
0.675156
0.672019
0.667601
0.664593
0.660222
0.657345
0.653019
0.65027
0.645986
0.643359
0.639112
0.636602
0.632388
0.629992
0.625807
0.623509
0.619408
0.616886
0.612224
1.19124
1.18574
1.17901
1.17357
1.16763
1.16066
1.15354
1.14636
1.13887
1.13119
1.12337
1.11511
1.10671
1.09821
1.08988
1.08126
1.07286
1.06404
1.05528
1.04601
1.03702
1.0276
1.01856
1.00916
0.999965
0.990537
0.981402
0.972026
0.963322
0.954493
0.946359
0.93809
0.93045
0.922585
0.915308
0.907743
0.900713
0.89344
0.886644
0.879588
0.873149
0.866147
0.860013
0.853415
0.847369
0.840978
0.835191
0.828908
0.823467
0.8174
0.812124
0.806319
0.801219
0.795519
0.790646
0.785141
0.780398
0.775028
0.770469
0.765224
0.760837
0.75574
0.751533
0.746576
0.742518
0.737671
0.733726
0.728957
0.72511
0.720397
0.716637
0.711968
0.708289
0.703641
0.700033
0.695421
0.691883
0.687302
0.683859
0.679314
0.675982
0.671482
0.668274
0.663833
0.660757
0.656381
0.653447
0.649132
0.646337
0.642076
0.639415
0.635201
0.632672
0.6285
0.626101
0.621966
0.619685
0.615638
0.613161
0.608559
1.17675
1.17074
1.16395
1.15822
1.15177
1.14445
1.13785
1.13072
1.12294
1.11551
1.1077
1.09954
1.09153
1.0834
1.07552
1.06735
1.05941
1.05088
1.04221
1.03288
1.02359
1.01388
1.00447
0.994787
0.985635
0.976369
0.967921
0.959437
0.951649
0.943757
0.936353
0.928637
0.921399
0.91377
0.906688
0.899136
0.892248
0.885049
0.878306
0.871468
0.865225
0.858439
0.852571
0.846122
0.840418
0.834302
0.8288
0.822764
0.817463
0.811699
0.806642
0.800883
0.795966
0.790497
0.78575
0.780331
0.775762
0.770584
0.766191
0.76113
0.756942
0.752012
0.747988
0.743179
0.739279
0.734556
0.730721
0.726028
0.722257
0.717567
0.713861
0.70922
0.705587
0.700971
0.697407
0.692833
0.68936
0.684798
0.681408
0.676897
0.673594
0.669147
0.665951
0.661556
0.658482
0.654149
0.651205
0.646932
0.644114
0.639884
0.637194
0.632999
0.630437
0.626276
0.623845
0.619711
0.617431
0.61326
0.611449
0.605598
1.1644
1.15881
1.152
1.14689
1.14085
1.13222
1.12596
1.11814
1.11132
1.10372
1.09603
1.08744
1.07914
1.07054
1.06254
1.05431
1.04637
1.03783
1.02924
1.02005
1.01081
1.00124
0.991927
0.982504
0.973643
0.964807
0.956672
0.94858
0.941139
0.93357
0.926469
0.919164
0.912192
0.905024
0.898172
0.89118
0.884515
0.877623
0.871322
0.86465
0.85849
0.852156
0.846397
0.840285
0.834765
0.82886
0.823514
0.817648
0.812653
0.80702
0.801998
0.796609
0.791816
0.786348
0.781717
0.776427
0.771914
0.766781
0.762439
0.757422
0.753269
0.748332
0.744283
0.7394
0.735476
0.730646
0.726773
0.721988
0.718185
0.713442
0.70974
0.70509
0.701513
0.696955
0.693518
0.689067
0.68575
0.681378
0.678176
0.673865
0.670772
0.666504
0.663518
0.659295
0.656404
0.652205
0.649416
0.645236
0.642533
0.638362
0.635754
0.631581
0.629071
0.624895
0.622492
0.618317
0.616038
0.611812
0.609976
0.604126
1.15399
1.14738
1.14021
1.13549
1.12871
1.1208
1.11479
1.1062
1.09901
1.09154
1.08439
1.07605
1.06795
1.05927
1.05112
1.04248
1.03417
1.0255
1.01706
1.00827
0.999701
0.990926
0.982568
0.974063
0.965992
0.957788
0.950069
0.942173
0.934825
0.927254
0.920218
0.912948
0.906178
0.899154
0.892612
0.885757
0.879433
0.872741
0.866588
0.860191
0.854316
0.848154
0.842458
0.836459
0.83105
0.825224
0.819923
0.814166
0.809162
0.803562
0.798661
0.793162
0.788327
0.782967
0.778288
0.772985
0.768374
0.763182
0.758768
0.753647
0.749337
0.744269
0.740089
0.735108
0.731052
0.726172
0.722239
0.717445
0.713644
0.708936
0.705267
0.700675
0.697164
0.692675
0.689308
0.684936
0.681715
0.677423
0.674331
0.670113
0.667135
0.662977
0.660101
0.655969
0.653182
0.649066
0.646367
0.642253
0.63963
0.635512
0.632969
0.628845
0.626388
0.622261
0.619898
0.615766
0.613518
0.609329
0.607514
0.60166
1.14838
1.14114
1.13548
1.12878
1.12081
1.1139
1.10769
1.09894
1.09219
1.08491
1.07708
1.06883
1.06066
1.052
1.04394
1.03562
1.02747
1.01892
1.01061
1.00199
0.993588
0.984979
0.976878
0.96863
0.960898
0.952871
0.945353
0.937475
0.930174
0.922524
0.915474
0.908083
0.901255
0.894141
0.887527
0.880724
0.874321
0.867772
0.861757
0.85538
0.849607
0.843457
0.838003
0.832056
0.826716
0.821025
0.81584
0.810175
0.805287
0.799742
0.794851
0.789451
0.784703
0.77933
0.774757
0.769436
0.764895
0.759773
0.75535
0.750261
0.746016
0.740975
0.736778
0.731835
0.727803
0.722935
0.719017
0.714254
0.710468
0.705784
0.702135
0.697559
0.694055
0.689564
0.686188
0.681781
0.678532
0.674203
0.671077
0.666813
0.663799
0.659587
0.656683
0.652517
0.649716
0.645584
0.642883
0.638779
0.636175
0.632089
0.629581
0.625512
0.623101
0.619049
0.61674
0.612699
0.610505
0.606419
0.604648
0.598905
1.14017
1.13141
1.12483
1.11952
1.11142
1.10451
1.09736
1.08927
1.08235
1.07484
1.06782
1.06018
1.0522
1.04392
1.03636
1.02843
1.02077
1.01263
1.00468
0.996352
0.988092
0.97968
0.971681
0.963497
0.955703
0.9476
0.939903
0.931935
0.924545
0.916914
0.909914
0.902724
0.896125
0.889283
0.883013
0.876481
0.870387
0.86403
0.858234
0.852095
0.846437
0.840489
0.835079
0.829203
0.824052
0.818323
0.813206
0.80762
0.802701
0.797161
0.79237
0.786938
0.782213
0.776917
0.772323
0.767062
0.762616
0.757501
0.753144
0.748142
0.743918
0.738956
0.734865
0.729982
0.725998
0.721215
0.717355
0.712645
0.708905
0.704272
0.700663
0.696109
0.692619
0.688141
0.68477
0.680364
0.677119
0.672779
0.669654
0.665381
0.662367
0.658144
0.655236
0.651068
0.648269
0.644136
0.641439
0.637344
0.634751
0.63068
0.628188
0.624141
0.62175
0.617728
0.615444
0.611437
0.609268
0.605216
0.603464
0.597778
1.13894
1.13126
1.12506
1.11835
1.11071
1.10431
1.09715
1.08919
1.0832
1.07587
1.06834
1.05947
1.05079
1.04195
1.03386
1.02576
1.01776
1.0093
1.00106
0.99251
0.9841
0.975468
0.967329
0.959054
0.951249
0.943313
0.935902
0.928299
0.921267
0.914015
0.907325
0.90043
0.894026
0.887384
0.88128
0.874792
0.868857
0.862587
0.856825
0.850703
0.845085
0.839152
0.833744
0.82789
0.822675
0.816972
0.811883
0.806329
0.801415
0.795947
0.791161
0.785797
0.781131
0.775879
0.771346
0.766142
0.761719
0.756634
0.752333
0.747341
0.743163
0.738239
0.734167
0.729325
0.725377
0.720614
0.716778
0.712089
0.708371
0.703757
0.700161
0.695621
0.692144
0.687674
0.684312
0.679913
0.676668
0.67233
0.669201
0.664924
0.661909
0.657682
0.654776
0.650605
0.647806
0.64367
0.640978
0.636881
0.634295
0.630225
0.627739
0.62369
0.621305
0.61728
0.615
0.610995
0.608807
0.604875
0.602483
0.598012
1.13126
1.12299
1.11724
1.10882
1.10202
1.09516
1.08656
1.0787
1.07121
1.06372
1.05606
1.048
1.04004
1.0316
1.02401
1.01642
1.00901
1.0014
0.994102
0.986473
0.979037
0.9713
0.963919
0.956303
0.949086
0.941606
0.934542
0.927203
0.920354
0.913251
0.90665
0.899818
0.893484
0.886851
0.880775
0.87433
0.868403
0.862132
0.856373
0.850273
0.844693
0.838724
0.833348
0.827498
0.82232
0.816634
0.811547
0.806006
0.801112
0.795656
0.790888
0.785569
0.780915
0.775678
0.77116
0.765974
0.761563
0.756479
0.752197
0.747206
0.743037
0.738123
0.73406
0.729224
0.725276
0.720517
0.716691
0.712004
0.708291
0.703679
0.700083
0.695549
0.692072
0.687605
0.684247
0.67985
0.676605
0.672268
0.669136
0.664858
0.661836
0.657609
0.654695
0.650513
0.647708
0.643567
0.640868
0.636764
0.63417
0.630095
0.627603
0.62355
0.62116
0.617129
0.614843
0.610828
0.608657
0.604598
0.602843
0.597155
1.63612
1.69564
1.75632
1.86725
1.94622
2.17596
2.40259
2.99941
4.05857
7.53397
1.49509
1.54937
1.57714
1.67516
1.73008
1.89512
2.01471
2.32509
2.75335
4.97548
1.44096
1.47166
1.48552
1.54278
1.58004
1.69566
1.77051
1.96971
2.16004
3.36847
1.37592
1.39984
1.41097
1.45037
1.47487
1.55192
1.60174
1.74028
1.84143
2.47569
1.33765
1.35184
1.35868
1.38505
1.40116
1.45158
1.48411
1.5785
1.64083
1.98546
1.30532
1.31366
1.31785
1.33541
1.346
1.37912
1.40037
1.4626
1.50281
1.70136
1.2809
1.28541
1.28776
1.29886
1.30557
1.32694
1.34058
1.38097
1.40678
1.52552
1.26121
1.26254
1.26355
1.27012
1.27427
1.28806
1.29671
1.32279
1.33891
1.41179
1.24646
1.24527
1.24499
1.2477
1.24981
1.25804
1.26333
1.28003
1.29011
1.33483
1.23465
1.23217
1.23041
1.23058
1.23109
1.23493
1.23776
1.24792
1.25371
1.28142
1.22466
1.22098
1.21861
1.21694
1.21643
1.21735
1.21832
1.22344
1.22701
1.24271
1.21626
1.21252
1.2088
1.20593
1.20447
1.20345
1.20331
1.20509
1.20681
1.21637
1.21009
1.20515
1.20185
1.19745
1.19437
1.19291
1.1901
1.18994
1.19047
1.1956
1.20598
1.19963
1.19598
1.19156
1.18754
1.18521
1.18193
1.18033
1.17856
1.18052
1.20141
1.19536
1.19011
1.18557
1.18084
1.17793
1.17318
1.17158
1.16843
1.16892
1.19861
1.19213
1.18746
1.18132
1.1759
1.1732
1.16732
1.16422
1.15924
1.15871
1.19655
1.18939
1.18461
1.17939
1.17287
1.16995
1.16388
1.16093
1.15564
1.15255
1.19416
1.187
1.18113
1.17589
1.16804
1.16492
1.15854
1.15451
1.14914
1.14488
1.19408
1.18701
1.18115
1.1762
1.16813
1.16421
1.15894
1.15289
1.14796
1.14392
1.19124
1.18442
1.17751
1.17268
1.16481
1.15952
1.15428
1.14843
1.1425
1.1371
1.58626
1.7349
1.87851
2.17742
2.72457
3.50164
5.48871
9.7746
32.1281
22.0681
1.57927
1.71104
1.91088
2.16921
2.71968
3.57644
5.88344
10.8009
33.9747
22.0495
1.60096
1.69514
1.90941
2.19589
2.83026
3.61237
5.89552
10.3534
34.1644
22.2813
1.61424
1.70534
1.92351
2.19416
2.86347
3.71086
6.04221
11.7653
35.6554
21.8124
1.65327
1.71046
1.92977
2.22875
2.95325
3.968
6.64855
11.3024
36.0142
22.1467
1.66166
1.73973
1.97759
2.28021
2.97699
3.9482
6.67167
13.2092
36.4164
21.4869
1.68928
1.76052
1.97947
2.32752
3.11956
4.30063
7.07767
13.1214
38.1214
21.6936
1.70958
1.77472
2.01522
2.46732
3.38364
4.54237
7.70648
15.1626
37.8981
21.371
1.75314
1.84517
2.09258
2.50096
3.41295
4.91011
8.58802
16.5944
37.4642
20.944
1.76903
1.86439
2.17194
2.75167
3.77754
5.1924
8.88217
19.5647
36.3701
20.6821
1.63458
1.75418
1.89689
2.19362
2.52476
3.6896
4.83963
10.3491
25.8536
21.6296
1.64555
1.72914
1.8889
2.11542
2.48271
3.32762
4.65335
8.77208
23.8701
20.714
1.64809
1.77236
1.90795
2.19304
2.5353
3.33255
4.65362
8.74206
25.187
20.8327
1.6338
1.75728
1.92877
2.1776
2.65342
3.397
4.82517
8.96622
25.6125
20.9181
1.63346
1.73644
1.93782
2.16336
2.59049
3.52852
4.89262
8.84607
26.4842
21.0763
1.61422
1.73477
1.89069
2.19113
2.55361
3.45