/*--------------------------------*- C++ -*----------------------------------*\
  =========                 |
  \\      /  F ield         | OpenFOAM: The Open Source CFD Toolbox
   \\    /   O peration     | Website:  https://openfoam.org
    \\  /    A nd           | Version:  8
     \\/     M anipulation  |
\*---------------------------------------------------------------------------*/
FoamFile
{
    version     2.0;
    format      ascii;
    class       volScalarField;
    location    "0.999971";
    object      N;
}
// * * * * * * * * * * * * * * * * * * * * * * * * * * * * * * * * * * * * * //

dimensions      [0 -3 0 0 0 0 0];

internalField   nonuniform List<scalar> 
6800
(
2.69003e+06
2.56972e+06
2.29087e+06
2.2378e+06
2.2436e+06
2.26296e+06
2.3042e+06
2.33145e+06
2.3307e+06
2.34009e+06
2.68422e+06
2.32832e+06
2.22197e+06
2.22817e+06
2.25748e+06
2.30195e+06
2.32308e+06
2.31661e+06
2.2707e+06
2.2518e+06
2.69518e+06
2.26607e+06
2.20271e+06
2.24036e+06
2.29045e+06
2.30779e+06
2.28916e+06
2.23704e+06
2.13816e+06
2.09273e+06
2.69219e+06
2.14509e+06
2.19094e+06
2.2776e+06
2.29307e+06
2.26632e+06
2.18725e+06
2.09497e+06
2.05228e+06
2.04249e+06
1.95179e+06
2.08014e+06
2.25535e+06
2.28413e+06
2.25326e+06
2.16223e+06
2.07506e+06
2.03849e+06
2.0174e+06
2.0165e+06
1.9469e+06
2.21371e+06
2.27573e+06
2.25659e+06
2.16063e+06
2.07097e+06
2.02941e+06
1.99365e+06
1.97979e+06
1.98495e+06
1.94542e+06
2.26331e+06
2.27723e+06
2.20264e+06
2.06607e+06
2.02683e+06
1.97109e+06
1.95311e+06
1.95539e+06
1.96686e+06
1.94103e+06
2.33417e+06
2.24328e+06
2.09782e+06
2.01187e+06
1.96107e+06
1.93454e+06
1.92944e+06
1.93068e+06
1.93908e+06
1.93191e+06
2.34523e+06
2.14532e+06
2.05682e+06
1.95116e+06
1.93141e+06
1.90194e+06
1.89494e+06
1.90119e+06
1.91313e+06
1.91938e+06
2.34654e+06
2.07771e+06
1.97686e+06
1.92309e+06
1.8839e+06
1.86122e+06
1.86883e+06
1.88175e+06
1.88353e+06
2.67916e+06
2.66184e+06
2.65533e+06
2.6496e+06
2.64536e+06
2.64101e+06
2.63744e+06
2.63365e+06
2.63039e+06
2.62689e+06
2.67935e+06
2.663e+06
2.65753e+06
2.65487e+06
2.65422e+06
2.65579e+06
2.65925e+06
2.66502e+06
2.67321e+06
2.68344e+06
2.67954e+06
2.66651e+06
2.6649e+06
2.66701e+06
2.67593e+06
2.6928e+06
2.71839e+06
2.75635e+06
2.80739e+06
2.84723e+06
2.68107e+06
2.67195e+06
2.67295e+06
2.68779e+06
2.72489e+06
2.79125e+06
2.85879e+06
2.9271e+06
2.97023e+06
3.02014e+06
2.68252e+06
2.67657e+06
2.68717e+06
2.72687e+06
2.79354e+06
2.85066e+06
2.90028e+06
2.94535e+06
2.97553e+06
2.88802e+06
2.68576e+06
2.68265e+06
2.70087e+06
2.74457e+06
2.79737e+06
2.8386e+06
2.88534e+06
2.86837e+06
2.84886e+06
2.5869e+06
2.68748e+06
2.68627e+06
2.70505e+06
2.74099e+06
2.78891e+06
2.7805e+06
2.71525e+06
2.59869e+06
2.47883e+06
2.36365e+06
2.69079e+06
2.69076e+06
2.71032e+06
2.7217e+06
2.67618e+06
2.55284e+06
2.39474e+06
2.32329e+06
2.30191e+06
2.3049e+06
2.69208e+06
2.69429e+06
2.70032e+06
2.60271e+06
2.38319e+06
2.29623e+06
2.27597e+06
2.27843e+06
2.2923e+06
2.31605e+06
2.6953e+06
2.70068e+06
2.5573e+06
2.31248e+06
2.25706e+06
2.25948e+06
2.26818e+06
2.29587e+06
2.31879e+06
2.3407e+06
2.62259e+06
2.61735e+06
2.61256e+06
2.60763e+06
2.60284e+06
2.59695e+06
2.59129e+06
2.58475e+06
2.57852e+06
2.57166e+06
2.56511e+06
2.55792e+06
2.55131e+06
2.54482e+06
2.54064e+06
2.53797e+06
2.53231e+06
2.52738e+06
2.52197e+06
2.51729e+06
2.51436e+06
2.51044e+06
2.50764e+06
2.50506e+06
2.50334e+06
2.50203e+06
2.50107e+06
2.5005e+06
2.50025e+06
2.50025e+06
2.50017e+06
2.50061e+06
2.50118e+06
2.5024e+06
2.50322e+06
2.5049e+06
2.50591e+06
2.50801e+06
2.50926e+06
2.51182e+06
2.51329e+06
2.51629e+06
2.51796e+06
2.52138e+06
2.52323e+06
2.52698e+06
2.52896e+06
2.53295e+06
2.53501e+06
2.53913e+06
2.54124e+06
2.54542e+06
2.54756e+06
2.55178e+06
2.55394e+06
2.5582e+06
2.56038e+06
2.56469e+06
2.5669e+06
2.57128e+06
2.57355e+06
2.57803e+06
2.58035e+06
2.58499e+06
2.58739e+06
2.59221e+06
2.59471e+06
2.59975e+06
2.60236e+06
2.60764e+06
2.61037e+06
2.6159e+06
2.61875e+06
2.62451e+06
2.62746e+06
2.63343e+06
2.63648e+06
2.64261e+06
2.64572e+06
2.65197e+06
2.65515e+06
2.66148e+06
2.66468e+06
2.67107e+06
2.6743e+06
2.68073e+06
2.68399e+06
2.69046e+06
2.69373e+06
2.70026e+06
2.70357e+06
2.71017e+06
2.71353e+06
2.72024e+06
2.72367e+06
2.73049e+06
2.73408e+06
2.74092e+06
2.7452e+06
2.75308e+06
2.70011e+06
2.69707e+06
2.69877e+06
2.69438e+06
2.68757e+06
2.67686e+06
2.66233e+06
2.6473e+06
2.62946e+06
2.61142e+06
2.59362e+06
2.57273e+06
2.54965e+06
2.53043e+06
2.5094e+06
2.49235e+06
2.47685e+06
2.46098e+06
2.44958e+06
2.44223e+06
2.43591e+06
2.43129e+06
2.42886e+06
2.42697e+06
2.42667e+06
2.42686e+06
2.42732e+06
2.42885e+06
2.43e+06
2.43271e+06
2.43424e+06
2.43763e+06
2.4394e+06
2.44325e+06
2.44519e+06
2.44939e+06
2.45148e+06
2.45595e+06
2.45814e+06
2.46271e+06
2.46496e+06
2.46964e+06
2.47195e+06
2.47672e+06
2.47912e+06
2.48397e+06
2.48645e+06
2.49133e+06
2.49385e+06
2.49871e+06
2.50122e+06
2.50603e+06
2.50848e+06
2.51322e+06
2.51559e+06
2.52026e+06
2.52258e+06
2.52721e+06
2.52952e+06
2.53418e+06
2.53652e+06
2.54129e+06
2.5437e+06
2.54866e+06
2.55118e+06
2.55637e+06
2.55904e+06
2.56449e+06
2.56731e+06
2.57307e+06
2.57604e+06
2.58202e+06
2.58509e+06
2.59123e+06
2.59436e+06
2.60059e+06
2.60375e+06
2.61001e+06
2.61317e+06
2.61942e+06
2.62256e+06
2.6288e+06
2.63192e+06
2.63816e+06
2.64126e+06
2.64751e+06
2.65064e+06
2.65694e+06
2.66011e+06
2.6665e+06
2.66973e+06
2.67629e+06
2.6796e+06
2.68638e+06
2.68981e+06
2.6968e+06
2.70046e+06
2.70758e+06
2.71187e+06
2.71997e+06
2.89733e+06
2.89531e+06
2.90384e+06
2.89489e+06
2.87297e+06
2.84306e+06
2.80839e+06
2.76405e+06
2.72387e+06
2.67761e+06
2.63753e+06
2.60783e+06
2.5716e+06
2.53759e+06
2.50563e+06
2.47728e+06
2.45416e+06
2.43338e+06
2.42055e+06
2.4127e+06
2.4073e+06
2.40676e+06
2.40699e+06
2.40836e+06
2.40972e+06
2.41296e+06
2.41485e+06
2.41901e+06
2.42107e+06
2.42554e+06
2.42774e+06
2.43252e+06
2.43488e+06
2.44e+06
2.44254e+06
2.44798e+06
2.45068e+06
2.45641e+06
2.45927e+06
2.46526e+06
2.46825e+06
2.47439e+06
2.47747e+06
2.48367e+06
2.48687e+06
2.49303e+06
2.49627e+06
2.50234e+06
2.50553e+06
2.51145e+06
2.51452e+06
2.52025e+06
2.52316e+06
2.52869e+06
2.53145e+06
2.53683e+06
2.5395e+06
2.54479e+06
2.54746e+06
2.55273e+06
2.55549e+06
2.56084e+06
2.56376e+06
2.56931e+06
2.57245e+06
2.57825e+06
2.5816e+06
2.58764e+06
2.59115e+06
2.59736e+06
2.60093e+06
2.60724e+06
2.6108e+06
2.61714e+06
2.6206e+06
2.62693e+06
2.63025e+06
2.63653e+06
2.63972e+06
2.64594e+06
2.64904e+06
2.65521e+06
2.65828e+06
2.66445e+06
2.66754e+06
2.67379e+06
2.67693e+06
2.68335e+06
2.6866e+06
2.69325e+06
2.69663e+06
2.70359e+06
2.70713e+06
2.71443e+06
2.71815e+06
2.72577e+06
2.72965e+06
2.73772e+06
2.74128e+06
2.7517e+06
3.05309e+06
3.06059e+06
3.03809e+06
2.98147e+06
2.95501e+06
2.90905e+06
2.86642e+06
2.80907e+06
2.75542e+06
2.69799e+06
2.64353e+06
2.5954e+06
2.5396e+06
2.48675e+06
2.44622e+06
2.41645e+06
2.40156e+06
2.39422e+06
2.39242e+06
2.39326e+06
2.39444e+06
2.39819e+06
2.40018e+06
2.40442e+06
2.40658e+06
2.4115e+06
2.41415e+06
2.41992e+06
2.42318e+06
2.43012e+06
2.434e+06
2.44211e+06
2.44651e+06
2.45556e+06
2.46042e+06
2.47005e+06
2.47548e+06
2.48526e+06
2.49098e+06
2.50071e+06
2.50651e+06
2.51606e+06
2.52182e+06
2.53111e+06
2.53673e+06
2.54567e+06
2.55108e+06
2.55957e+06
2.5647e+06
2.57268e+06
2.57751e+06
2.58496e+06
2.58949e+06
2.59646e+06
2.60075e+06
2.60732e+06
2.61142e+06
2.61773e+06
2.62176e+06
2.62798e+06
2.63204e+06
2.63833e+06
2.6425e+06
2.64895e+06
2.65322e+06
2.65984e+06
2.66418e+06
2.67093e+06
2.67526e+06
2.68206e+06
2.68632e+06
2.69308e+06
2.69717e+06
2.70382e+06
2.70771e+06
2.71421e+06
2.71786e+06
2.72424e+06
2.72767e+06
2.73399e+06
2.73725e+06
2.7436e+06
2.74679e+06
2.75324e+06
2.75651e+06
2.76313e+06
2.76652e+06
2.77346e+06
2.77699e+06
2.78431e+06
2.78807e+06
2.79576e+06
2.79973e+06
2.8078e+06
2.81196e+06
2.82035e+06
2.82471e+06
2.83332e+06
2.83802e+06
2.84713e+06
2.92143e+06
2.93567e+06
2.9283e+06
2.90848e+06
2.87293e+06
2.82683e+06
2.76902e+06
2.69692e+06
2.62815e+06
2.55744e+06
2.50009e+06
2.44752e+06
2.41277e+06
2.39362e+06
2.38272e+06
2.38008e+06
2.38032e+06
2.38258e+06
2.38477e+06
2.38962e+06
2.39225e+06
2.39807e+06
2.40146e+06
2.40891e+06
2.4136e+06
2.42308e+06
2.42965e+06
2.44076e+06
2.44886e+06
2.46129e+06
2.47063e+06
2.4841e+06
2.49435e+06
2.50847e+06
2.51921e+06
2.5335e+06
2.54429e+06
2.55831e+06
2.56879e+06
2.58227e+06
2.59219e+06
2.60502e+06
2.61432e+06
2.62644e+06
2.63508e+06
2.64645e+06
2.6544e+06
2.66499e+06
2.67224e+06
2.68203e+06
2.68863e+06
2.69765e+06
2.70369e+06
2.71201e+06
2.71758e+06
2.72531e+06
2.73046e+06
2.73771e+06
2.74259e+06
2.74956e+06
2.75429e+06
2.76113e+06
2.76579e+06
2.77263e+06
2.77725e+06
2.78413e+06
2.78869e+06
2.7956e+06
2.80006e+06
2.80695e+06
2.81127e+06
2.81808e+06
2.82222e+06
2.8289e+06
2.83284e+06
2.83937e+06
2.84312e+06
2.84954e+06
2.85316e+06
2.85955e+06
2.8631e+06
2.86957e+06
2.87314e+06
2.87981e+06
2.88346e+06
2.89045e+06
2.89423e+06
2.90159e+06
2.90555e+06
2.9133e+06
2.91743e+06
2.92555e+06
2.92982e+06
2.93825e+06
2.9426e+06
2.95126e+06
2.95563e+06
2.96448e+06
2.96847e+06
2.97911e+06
2.59553e+06
2.60057e+06
2.58802e+06
2.56249e+06
2.53336e+06
2.49633e+06
2.46193e+06
2.43046e+06
2.40608e+06
2.38701e+06
2.37345e+06
2.36711e+06
2.36396e+06
2.36498e+06
2.36698e+06
2.37208e+06
2.37505e+06
2.38208e+06
2.38646e+06
2.39633e+06
2.40275e+06
2.41553e+06
2.4252e+06
2.4402e+06
2.4524e+06
2.46926e+06
2.48309e+06
2.50133e+06
2.5162e+06
2.53552e+06
2.55108e+06
2.57095e+06
2.58667e+06
2.60635e+06
2.62166e+06
2.64046e+06
2.65491e+06
2.6724e+06
2.6857e+06
2.70179e+06
2.71382e+06
2.72859e+06
2.73943e+06
2.75298e+06
2.76271e+06
2.7751e+06
2.78375e+06
2.79503e+06
2.80264e+06
2.81287e+06
2.81957e+06
2.82885e+06
2.8348e+06
2.84326e+06
2.84862e+06
2.85642e+06
2.86125e+06
2.86852e+06
2.87302e+06
2.87997e+06
2.88425e+06
2.89102e+06
2.89518e+06
2.90185e+06
2.9059e+06
2.91251e+06
2.91645e+06
2.92299e+06
2.92681e+06
2.93329e+06
2.93699e+06
2.94339e+06
2.94699e+06
2.9533e+06
2.95685e+06
2.96309e+06
2.96662e+06
2.97285e+06
2.97643e+06
2.9827e+06
2.9864e+06
2.99281e+06
2.99666e+06
3.00329e+06
3.00733e+06
3.01424e+06
3.01846e+06
3.02569e+06
3.03006e+06
3.03759e+06
3.04206e+06
3.04985e+06
3.05433e+06
3.06232e+06
3.06673e+06
3.07482e+06
3.07906e+06
3.08727e+06
3.09092e+06
3.10111e+06
2.36477e+06
2.36373e+06
2.36114e+06
2.35776e+06
2.35287e+06
2.34898e+06
2.34473e+06
2.34246e+06
2.34185e+06
2.34331e+06
2.34558e+06
2.3506e+06
2.35418e+06
2.36181e+06
2.36736e+06
2.37918e+06
2.38757e+06
2.40475e+06
2.41717e+06
2.43876e+06
2.4553e+06
2.47909e+06
2.49792e+06
2.52232e+06
2.54192e+06
2.56618e+06
2.58576e+06
2.60976e+06
2.62976e+06
2.65382e+06
2.67312e+06
2.69615e+06
2.71396e+06
2.73524e+06
2.75118e+06
2.77025e+06
2.78422e+06
2.80129e+06
2.81368e+06
2.82897e+06
2.8399e+06
2.85373e+06
2.86338e+06
2.87595e+06
2.88444e+06
2.89579e+06
2.90315e+06
2.91334e+06
2.91962e+06
2.92875e+06
2.93412e+06
2.94236e+06
2.94705e+06
2.9546e+06
2.95885e+06
2.96592e+06
2.96978e+06
2.97652e+06
2.9802e+06
2.98676e+06
2.99032e+06
2.99675e+06
3.00022e+06
3.00654e+06
3.0099e+06
3.0161e+06
3.01934e+06
3.02541e+06
3.02854e+06
3.03452e+06
3.03759e+06
3.04354e+06
3.04662e+06
3.05259e+06
3.05577e+06
3.0618e+06
3.06517e+06
3.07131e+06
3.0749e+06
3.08121e+06
3.08504e+06
3.09155e+06
3.09561e+06
3.10234e+06
3.1066e+06
3.11357e+06
3.11799e+06
3.12518e+06
3.12968e+06
3.13705e+06
3.14157e+06
3.14907e+06
3.15352e+06
3.1611e+06
3.16539e+06
3.173e+06
3.17706e+06
3.18474e+06
3.18811e+06
3.1981e+06
2.30564e+06
2.30699e+06
2.30802e+06
2.31072e+06
2.31261e+06
2.31706e+06
2.3201e+06
2.32702e+06
2.33152e+06
2.34161e+06
2.3485e+06
2.36319e+06
2.3745e+06
2.3947e+06
2.4117e+06
2.43735e+06
2.45858e+06
2.49178e+06
2.51813e+06
2.55256e+06
2.57789e+06
2.60944e+06
2.63172e+06
2.65937e+06
2.67858e+06
2.70306e+06
2.72016e+06
2.74249e+06
2.75745e+06
2.77785e+06
2.7914e+06
2.81065e+06
2.82302e+06
2.84102e+06
2.85233e+06
2.86889e+06
2.87951e+06
2.89441e+06
2.90423e+06
2.9179e+06
2.92691e+06
2.93965e+06
2.94787e+06
2.95975e+06
2.96709e+06
2.97806e+06
2.98461e+06
2.99461e+06
3.00033e+06
3.00938e+06
3.0144e+06
3.02266e+06
3.02723e+06
3.0349e+06
3.03921e+06
3.04658e+06
3.05066e+06
3.05778e+06
3.06181e+06
3.06885e+06
3.07285e+06
3.07981e+06
3.08375e+06
3.09064e+06
3.09448e+06
3.10123e+06
3.10491e+06
3.11151e+06
3.11501e+06
3.1215e+06
3.12488e+06
3.13135e+06
3.13471e+06
3.14124e+06
3.1447e+06
3.15136e+06
3.15501e+06
3.16186e+06
3.16576e+06
3.17285e+06
3.177e+06
3.18433e+06
3.18871e+06
3.19628e+06
3.20083e+06
3.20862e+06
3.21327e+06
3.22124e+06
3.22592e+06
3.23399e+06
3.23866e+06
3.24679e+06
3.25138e+06
3.25953e+06
3.26399e+06
3.27212e+06
3.2764e+06
3.2846e+06
3.2882e+06
3.29902e+06
2.321e+06
2.3282e+06
2.3322e+06
2.33957e+06
2.34486e+06
2.35642e+06
2.3653e+06
2.38344e+06
2.39721e+06
2.42075e+06
2.44111e+06
2.46976e+06
2.49495e+06
2.52788e+06
2.55505e+06
2.58967e+06
2.61523e+06
2.64372e+06
2.66189e+06
2.68507e+06
2.69872e+06
2.71844e+06
2.72958e+06
2.74731e+06
2.75743e+06
2.77462e+06
2.78481e+06
2.80237e+06
2.81317e+06
2.83116e+06
2.84218e+06
2.86026e+06
2.87093e+06
2.88873e+06
2.89891e+06
2.91628e+06
2.92609e+06
2.94301e+06
2.95285e+06
2.96929e+06
2.97926e+06
2.99536e+06
3.00534e+06
3.02099e+06
3.03087e+06
3.04566e+06
3.0551e+06
3.0688e+06
3.07755e+06
3.08994e+06
3.09801e+06
3.10915e+06
3.11645e+06
3.12654e+06
3.1332e+06
3.14259e+06
3.14876e+06
3.15763e+06
3.16351e+06
3.17214e+06
3.17781e+06
3.18636e+06
3.19182e+06
3.20033e+06
3.20559e+06
3.21408e+06
3.21917e+06
3.22754e+06
3.23231e+06
3.24056e+06
3.24502e+06
3.25321e+06
3.25743e+06
3.26562e+06
3.26974e+06
3.27801e+06
3.28217e+06
3.29059e+06
3.2949e+06
3.30352e+06
3.30805e+06
3.3169e+06
3.32169e+06
3.33076e+06
3.33577e+06
3.34503e+06
3.3502e+06
3.3596e+06
3.36485e+06
3.37433e+06
3.3796e+06
3.38913e+06
3.39434e+06
3.40391e+06
3.40901e+06
3.41856e+06
3.4235e+06
3.43314e+06
3.43737e+06
3.44989e+06
2.35698e+06
2.38363e+06
2.40204e+06
2.42765e+06
2.44592e+06
2.47118e+06
2.48893e+06
2.51429e+06
2.53269e+06
2.55784e+06
2.57667e+06
2.60052e+06
2.61769e+06
2.63843e+06
2.65254e+06
2.67005e+06
2.68128e+06
2.6984e+06
2.70823e+06
2.72448e+06
2.73298e+06
2.74825e+06
2.75598e+06
2.77094e+06
2.77878e+06
2.79443e+06
2.80314e+06
2.82004e+06
2.82973e+06
2.84706e+06
2.85724e+06
2.87503e+06
2.88533e+06
2.90338e+06
2.91369e+06
2.93203e+06
2.94225e+06
2.96083e+06
2.97135e+06
2.99002e+06
3.00099e+06
3.01989e+06
3.03117e+06
3.04996e+06
3.06135e+06
3.07968e+06
3.0908e+06
3.10853e+06
3.11929e+06
3.13607e+06
3.14602e+06
3.16165e+06
3.17118e+06
3.18606e+06
3.19542e+06
3.2098e+06
3.21918e+06
3.23324e+06
3.24273e+06
3.2566e+06
3.26599e+06
3.27961e+06
3.28866e+06
3.30197e+06
3.31047e+06
3.32321e+06
3.33107e+06
3.34335e+06
3.35055e+06
3.36248e+06
3.36916e+06
3.38084e+06
3.38714e+06
3.39858e+06
3.40463e+06
3.41589e+06
3.42184e+06
3.433e+06
3.43896e+06
3.45008e+06
3.4561e+06
3.46719e+06
3.47331e+06
3.48437e+06
3.49057e+06
3.50166e+06
3.50797e+06
3.51908e+06
3.52541e+06
3.53653e+06
3.5428e+06
3.55397e+06
3.56011e+06
3.57136e+06
3.57736e+06
3.58867e+06
3.59456e+06
3.60576e+06
3.61216e+06
3.62423e+06
2.30375e+06
2.34386e+06
2.37453e+06
2.40951e+06
2.43617e+06
2.46928e+06
2.49422e+06
2.52574e+06
2.54871e+06
2.57645e+06
2.59572e+06
2.6178e+06
2.63155e+06
2.64732e+06
2.65665e+06
2.66819e+06
2.67347e+06
2.68224e+06
2.68587e+06
2.69336e+06
2.69716e+06
2.70548e+06
2.71044e+06
2.72135e+06
2.72804e+06
2.74233e+06
2.75072e+06
2.76792e+06
2.77815e+06
2.79739e+06
2.809e+06
2.82937e+06
2.84145e+06
2.86239e+06
2.87463e+06
2.89576e+06
2.90774e+06
2.9291e+06
2.9411e+06
2.96261e+06
2.97508e+06
2.99681e+06
3.00972e+06
3.0315e+06
3.0445e+06
3.06601e+06
3.07866e+06
3.09956e+06
3.11195e+06
3.13233e+06
3.14468e+06
3.16436e+06
3.17648e+06
3.19547e+06
3.20736e+06
3.22607e+06
3.23811e+06
3.25691e+06
3.26928e+06
3.28835e+06
3.30093e+06
3.32013e+06
3.33271e+06
3.35181e+06
3.36399e+06
3.38263e+06
3.39409e+06
3.41213e+06
3.42286e+06
3.44037e+06
3.45048e+06
3.46749e+06
3.47709e+06
3.49366e+06
3.50296e+06
3.51921e+06
3.52838e+06
3.54438e+06
3.55354e+06
3.56933e+06
3.57851e+06
3.59411e+06
3.60332e+06
3.61869e+06
3.62792e+06
3.64298e+06
3.6521e+06
3.66684e+06
3.67576e+06
3.69019e+06
3.69879e+06
3.7129e+06
3.72105e+06
3.7349e+06
3.74259e+06
3.75619e+06
3.76349e+06
3.77669e+06
3.78454e+06
3.79917e+06
2.20733e+06
2.24588e+06
2.27801e+06
2.31345e+06
2.34101e+06
2.3725e+06
2.39662e+06
2.42514e+06
2.44555e+06
2.47004e+06
2.48578e+06
2.50585e+06
2.51815e+06
2.53556e+06
2.54603e+06
2.56247e+06
2.57234e+06
2.58927e+06
2.59927e+06
2.61763e+06
2.62806e+06
2.64793e+06
2.65926e+06
2.68011e+06
2.6925e+06
2.71394e+06
2.72717e+06
2.7492e+06
2.76287e+06
2.78528e+06
2.79916e+06
2.82175e+06
2.83532e+06
2.8578e+06
2.87099e+06
2.89297e+06
2.90577e+06
2.92776e+06
2.94024e+06
2.96243e+06
2.97521e+06
2.99725e+06
3.01033e+06
3.03242e+06
3.04527e+06
3.06714e+06
3.07954e+06
3.10074e+06
3.11281e+06
3.13354e+06
3.14544e+06
3.16566e+06
3.17745e+06
3.19711e+06
3.20893e+06
3.22837e+06
3.24049e+06
3.26021e+06
3.27268e+06
3.29292e+06
3.30571e+06
3.32641e+06
3.33936e+06
3.36015e+06
3.37313e+06
3.39385e+06
3.40659e+06
3.42707e+06
3.4396e+06
3.45986e+06
3.47195e+06
3.49187e+06
3.5036e+06
3.52326e+06
3.53499e+06
3.5547e+06
3.56674e+06
3.58662e+06
3.59907e+06
3.61908e+06
3.63188e+06
3.65195e+06
3.66496e+06
3.68492e+06
3.69794e+06
3.71759e+06
3.7304e+06
3.74951e+06
3.76187e+06
3.78028e+06
3.79201e+06
3.8097e+06
3.82076e+06
3.83776e+06
3.848e+06
3.86436e+06
3.87374e+06
3.88931e+06
3.89924e+06
3.91734e+06
2.15582e+06
2.19121e+06
2.2205e+06
2.25337e+06
2.28e+06
2.31035e+06
2.33487e+06
2.36339e+06
2.38569e+06
2.41205e+06
2.43148e+06
2.45553e+06
2.47232e+06
2.49468e+06
2.50984e+06
2.53139e+06
2.54591e+06
2.56725e+06
2.58156e+06
2.60305e+06
2.6172e+06
2.6392e+06
2.65309e+06
2.67532e+06
2.68909e+06
2.71131e+06
2.72506e+06
2.74748e+06
2.76135e+06
2.78406e+06
2.79795e+06
2.82063e+06
2.83405e+06
2.85662e+06
2.86935e+06
2.8913e+06
2.90374e+06
2.92517e+06
2.93719e+06
2.95864e+06
2.97032e+06
2.99197e+06
3.00376e+06
3.0252e+06
3.03684e+06
3.05818e+06
3.06948e+06
3.09047e+06
3.10135e+06
3.12197e+06
3.13254e+06
3.1531e+06
3.16352e+06
3.18409e+06
3.19447e+06
3.21511e+06
3.22557e+06
3.24643e+06
3.25719e+06
3.27848e+06
3.28957e+06
3.31128e+06
3.32255e+06
3.34432e+06
3.35565e+06
3.3772e+06
3.38851e+06
3.40967e+06
3.42101e+06
3.442e+06
3.45301e+06
3.47398e+06
3.48475e+06
3.50574e+06
3.51653e+06
3.53759e+06
3.54861e+06
3.56982e+06
3.58123e+06
3.6027e+06
3.61478e+06
3.63688e+06
3.64957e+06
3.67212e+06
3.68542e+06
3.70815e+06
3.72197e+06
3.74455e+06
3.75861e+06
3.78074e+06
3.79482e+06
3.81644e+06
3.83022e+06
3.85112e+06
3.86419e+06
3.88438e+06
3.89637e+06
3.91639e+06
3.92495e+06
3.95677e+06
2.13463e+06
2.16859e+06
2.19657e+06
2.22881e+06
2.25458e+06
2.28426e+06
2.30852e+06
2.33753e+06
2.36114e+06
2.38926e+06
2.41086e+06
2.43693e+06
2.4558e+06
2.48005e+06
2.497e+06
2.52039e+06
2.53661e+06
2.5596e+06
2.5757e+06
2.59835e+06
2.61427e+06
2.63681e+06
2.65183e+06
2.67433e+06
2.68836e+06
2.71062e+06
2.72379e+06
2.74562e+06
2.7584e+06
2.77978e+06
2.79246e+06
2.81339e+06
2.82565e+06
2.84635e+06
2.85773e+06
2.87792e+06
2.8888e+06
2.90822e+06
2.91867e+06
2.9379e+06
2.94835e+06
2.96813e+06
2.97878e+06
2.99876e+06
3.0096e+06
3.02967e+06
3.04045e+06
3.06047e+06
3.07101e+06
3.09092e+06
3.10128e+06
3.12141e+06
3.13177e+06
3.15219e+06
3.16253e+06
3.18317e+06
3.19359e+06
3.2144e+06
3.22492e+06
3.24594e+06
3.25655e+06
3.2777e+06
3.28835e+06
3.30947e+06
3.32007e+06
3.34114e+06
3.35177e+06
3.3728e+06
3.38354e+06
3.40449e+06
3.41533e+06
3.43615e+06
3.44678e+06
3.46755e+06
3.47805e+06
3.4989e+06
3.50941e+06
3.53045e+06
3.54124e+06
3.56273e+06
3.57421e+06
3.59616e+06
3.60836e+06
3.63088e+06
3.6438e+06
3.66671e+06
3.68026e+06
3.70328e+06
3.71724e+06
3.74007e+06
3.75421e+06
3.7767e+06
3.79065e+06
3.81273e+06
3.82618e+06
3.84785e+06
3.86066e+06
3.88152e+06
3.89588e+06
3.92133e+06
2.12629e+06
2.15953e+06
2.18689e+06
2.21971e+06
2.2462e+06
2.27687e+06
2.30104e+06
2.32988e+06
2.35324e+06
2.38151e+06
2.40345e+06
2.42982e+06
2.44909e+06
2.47347e+06
2.49085e+06
2.51422e+06
2.53085e+06
2.55377e+06
2.56994e+06
2.59244e+06
2.60788e+06
2.6297e+06
2.64377e+06
2.6649e+06
2.67736e+06
2.69786e+06
2.70904e+06
2.72908e+06
2.73959e+06
2.7591e+06
2.76952e+06
2.78848e+06
2.7988e+06
2.81751e+06
2.82729e+06
2.84576e+06
2.85524e+06
2.87348e+06
2.8828e+06
2.90137e+06
2.91109e+06
2.93057e+06
2.94094e+06
2.96109e+06
2.97188e+06
2.99243e+06
3.00324e+06
3.02388e+06
3.03456e+06
3.05523e+06
3.06588e+06
3.08657e+06
3.09731e+06
3.11793e+06
3.12867e+06
3.14931e+06
3.15987e+06
3.18063e+06
3.19106e+06
3.21185e+06
3.22233e+06
3.2432e+06
3.2538e+06
3.27476e+06
3.28553e+06
3.30655e+06
3.31729e+06
3.33849e+06
3.34941e+06
3.37068e+06
3.38168e+06
3.40319e+06
3.4144e+06
3.43596e+06
3.44735e+06
3.46903e+06
3.48068e+06
3.50248e+06
3.51447e+06
3.53649e+06
3.5488e+06
3.57105e+06
3.5837e+06
3.60619e+06
3.61919e+06
3.64186e+06
3.65522e+06
3.67794e+06
3.69161e+06
3.71432e+06
3.72812e+06
3.75084e+06
3.76452e+06
3.78723e+06
3.80057e+06
3.82319e+06
3.83612e+06
3.85825e+06
3.87278e+06
3.89905e+06
2.11155e+06
2.14417e+06
2.16945e+06
2.20179e+06
2.22813e+06
2.26031e+06
2.28459e+06
2.31371e+06
2.33593e+06
2.36337e+06
2.3844e+06
2.41009e+06
2.42923e+06
2.45282e+06
2.47022e+06
2.4923e+06
2.50885e+06
2.53029e+06
2.5464e+06
2.56749e+06
2.58279e+06
2.60294e+06
2.61665e+06
2.63583e+06
2.64796e+06
2.66678e+06
2.67786e+06
2.69647e+06
2.70668e+06
2.72511e+06
2.73509e+06
2.75348e+06
2.76366e+06
2.78214e+06
2.79208e+06
2.811e+06
2.8207e+06
2.83983e+06
2.85002e+06
2.8696e+06
2.88029e+06
2.90084e+06
2.91218e+06
2.93331e+06
2.94514e+06
2.96654e+06
2.97816e+06
2.99941e+06
3.01075e+06
3.03181e+06
3.04291e+06
3.06377e+06
3.07457e+06
3.09523e+06
3.10583e+06
3.12644e+06
3.13699e+06
3.15761e+06
3.16821e+06
3.18891e+06
3.19961e+06
3.22068e+06
3.23145e+06
3.25282e+06
3.26375e+06
3.28523e+06
3.29627e+06
3.31783e+06
3.32908e+06
3.35078e+06
3.36222e+06
3.3843e+06
3.39611e+06
3.41853e+06
3.43077e+06
3.45332e+06
3.46588e+06
3.48841e+06
3.50125e+06
3.52368e+06
3.53676e+06
3.55911e+06
3.57235e+06
3.5947e+06
3.60802e+06
3.63042e+06
3.64381e+06
3.66628e+06
3.67976e+06
3.70234e+06
3.71587e+06
3.7386e+06
3.75205e+06
3.77496e+06
3.78817e+06
3.81125e+06
3.82401e+06
3.84752e+06
3.85756e+06
3.89242e+06
2.09736e+06
2.12909e+06
2.15291e+06
2.18381e+06
2.20794e+06
2.23901e+06
2.26287e+06
2.2927e+06
2.31364e+06
2.33984e+06
2.35853e+06
2.38324e+06
2.4013e+06
2.42498e+06
2.44191e+06
2.46418e+06
2.47993e+06
2.50113e+06
2.51636e+06
2.53704e+06
2.55181e+06
2.57229e+06
2.58677e+06
2.60678e+06
2.62032e+06
2.63915e+06
2.65129e+06
2.66903e+06
2.68031e+06
2.69795e+06
2.7091e+06
2.72719e+06
2.73872e+06
2.75734e+06
2.76915e+06
2.78851e+06
2.80013e+06
2.82006e+06
2.83182e+06
2.85177e+06
2.86372e+06
2.88401e+06
2.89615e+06
2.91649e+06
2.92868e+06
2.9488e+06
2.96054e+06
2.98036e+06
2.99168e+06
3.01132e+06
3.02257e+06
3.04234e+06
3.0535e+06
3.07329e+06
3.08452e+06
3.10441e+06
3.1158e+06
3.13594e+06
3.14737e+06
3.16759e+06
3.17901e+06
3.19928e+06
3.21065e+06
3.23101e+06
3.24249e+06
3.26296e+06
3.27483e+06
3.29544e+06
3.30757e+06
3.32843e+06
3.34108e+06
3.36221e+06
3.37553e+06
3.39689e+06
3.41074e+06
3.43212e+06
3.44629e+06
3.46758e+06
3.48194e+06
3.5031e+06
3.51754e+06
3.5387e+06
3.55311e+06
3.57441e+06
3.58873e+06
3.61024e+06
3.62444e+06
3.64623e+06
3.66021e+06
3.6824e+06
3.69608e+06
3.71877e+06
3.73214e+06
3.75528e+06
3.76837e+06
3.79183e+06
3.80452e+06
3.8285e+06
3.83878e+06
3.87323e+06
2.08848e+06
2.11877e+06
2.14264e+06
2.17196e+06
2.19542e+06
2.22536e+06
2.2483e+06
2.27684e+06
2.2969e+06
2.32234e+06
2.34043e+06
2.36496e+06
2.38285e+06
2.40648e+06
2.42307e+06
2.44493e+06
2.46008e+06
2.48114e+06
2.49637e+06
2.51829e+06
2.5341e+06
2.5565e+06
2.57188e+06
2.59328e+06
2.60718e+06
2.62654e+06
2.6385e+06
2.65608e+06
2.66659e+06
2.68379e+06
2.69408e+06
2.71211e+06
2.7233e+06
2.74212e+06
2.75427e+06
2.77356e+06
2.78582e+06
2.80543e+06
2.81729e+06
2.83634e+06
2.84785e+06
2.86655e+06
2.87765e+06
2.89566e+06
2.90627e+06
2.92375e+06
2.93404e+06
2.95151e+06
2.9619e+06
2.97963e+06
2.99063e+06
3.0092e+06
3.02085e+06
3.04009e+06
3.05223e+06
3.0719e+06
3.08429e+06
3.10428e+06
3.11673e+06
3.13674e+06
3.14911e+06
3.16902e+06
3.18126e+06
3.20112e+06
3.21353e+06
3.23342e+06
3.24609e+06
3.26626e+06
3.27934e+06
3.29975e+06
3.31346e+06
3.33417e+06
3.34861e+06
3.36936e+06
3.38434e+06
3.40484e+06
3.42015e+06
3.44028e+06
3.45578e+06
3.47559e+06
3.49124e+06
3.51095e+06
3.52668e+06
3.54654e+06
3.56215e+06
3.58236e+06
3.59777e+06
3.6184e+06
3.63345e+06
3.65458e+06
3.66908e+06
3.69073e+06
3.70457e+06
3.72666e+06
3.73976e+06
3.7622e+06
3.77458e+06
3.79752e+06
3.80737e+06
3.84087e+06
2.08114e+06
2.11188e+06
2.13357e+06
2.16255e+06
2.18383e+06
2.21347e+06
2.23459e+06
2.26351e+06
2.2825e+06
2.30913e+06
2.32687e+06
2.35182e+06
2.36928e+06
2.39237e+06
2.40807e+06
2.42877e+06
2.44247e+06
2.46286e+06
2.47722e+06
2.49894e+06
2.51422e+06
2.53704e+06
2.55249e+06
2.57478e+06
2.58867e+06
2.6088e+06
2.62066e+06
2.63858e+06
2.64894e+06
2.66631e+06
2.67676e+06
2.69528e+06
2.70682e+06
2.72639e+06
2.73908e+06
2.75895e+06
2.77193e+06
2.79135e+06
2.80363e+06
2.82185e+06
2.83306e+06
2.8503e+06
2.85989e+06
2.87585e+06
2.88467e+06
2.90007e+06
2.90878e+06
2.92433e+06
2.93353e+06
2.95019e+06
2.96058e+06
2.97848e+06
2.98991e+06
3.00888e+06
3.02111e+06
3.04084e+06
3.05345e+06
3.07371e+06
3.08664e+06
3.10718e+06
3.12026e+06
3.1408e+06
3.15394e+06
3.17446e+06
3.18782e+06
3.20848e+06
3.22223e+06
3.24316e+06
3.25741e+06
3.27864e+06
3.29339e+06
3.31474e+06
3.32989e+06
3.35106e+06
3.36648e+06
3.38723e+06
3.4028e+06
3.42307e+06
3.43878e+06
3.45868e+06
3.47458e+06
3.49427e+06
3.51032e+06
3.52999e+06
3.54605e+06
3.56586e+06
3.58173e+06
3.60175e+06
3.61716e+06
3.63743e+06
3.65212e+06
3.67258e+06
3.68643e+06
3.70699e+06
3.72e+06
3.74062e+06
3.75297e+06
3.7732e+06
3.78699e+06
3.81161e+06
2.07647e+06
2.10643e+06
2.12732e+06
2.15605e+06
2.17544e+06
2.20466e+06
2.22298e+06
2.25213e+06
2.27026e+06
2.29793e+06
2.31466e+06
2.33979e+06
2.35614e+06
2.37901e+06
2.39475e+06
2.41624e+06
2.43068e+06
2.45243e+06
2.46724e+06
2.48946e+06
2.5045e+06
2.52705e+06
2.54176e+06
2.56288e+06
2.57537e+06
2.59461e+06
2.60587e+06
2.62414e+06
2.63445e+06
2.65196e+06
2.66268e+06
2.68098e+06
2.69266e+06
2.7123e+06
2.72477e+06
2.74487e+06
2.75739e+06
2.77702e+06
2.78852e+06
2.80674e+06
2.81705e+06
2.83371e+06
2.84205e+06
2.85721e+06
2.865e+06
2.88022e+06
2.88813e+06
2.90398e+06
2.91255e+06
2.92952e+06
2.93915e+06
2.95693e+06
2.96759e+06
2.98642e+06
2.99779e+06
3.01704e+06
3.02912e+06
3.04882e+06
3.06156e+06
3.08178e+06
3.09502e+06
3.11565e+06
3.12932e+06
3.15037e+06
3.16451e+06
3.18596e+06
3.20049e+06
3.22228e+06
3.23722e+06
3.25935e+06
3.27476e+06
3.29714e+06
3.31295e+06
3.33533e+06
3.35134e+06
3.37336e+06
3.38934e+06
3.41072e+06
3.42659e+06
3.44729e+06
3.4631e+06
3.48327e+06
3.49912e+06
3.51902e+06
3.53489e+06
3.55475e+06
3.5705e+06
3.59052e+06
3.60593e+06
3.62624e+06
3.6411e+06
3.66169e+06
3.67587e+06
3.69665e+06
3.71004e+06
3.73086e+06
3.74344e+06
3.76378e+06
3.77777e+06
3.80238e+06
2.07271e+06
2.10163e+06
2.12177e+06
2.15014e+06
2.16937e+06
2.19661e+06
2.21573e+06
2.24231e+06
2.26128e+06
2.28767e+06
2.30479e+06
2.32829e+06
2.34266e+06
2.36428e+06
2.37785e+06
2.39981e+06
2.41415e+06
2.43758e+06
2.45244e+06
2.47628e+06
2.49058e+06
2.51277e+06
2.52547e+06
2.54603e+06
2.55743e+06
2.57691e+06
2.58785e+06
2.60705e+06
2.61803e+06
2.63747e+06
2.64921e+06
2.66917e+06
2.6816e+06
2.70186e+06
2.71411e+06
2.73419e+06
2.74554e+06
2.76432e+06
2.77415e+06
2.79213e+06
2.80101e+06
2.81805e+06
2.82659e+06
2.84354e+06
2.85229e+06
2.86944e+06
2.87814e+06
2.89541e+06
2.9042e+06
2.92153e+06
2.93057e+06
2.94841e+06
2.95793e+06
2.97635e+06
2.9867e+06
3.00587e+06
3.01682e+06
3.03657e+06
3.04789e+06
3.06798e+06
3.07988e+06
3.10073e+06
3.11338e+06
3.13484e+06
3.1483e+06
3.17046e+06
3.18469e+06
3.20743e+06
3.22227e+06
3.24552e+06
3.26091e+06
3.28453e+06
3.30041e+06
3.32414e+06
3.34033e+06
3.36371e+06
3.37994e+06
3.40256e+06
3.41872e+06
3.44052e+06
3.45668e+06
3.47781e+06
3.49405e+06
3.51476e+06
3.53104e+06
3.55157e+06
3.56773e+06
3.58832e+06
3.60414e+06
3.62491e+06
3.6402e+06
3.66115e+06
3.67572e+06
3.69679e+06
3.71046e+06
3.7315e+06
3.74424e+06
3.76469e+06
3.77873e+06
3.80373e+06
2.07059e+06
2.09703e+06
2.11781e+06
2.14463e+06
2.16386e+06
2.18989e+06
2.2082e+06
2.23467e+06
2.2525e+06
2.27858e+06
2.29504e+06
2.31923e+06
2.33382e+06
2.35585e+06
2.36839e+06
2.38932e+06
2.40112e+06
2.42267e+06
2.43416e+06
2.45591e+06
2.46656e+06
2.48703e+06
2.49705e+06
2.51661e+06
2.52736e+06
2.54889e+06
2.56178e+06
2.58543e+06
2.59926e+06
2.62296e+06
2.63658e+06
2.65915e+06
2.67171e+06
2.69256e+06
2.70363e+06
2.7232e+06
2.73354e+06
2.75272e+06
2.76296e+06
2.78219e+06
2.7919e+06
2.81084e+06
2.8204e+06
2.83915e+06
2.8487e+06
2.867e+06
2.8762e+06
2.89431e+06
2.90338e+06
2.92143e+06
2.93058e+06
2.94876e+06
2.9581e+06
2.97713e+06
2.98696e+06
3.00684e+06
3.01752e+06
3.03785e+06
3.04893e+06
3.06953e+06
3.08077e+06
3.10183e+06
3.11375e+06
3.13551e+06
3.14835e+06
3.1709e+06
3.18461e+06
3.20798e+06
3.22229e+06
3.24629e+06
3.26103e+06
3.28545e+06
3.30048e+06
3.32521e+06
3.3404e+06
3.36503e+06
3.38007e+06
3.40415e+06
3.41898e+06
3.44236e+06
3.45705e+06
3.47983e+06
3.49457e+06
3.517e+06
3.53196e+06
3.55425e+06
3.56952e+06
3.5918e+06
3.60724e+06
3.62953e+06
3.64484e+06
3.66706e+06
3.68193e+06
3.70404e+06
3.71817e+06
3.74014e+06
3.75334e+06
3.77466e+06
3.78908e+06
3.81487e+06
2.06848e+06
2.09478e+06
2.1134e+06
2.14042e+06
2.15858e+06
2.18512e+06
2.202e+06
2.22765e+06
2.24398e+06
2.26975e+06
2.28548e+06
2.31063e+06
2.32463e+06
2.34825e+06
2.36069e+06
2.38285e+06
2.39411e+06
2.41529e+06
2.42594e+06
2.44592e+06
2.45566e+06
2.47517e+06
2.48508e+06
2.50429e+06
2.51495e+06
2.53562e+06
2.54801e+06
2.57088e+06
2.58451e+06
2.60817e+06
2.62167e+06
2.645e+06
2.65783e+06
2.68048e+06
2.69293e+06
2.71474e+06
2.72674e+06
2.74789e+06
2.75936e+06
2.77965e+06
2.79016e+06
2.80994e+06
2.81983e+06
2.83916e+06
2.84876e+06
2.86799e+06
2.87774e+06
2.89736e+06
2.90724e+06
2.92713e+06
2.93722e+06
2.95749e+06
2.96784e+06
2.98858e+06
2.99913e+06
3.02057e+06
3.0317e+06
3.05384e+06
3.06504e+06
3.08703e+06
3.09823e+06
3.12064e+06
3.13225e+06
3.1553e+06
3.16758e+06