/*--------------------------------*- C++ -*----------------------------------*\
  =========                 |
  \\      /  F ield         | OpenFOAM: The Open Source CFD Toolbox
   \\    /   O peration     | Website:  https://openfoam.org
    \\  /    A nd           | Version:  8
     \\/     M anipulation  |
\*---------------------------------------------------------------------------*/
FoamFile
{
    version     2.0;
    format      ascii;
    class       volScalarField;
    location    "0.999971";
    object      nut;
}
// * * * * * * * * * * * * * * * * * * * * * * * * * * * * * * * * * * * * * //

dimensions      [0 2 -1 0 0 0 0];

internalField   nonuniform List<scalar> 
6800
(
0.14423
0.204603
0.220159
0.200862
0.160221
0.0822122
0.0491694
0.0347722
0.0263263
0.0264325
0.162521
0.185933
0.169027
0.11055
0.0625221
0.0430488
0.0349527
0.0300549
0.0268002
0.030886
0.154153
0.128333
0.0978584
0.0598344
0.0465743
0.0404346
0.0341441
0.0304461
0.0307538
0.0242156
0.109923
0.0785272
0.0598676
0.049124
0.0435326
0.0397336
0.0330879
0.0277784
0.0208266
0.0190937
0.0310924
0.0527168
0.051233
0.0502384
0.0440307
0.0314815
0.0240774
0.0228936
0.0207935
0.0191667
0.0249265
0.0480781
0.0489066
0.0493739
0.0343732
0.0277777
0.0261175
0.0233462
0.0191323
0.0165131
0.0265016
0.0495375
0.0497518
0.0428805
0.0334083
0.0278673
0.0226452
0.0186541
0.017003
0.0160081
0.0271298
0.0488411
0.0494709
0.0395955
0.0286337
0.0250987
0.0214862
0.0196544
0.0168113
0.0157562
0.0279065
0.0532119
0.0503853
0.0337713
0.0291701
0.024996
0.0209436
0.0168842
0.0153973
0.0150405
0.0282552
0.0548784
0.0438963
0.0345393
0.0266347
0.0230187
0.0192192
0.0172447
0.0157277
0.0150505
0.153361
0.494387
0.727494
0.849626
0.916397
0.950389
0.970179
0.986136
1.00214
1.01928
0.150088
0.482942
0.710264
0.828837
0.892474
0.92182
0.937086
0.948017
0.958404
0.970181
0.144188
0.459872
0.674926
0.788233
0.843385
0.864769
0.87094
0.871556
0.87172
0.875668
0.136106
0.427772
0.626036
0.728572
0.771083
0.780213
0.773198
0.758994
0.744025
0.735633
0.126675
0.391302
0.566177
0.650556
0.676332
0.670212
0.647896
0.617458
0.585716
0.553688
0.11704
0.353462
0.500693
0.557946
0.558584
0.532235
0.499478
0.466319
0.442139
0.381929
0.108929
0.323739
0.429847
0.443382
0.418421
0.386333
0.365285
0.341984
0.321111
0.305197
0.104011
0.293485
0.340176
0.329399
0.307029
0.292706
0.274039
0.28392
0.271667
0.215939
0.106699
0.251461
0.269373
0.266255
0.247699
0.254404
0.240148
0.211321
0.16442
0.0777528
0.114593
0.221107
0.233978
0.224732
0.223539
0.198728
0.138682
0.0768949
0.0473467
0.0289587
1.04511
1.07945
1.1117
1.14233
1.17112
1.1981
1.22313
1.24614
1.26715
1.28631
1.3039
1.31994
1.33445
1.34736
1.35861
1.36819
1.37619
1.38253
1.3872
1.39035
1.39196
1.3927
1.39189
1.39004
1.38733
1.38389
1.37979
1.37507
1.36983
1.36417
1.35817
1.35191
1.34547
1.33888
1.33212
1.32522
1.31821
1.31112
1.30396
1.29676
1.28954
1.28229
1.27505
1.26783
1.26064
1.2535
1.24641
1.23939
1.23244
1.22558
1.21879
1.21208
1.20546
1.19893
1.1925
1.18616
1.17991
1.17376
1.16771
1.16176
1.15592
1.15018
1.14456
1.13904
1.13363
1.12834
1.12316
1.11809
1.11312
1.10826
1.10351
1.09884
1.09428
1.0898
1.0854
1.08109
1.07686
1.07271
1.06863
1.06462
1.06069
1.05684
1.05306
1.04935
1.04572
1.04216
1.03868
1.03528
1.03194
1.02871
1.0255
1.02245
1.01934
1.01652
1.01342
1.01093
1.00775
1.00546
1.00296
0.999605
0.992211
1.02732
1.05948
1.09015
1.1193
1.14667
1.17211
1.19546
1.21665
1.23583
1.25343
1.2694
1.28388
1.29681
1.30817
1.31761
1.32539
1.33149
1.33591
1.33869
1.34067
1.34109
1.34036
1.33869
1.33632
1.33335
1.32981
1.32565
1.32103
1.31605
1.31079
1.30533
1.29967
1.29382
1.28783
1.2817
1.27548
1.26917
1.2628
1.25638
1.24993
1.24345
1.23698
1.23052
1.22409
1.2177
1.21136
1.20508
1.19886
1.19269
1.1866
1.18056
1.1746
1.16872
1.16291
1.15718
1.15154
1.14597
1.1405
1.13511
1.12982
1.12462
1.11952
1.11452
1.10962
1.10482
1.10011
1.0955
1.09099
1.08656
1.08223
1.07797
1.0738
1.0697
1.06568
1.06173
1.05785
1.05404
1.0503
1.04662
1.04301
1.03947
1.03599
1.03259
1.02925
1.02598
1.02277
1.01965
1.01657
1.0136
1.01064
1.00784
1.00496
1.00238
0.999492
0.997216
0.994252
0.992129
0.989912
0.986707
0.898208
0.938659
0.974687
1.00869
1.04086
1.07109
1.09919
1.12486
1.14801
1.16893
1.18772
1.20442
1.21933
1.23261
1.24416
1.25305
1.26008
1.26546
1.26865
1.27128
1.27203
1.2716
1.27012
1.26782
1.26511
1.26198
1.25836
1.25407
1.24947
1.24468
1.23973
1.23462
1.22934
1.22397
1.21854
1.21305
1.20751
1.20194
1.19634
1.19072
1.1851
1.17949
1.1739
1.16835
1.16285
1.1574
1.15202
1.1467
1.14144
1.13623
1.13108
1.12598
1.12095
1.11598
1.11108
1.10625
1.10149
1.0968
1.09219
1.08766
1.08321
1.07885
1.07457
1.07038
1.06627
1.06225
1.0583
1.05444
1.05065
1.04694
1.04329
1.03971
1.03619
1.03273
1.02933
1.02599
1.02271
1.01948
1.01631
1.01319
1.01013
1.00712
1.00417
1.00128
0.998446
0.995674
0.992951
0.9903
0.987685
0.985165
0.982639
0.980272
0.977794
0.975629
0.973117
0.971222
0.968636
0.966805
0.965108
0.962096
0.769345
0.82169
0.86687
0.907875
0.945877
0.981354
1.01415
1.04379
1.07005
1.09328
1.11368
1.13125
1.1464
1.1597
1.17032
1.17653
1.18116
1.18344
1.18474
1.18388
1.18175
1.17859
1.17465
1.17015
1.16596
1.16162
1.15702
1.15271
1.14856
1.14442
1.14026
1.13607
1.13187
1.12764
1.12336
1.11905
1.11469
1.1103
1.1059
1.10147
1.09704
1.09263
1.08824
1.0839
1.07962
1.0754
1.07124
1.06714
1.06311
1.05914
1.05523
1.05137
1.04756
1.04379
1.04007
1.03641
1.0328
1.02925
1.02575
1.02233
1.01898
1.01569
1.01248
1.00933
1.00626
1.00324
1.00029
0.997401
0.994564
0.991777
0.989038
0.986341
0.983687
0.981067
0.978496
0.975967
0.973477
0.971026
0.968612
0.966239
0.963907
0.961616
0.959368
0.957165
0.955002
0.952889
0.95081
0.948793
0.946788
0.944874
0.942924
0.941137
0.939197
0.937584
0.935579
0.934196
0.932106
0.930708
0.929598
0.926887
0.608423
0.675863
0.732448
0.781747
0.825766
0.864886
0.900064
0.930793
0.956608
0.978544
0.997623
1.01409
1.02872
1.04214
1.05352
1.06109
1.06914
1.0747
1.07785
1.07944
1.0796
1.0786
1.07663
1.07401
1.0698
1.06482
1.05952
1.05414
1.04874
1.04349
1.03842
1.03354
1.02884
1.0243
1.0199
1.01563
1.01148
1.00743
1.00351
0.999678
0.995951
0.992343
0.988836
0.985464
0.982228
0.979108
0.976104
0.973202
0.970394
0.967657
0.964991
0.962368
0.95978
0.957219
0.954702
0.952249
0.949836
0.947465
0.945152
0.942911
0.940736
0.938627
0.936578
0.934589
0.932656
0.930774
0.928941
0.927149
0.925392
0.923666
0.921963
0.920282
0.918618
0.916971
0.915324
0.913687
0.912065
0.910463
0.908885
0.907335
0.905812
0.904322
0.902862
0.901438
0.900039
0.898684
0.897341
0.896055
0.894756
0.893548
0.892268
0.891162
0.889854
0.888894
0.887493
0.886715
0.885212
0.884357
0.883878
0.88156
0.44207
0.511533
0.571508
0.623709
0.670312
0.711786
0.7495
0.783744
0.814482
0.841987
0.866918
0.887668
0.904369
0.916287
0.925015
0.931041
0.933038
0.932952
0.930922
0.927239
0.922289
0.916488
0.910186
0.903737
0.897509
0.89174
0.886393
0.881539
0.877112
0.873138
0.869538
0.866301
0.86335
0.860654
0.858181
0.85589
0.853805
0.851884
0.85017
0.848595
0.847172
0.845924
0.844787
0.843809
0.842994
0.842291
0.841705
0.84121
0.840792
0.840399
0.840036
0.839638
0.839202
0.838722
0.838215
0.837749
0.837295
0.836848
0.836431
0.836066
0.835745
0.835467
0.835223
0.835012
0.83483
0.834665
0.834519
0.834376
0.834226
0.834066
0.833887
0.833685
0.833456
0.833206
0.832936
0.83265
0.832347
0.832038
0.83172
0.831404
0.831088
0.830779
0.830473
0.83018
0.829881
0.829602
0.829299
0.829035
0.828715
0.828479
0.828122
0.82794
0.827499
0.827407
0.826828
0.826852
0.826128
0.826012
0.826286
0.824614
0.336662
0.379339
0.424023
0.467864
0.509766
0.547328
0.581863
0.612124
0.637367
0.659171
0.678018
0.692275
0.704127
0.713677
0.718286
0.720254
0.719648
0.716562
0.711738
0.705523
0.698353
0.690743
0.683097
0.675828
0.669135
0.663342
0.658402
0.654491
0.651389
0.649172
0.647581
0.646627
0.646122
0.646031
0.646295
0.646814
0.647684
0.648786
0.650245
0.651925
0.653808
0.655965
0.658229
0.660648
0.66328
0.665969
0.668772
0.671633
0.6745
0.677283
0.67999
0.682482
0.684808
0.68701
0.68908
0.691182
0.693315
0.695449
0.697584
0.699746
0.701926
0.70413
0.70634
0.708544
0.710741
0.7129
0.71503
0.7171
0.719095
0.721013
0.722842
0.724577
0.726217
0.727775
0.729254
0.730671
0.732027
0.733343
0.734613
0.735858
0.737067
0.738254
0.739415
0.740555
0.741643
0.742721
0.743725
0.744746
0.745658
0.746652
0.747465
0.748454
0.749114
0.750116
0.750578
0.751617
0.751866
0.752708
0.753824
0.753186
0.22882
0.250792
0.274031
0.29733
0.322595
0.346859
0.370897
0.392631
0.412177
0.42879
0.441636
0.453082
0.460654
0.464089
0.464082
0.461291
0.456138
0.448253
0.4391
0.429191
0.419044
0.40928
0.400228
0.392456
0.385832
0.380919
0.377185
0.375145
0.374077
0.374385
0.375425
0.377422
0.379955
0.38315
0.386751
0.390707
0.39521
0.400035
0.405439
0.411249
0.417262
0.423719
0.430295
0.436899
0.443843
0.450545
0.457517
0.46435
0.470865
0.476998
0.48273
0.487881
0.492992
0.498142
0.503242
0.508522
0.513901
0.519352
0.524846
0.530387
0.535917
0.541431
0.546902
0.552285
0.5576
0.562777
0.567835
0.57269
0.577344
0.581831
0.586098
0.590156
0.594033
0.597766
0.60136
0.604856
0.608241
0.611565
0.614791
0.617981
0.621079
0.624138
0.627139
0.630014
0.632797
0.635501
0.638094
0.640694
0.64312
0.645652
0.647932
0.650364
0.652392
0.654738
0.656475
0.658756
0.660161
0.662226
0.664162
0.665217
0.0822696
0.0922696
0.104001
0.115693
0.128258
0.139591
0.150371
0.159541
0.167189
0.173758
0.177612
0.179813
0.179547
0.17774
0.173996
0.168915
0.162967
0.155867
0.148683
0.141622
0.134913
0.12891
0.123569
0.119294
0.115664
0.113255
0.111355
0.110633
0.110284
0.110915
0.111852
0.113564
0.115444
0.118252
0.120561
0.123773
0.127356
0.131785
0.136642
0.14217
0.14799
0.154585
0.161542
0.168482
0.176454
0.184156
0.192943
0.201193
0.210819
0.221122
0.232069
0.243592
0.25503
0.266327
0.277253
0.288068
0.298754
0.309368
0.319718
0.329932
0.339923
0.349693
0.359258
0.368474
0.377532
0.386155
0.394342
0.401833
0.409196
0.416415
0.42289
0.429179
0.435393
0.441523
0.447522
0.453451
0.45924
0.464989
0.47057
0.476153
0.481504
0.486916
0.492073
0.496635
0.501442
0.505697
0.510403
0.514967
0.519166
0.523645
0.527697
0.531794
0.535466
0.539352
0.542577
0.546294
0.548971
0.552522
0.555157
0.558589
0.0305696
0.0321212
0.0346462
0.0366796
0.0385785
0.0408315
0.042499
0.044421
0.0457178
0.0465646
0.046721
0.0465732
0.0457318
0.0445339
0.0428907
0.0409561
0.0389128
0.0367564
0.0346471
0.0326716
0.0308661
0.029297
0.0279056
0.0268001
0.025815
0.0251267
0.0244977
0.0241432
0.0238134
0.023709
0.0236258
0.0237233
0.0238388
0.024128
0.0244479
0.0248766
0.0254066
0.0260661
0.0267781
0.0277653
0.0291276
0.0305103
0.0322758
0.0340257
0.0362877
0.03856
0.0413517
0.0442562
0.0476001
0.0513283
0.0554379
0.0601736
0.0652699
0.0710578
0.0771118
0.0838626
0.0909117
0.0987391
0.106831
0.115562
0.124592
0.13401
0.143779
0.153628
0.163806
0.173919
0.184529
0.195358
0.2063
0.217294
0.227977
0.238395
0.248465
0.258316
0.267839
0.277175
0.286196
0.295064
0.303617
0.312038
0.320163
0.328126
0.335673
0.342892
0.349709
0.356292
0.362628
0.368854
0.374856
0.380872
0.386522
0.392235
0.398148
0.403333
0.408462
0.41327
0.417389
0.42246
0.425875
0.43198
0.0240674
0.0231377
0.0224403
0.0223646
0.0222785
0.0221452
0.0220055
0.0218596
0.0216647
0.0214399
0.0211417
0.0208125
0.0204186
0.0199999
0.0195505
0.0190957
0.018648
0.0182206
0.0178253
0.0174659
0.0171485
0.0168712
0.0166273
0.0164266
0.016242
0.0160997
0.0159587
0.015854
0.0157442
0.015659
0.0155717
0.0154949
0.0154239
0.0153513
0.0152934
0.0152239
0.015178
0.0151161
0.0150831
0.0150241
0.0150121
0.0149645
0.0149849
0.0149546
0.0150228
0.0150322
0.015082
0.0151905
0.0152999
0.015499
0.0156863
0.0160201
0.0163352
0.0168685
0.0173773
0.0181831
0.0189752
0.020154
0.0213631
0.0230135
0.0247748
0.0269861
0.0294087
0.0322749
0.0353997
0.039035
0.0428674
0.0473708
0.0520348
0.0574497
0.0629927
0.0692926
0.0756459
0.0827651
0.0898715
0.0977357
0.105512
0.114006
0.122329
0.131271
0.140002
0.149173
0.158264
0.167833
0.177108
0.186689
0.195717
0.204857
0.213348
0.221996
0.229865
0.237978
0.245229
0.252939
0.25935
0.266722
0.272135
0.279238
0.284526
0.291878
0.0202718
0.0202762
0.0202442
0.0201682
0.0200902
0.0199542
0.0197708
0.0195453
0.0192779
0.018988
0.0186738
0.0183571
0.0180399
0.0177404
0.0174577
0.0172066
0.016983
0.0167917
0.0166241
0.016478
0.0163499
0.0162335
0.0161284
0.0160301
0.015933
0.0158461
0.0157515
0.0156709
0.0155789
0.0155003
0.0154128
0.0153336
0.0152521
0.0151729
0.0150967
0.0150204
0.014949
0.0148766
0.0148095
0.0147476
0.0146834
0.014627
0.01457
0.0145175
0.0144672
0.0144204
0.0143759
0.014332
0.0142954
0.0142548
0.0142257
0.0141888
0.014168
0.0141351
0.0141235
0.0140986
0.014098
0.0140962
0.0141096
0.0141378
0.0141742
0.0142362
0.0143038
0.0144082
0.014524
0.0147016
0.0148861
0.0151854
0.0154708
0.015954
0.0163814
0.0171347
0.0177553
0.018882
0.0197566
0.0213857
0.0225523
0.0248061
0.0264565
0.0293691
0.0316213
0.0352499
0.0381719
0.0425859
0.0462465
0.051462
0.0558438
0.0618115
0.0667928
0.0734036
0.0788063
0.0859257
0.0915113
0.0990466
0.104534
0.112397
0.117569
0.125271
0.132328
0.139216
0.0173787
0.0174605
0.0174765
0.0174864
0.0174952
0.0174689
0.0174203
0.0173536
0.0172712
0.017176
0.0170782
0.0169797
0.0168897
0.0168071
0.0167362
0.0166749
0.0166108
0.0165461
0.0164734
0.0163946
0.0163086
0.0162142
0.0161083
0.0159906
0.0158668
0.0157448
0.0156167
0.0155002
0.0153773
0.0152682
0.015156
0.0150538
0.0149542
0.0148596
0.0147707
0.0146857
0.0146057
0.014529
0.0144583
0.0143928
0.0143282
0.0142726
0.0142124
0.0141641
0.0141101
0.0140685
0.0140185
0.0139827
0.0139367
0.0139049
0.0138629
0.0138344
0.0137958
0.0137696
0.0137342
0.0137093
0.0136769
0.0136462
0.0136113
0.013573
0.0135403
0.0135059
0.0134828
0.013451
0.0134372
0.013408
0.013403
0.013378
0.0133816
0.0133628
0.0133762
0.0133642
0.0133937
0.0133876
0.0134428
0.0134685
0.0135025
0.0135959
0.0136537
0.0137965
0.0138932
0.0141194
0.0142716
0.0146221
0.0148529
0.0153794
0.0157218
0.0164821
0.0169708
0.0180295
0.018695
0.0201137
0.0209737
0.0228247
0.0238525
0.0261414
0.0274346
0.0297867
0.0328696
0.0347496
0.0158328
0.0159048
0.0159161
0.0159251
0.0159396
0.0159353
0.0159181
0.0158909
0.0158532
0.0158089
0.0157588
0.0156989
0.0156347
0.0155586
0.0154793
0.0153836
0.0152869
0.0151721
0.0150603
0.0149338
0.0148141
0.0146855
0.0145755
0.0144722
0.0143829
0.0143002
0.0142254
0.0141569
0.0140923
0.0140325
0.0139756
0.0139207
0.0138696
0.0138176
0.0137707
0.0137215
0.0136775
0.0136305
0.0135897
0.0135448
0.0135071
0.0134636
0.0134263
0.0133854
0.0133525
0.0133153
0.0132846
0.0132509
0.0132235
0.0131943
0.0131697
0.0131439
0.0131213
0.0130979
0.0130766
0.0130551
0.0130352
0.0130156
0.0129974
0.0129797
0.0129634
0.0129476
0.012933
0.0129188
0.0129054
0.0128927
0.0128802
0.0128689
0.0128572
0.0128471
0.0128357
0.0128272
0.0128152
0.012809
0.0127963
0.0127929
0.01278
0.0127788
0.0127677
0.012767
0.0127614
0.0127593
0.012762
0.0127592
0.0127705
0.0127715
0.0127905
0.0127995
0.0128292
0.0128479
0.0128946
0.0129477
0.0129828
0.0130694
0.0131215
0.0132442
0.0133122
0.013474
0.0135326
0.0139259
0.0149962
0.0150236
0.015035
0.0150596
0.0150712
0.0150752
0.0150731
0.0150654
0.0150494
0.015027
0.0149964
0.0149601
0.0149165
0.0148672
0.0148125
0.0147517
0.0146887
0.0146199
0.0145526
0.0144805
0.0144131
0.0143425
0.0142799
0.0142119
0.0141536
0.0140908
0.0140351
0.0139769
0.0139228
0.013867
0.0138144
0.0137589
0.0137087
0.0136531
0.0136056
0.0135515
0.0135053
0.0134542
0.0134092
0.0133571
0.0133155
0.0132674
0.0132266
0.0131809
0.0131468
0.0131051
0.013074
0.0130361
0.0130089
0.0129749
0.0129513
0.0129204
0.0128993
0.0128708
0.0128514
0.0128247
0.0128068
0.012782
0.0127657
0.0127428
0.0127283
0.0127072
0.0126943
0.0126747
0.0126632
0.0126449
0.0126344
0.012617
0.0126075
0.0125908
0.012582
0.012566
0.012558
0.0125426
0.0125353
0.0125205
0.0125139
0.0124997
0.0124937
0.0124799
0.0124745
0.0124609
0.0124562
0.0124427
0.0124383
0.0124251
0.0124207
0.012408
0.0124033
0.0123913
0.0123855
0.012374
0.0123687
0.0123588
0.0123545
0.0123462
0.0123439
0.012334
0.0123515
0.012315
0.0142868
0.0143157
0.0143243
0.0143766
0.0143933
0.0144024
0.0144049
0.0144011
0.01439
0.0143719
0.0143468
0.0143147
0.0142768
0.0142322
0.014183
0.0141272
0.0140686
0.0140033
0.0139385
0.0138662
0.0137992
0.0137242
0.0136576
0.0135846
0.0135209
0.013452
0.0133916
0.0133277
0.0132704
0.0132112
0.0131571
0.0131011
0.0130514
0.012998
0.0129531
0.0129037
0.0128617
0.0128174
0.012781
0.0127419
0.0127131
0.0126775
0.0126507
0.0126197
0.0125983
0.0125698
0.0125509
0.012525
0.0125083
0.0124846
0.0124698
0.0124476
0.0124343
0.0124133
0.0124013
0.0123816
0.0123709
0.0123525
0.0123432
0.012326
0.0123182
0.0123023
0.0122956
0.0122805
0.0122746
0.0122601
0.0122549
0.0122409
0.0122365
0.0122229
0.012219
0.0122058
0.0122025
0.0121894
0.0121865
0.0121737
0.012171
0.0121583
0.0121559
0.0121434
0.0121411
0.0121288
0.0121266
0.0121146
0.0121124
0.0121007
0.0120984
0.0120871
0.0120846
0.0120738
0.0120711
0.0120608
0.0120578
0.0120481
0.0120449
0.0120358
0.0120324
0.0120239
0.0120198
0.0120102
0.013663
0.0137025
0.0137327
0.0137671
0.0137891
0.0138009
0.0138096
0.0138094
0.0138044
0.0137901
0.0137711
0.0137448
0.0137145
0.0136781
0.0136389
0.0135934
0.0135474
0.013495
0.0134441
0.0133876
0.0133347
0.013277
0.013225
0.0131696
0.0131205
0.0130687
0.0130249
0.012978
0.0129387
0.0128958
0.0128598
0.0128194
0.0127867
0.0127481
0.0127189
0.0126825
0.0126553
0.0126235
0.0125962
0.0125673
0.0125447
0.0125151
0.0124939
0.0124675
0.0124488
0.0124232
0.0124063
0.0123824
0.0123667
0.0123441
0.01233
0.0123083
0.0122954
0.012275
0.0122633
0.012244
0.0122335
0.0122154
0.0122061
0.0121892
0.0121811
0.0121652
0.012158
0.0121428
0.0121364
0.0121217
0.0121158
0.0121015
0.0120963
0.0120823
0.0120777
0.012064
0.0120599
0.0120463
0.0120425
0.0120291
0.0120256
0.0120123
0.0120089
0.0119959
0.0119927
0.0119799
0.0119768
0.0119644
0.0119612
0.0119492
0.0119459
0.0119343
0.0119307
0.0119196
0.0119158
0.0119052
0.0119011
0.011891
0.0118868
0.0118772
0.0118736
0.0118597
0.0118818
0.0118192
0.0131673
0.0132025
0.013237
0.0132646
0.0132872
0.0132991
0.0133098
0.0133112
0.0133114
0.0133013
0.0132902
0.0132697
0.0132488
0.0132204
0.0131915
0.0131566
0.0131212
0.0130806
0.0130399
0.0129944
0.0129505
0.0129026
0.0128586
0.0128116
0.0127705
0.0127271
0.0126901
0.0126514
0.0126182
0.0125823
0.0125513
0.0125167
0.0124873
0.0124537
0.0124266
0.0123943
0.0123695
0.01234
0.0123165
0.0122888
0.0122703
0.0122435
0.0122245
0.0122004
0.0121849
0.0121621
0.012147
0.0121253
0.0121114
0.012091
0.0120788
0.0120594
0.0120482
0.0120299
0.0120199
0.0120028
0.0119941
0.0119781
0.0119706
0.0119558
0.0119494
0.0119355
0.0119301
0.0119169
0.0119122
0.0118995
0.0118955
0.0118832
0.0118798
0.0118678
0.0118649
0.0118532
0.0118507
0.0118391
0.0118369
0.0118253
0.0118231
0.0118116
0.0118095
0.0117982
0.0117961
0.011785
0.0117829
0.011772
0.0117698
0.0117593
0.0117568
0.0117466
0.0117438
0.0117341
0.0117309
0.0117217
0.0117183
0.0117097
0.011706
0.0116981
0.0116942
0.0116868
0.0116837
0.0116721
0.0127788
0.0128134
0.0128426
0.0128683
0.0128902
0.0129025
0.0129129
0.0129163
0.0129185
0.0129133
0.0129068
0.0128934
0.0128789
0.0128587
0.0128384
0.0128122
0.0127868
0.0127551
0.0127241
0.0126874
0.0126526
0.0126136
0.0125787
0.01254
0.0125076
0.0124719
0.012443
0.0124108
0.0123852
0.012355
0.0123317
0.0123023
0.0122802
0.012252
0.0122308
0.0122046
0.0121849
0.0121616
0.0121429
0.0121223
0.0121081
0.0120863
0.0120735
0.0120547
0.012043
0.0120241
0.0120129
0.0119949
0.0119841
0.0119668
0.0119568
0.0119394
0.0119298
0.0119128
0.0119038
0.0118875
0.0118794
0.011864
0.0118567
0.0118421
0.0118357
0.0118219
0.0118165
0.0118033
0.0117986
0.011786
0.011782
0.0117698
0.0117664
0.0117546
0.0117518
0.0117402
0.0117377
0.0117262
0.0117241
0.0117127
0.0117107
0.0116994
0.0116974
0.0116863
0.0116843
0.0116734
0.0116713
0.0116607
0.0116585
0.0116481
0.0116457
0.0116357
0.0116329
0.0116233
0.0116202
0.0116111
0.0116078
0.0115991
0.0115957
0.0115874
0.0115847
0.0115724
0.0115943
0.0115359
0.0124824
0.0125225
0.012546
0.0125685
0.0125902
0.0126006
0.0126117
0.0126143
0.012619
0.012615
0.0126128
0.0126023
0.0125932
0.0125781
0.0125642
0.0125445
0.0125261
0.0125016
0.0124777
0.0124482
0.0124211
0.0123895
0.012362
0.0123301
0.0123037
0.0122733
0.0122487
0.012221
0.0121985
0.0121722
0.0121512
0.0121256
0.0121062
0.0120815
0.0120641
0.0120409
0.0120253
0.0120045
0.0119902
0.011972
0.0119606
0.0119423
0.011931
0.0119146
0.0119055
0.0118887
0.0118797
0.0118633
0.0118545
0.0118391
0.011831
0.0118155
0.0118079
0.0117933
0.0117862
0.0117719
0.0117652
0.0117512
0.0117449
0.0117311
0.0117251
0.0117115
0.011706
0.011693
0.0116883
0.0116759
0.0116717
0.0116598
0.0116563
0.0116449
0.011642
0.011631
0.0116285
0.0116178
0.0116156
0.011605
0.011603
0.0115926
0.0115907
0.0115804
0.0115785
0.0115685
0.0115666
0.0115568
0.0115548
0.0115453
0.0115431
0.011534
0.0115315
0.0115226
0.0115198
0.0115114
0.0115083
0.0115002
0.0114969
0.0114893
0.0114857
0.0114788
0.0114741
0.0114665
0.0122539
0.012287
0.0123094
0.0123293
0.012352
0.0123622
0.0123746
0.0123774
0.0123835
0.0123811
0.012381
0.0123734
0.0123675
0.0123556
0.0123464
0.0123317
0.0123197
0.0123019
0.0122858
0.0122651
0.0122466
0.0122247
0.0122056
0.0121822
0.0121618
0.0121356
0.0121138
0.0120869
0.0120653
0.0120391
0.0120193
0.0119944
0.0119773
0.0119542
0.01194
0.0119192
0.0119067
0.0118887
0.0118767
0.0118606
0.0118506
0.011834
0.0118245
0.0118095
0.0118015
0.0117858
0.0117785
0.0117639
0.011757
0.0117435
0.0117377
0.0117251
0.0117199
0.0117074
0.0117026
0.0116903
0.0116854
0.0116729
0.0116678
0.0116547
0.0116494
0.0116364
0.0116313
0.0116185
0.0116135
0.0116012
0.0115967
0.0115849
0.011581
0.0115698
0.0115664
0.0115557
0.0115527
0.0115423
0.0115397
0.0115295
0.011527
0.011517
0.0115146
0.0115048
0.0115025
0.0114928
0.0114906
0.0114811
0.011479
0.0114698
0.0114676
0.0114588
0.0114565
0.0114479
0.0114454
0.0114372
0.0114344
0.0114266
0.0114234
0.0114161
0.0114117
0.0114095
0.0113807
0.011419
0.0120817
0.0121055
0.0121293
0.012147
0.0121706
0.0121786
0.0121924
0.0121964
0.0122027
0.0122017
0.0122019
0.0121957
0.0121914
0.0121827
0.0121769
0.0121661
0.0121586
0.0121453
0.0121359
0.0121211
0.0121107
0.012096
0.0120841
0.0120674
0.0120518
0.0120295
0.0120105
0.011984
0.0119627
0.0119362
0.0119164
0.0118925
0.0118759
0.011855
0.0118421
0.0118235
0.0118132
0.0117961
0.0117867
0.0117703
0.0117621
0.0117456
0.0117362
0.0117219
0.0117142
0.0116995
0.0116931
0.0116789
0.0116733
0.0116613
0.0116565
0.0116445
0.0116407
0.0116293
0.0116255
0.011614
0.0116105
0.0115991
0.0115953
0.0115834
0.0115795
0.0115675
0.0115635
0.0115518
0.0115481
0.0115368
0.0115333
0.0115224
0.0115191
0.0115086
0.0115055
0.0114953
0.0114923
0.0114823
0.0114795
0.0114695
0.0114666
0.0114568
0.0114538
0.011444
0.0114412
0.0114314
0.0114287
0.0114191
0.0114166
0.0114073
0.0114048
0.0113958
0.0113934
0.0113848
0.0113824
0.0113741
0.0113715
0.0113636
0.0113608
0.0113533
0.0113501
0.0113433
0.0113391
0.0113313
0.0119526
0.0119756
0.0119895
0.0120094
0.0120266
0.0120354
0.0120443
0.0120506
0.0120563
0.0120583
0.0120608
0.0120582
0.0120559
0.0120505
0.0120477
0.0120402
0.0120356
0.0120254
0.0120169
0.0120023
0.0119909
0.0119738
0.0119608
0.0119421
0.0119263
0.0119056
0.0118886
0.0118665
0.0118507
0.0118306
0.011817
0.011799
0.0117873
0.0117707
0.0117603
0.0117445
0.0117347
0.0117199
0.0117106
0.0116962
0.0116884
0.0116731
0.0116665
0.011653
0.0116458
0.0116327
0.0116263
0.0116129
0.0116081
0.0115954
0.0115909
0.0115793
0.0115751
0.0115635
0.0115602
0.0115492
0.0115459
0.0115352
0.0115324
0.0115219
0.0115196
0.0115096
0.0115078
0.0114981
0.0114966
0.0114872
0.0114855
0.0114761
0.0114742
0.0114647
0.0114625
0.0114528
0.0114503
0.0114402
0.0114373
0.0114271
0.0114237
0.0114134
0.0114098
0.0113994
0.0113957
0.0113855
0.0113819
0.0113719
0.0113685
0.011359
0.0113559
0.0113467
0.0113438
0.0113352
0.0113323
0.0113241
0.0113212
0.0113134
0.0113105
0.0113031
0.0113002
0.0112934
0.0112898
0.0112823
0.0118625
0.0118811
0.0118946
0.0119127
0.0119263
0.0119323
0.0119438
0.0119495
0.0119526
0.0119558
0.0119577
0.0119551
0.0119549
0.0119514
0.0119509
0.0119459
0.0119438
0.0119348
0.0119261
0.0119101
0.0118959
0.011876
0.0118596
0.0118384
0.0118224
0.0118025
0.0117897
0.0117735
0.0117635
0.0117495
0.0117403
0.0117258
0.0117162
0.0117007
0.0116909
0.0116747
0.0116653
0.0116504
0.011641
0.0116278
0.011621
0.0116069
0.0116018
0.0115891
0.0115839
0.0115726
0.0115677
0.0115558
0.0115514
0.0115405
0.0115371
0.0115253
0.011522
0.0115118
0.0115089
0.0114984
0.0114961
0.0114868
0.0114851
0.011476
0.0114751
0.0114663
0.0114658
0.0114572
0.0114568
0.0114482
0.0114472
0.0114382
0.0114367
0.0114272
0.0114253
0.0114157
0.0114135
0.0114037
0.0114011
0.0113913
0.0113886
0.0113785
0.0113754
0.0113655
0.0113621
0.0113525
0.0113489
0.0113395
0.0113358
0.0113267
0.011323
0.0113143
0.0113105
0.0113021
0.0112983
0.0112903
0.0112865
0.011279
0.0112753
0.0112682
0.0112655
0.0112546
0.011275
0.0112207
0.0117937
0.011813
0.0118257
0.0118462
0.0118611
0.011858
0.011871
0.0118718
0.0118807
0.0118819
0.0118843
0.0118786
0.0118762
0.0118693
0.0118677
0.0118617
0.0118589
0.0118491
0.0118401
0.0118242
0.0118092
0.0117892
0.0117725
0.011752
0.011737
0.0117191
0.0117077
0.0116934
0.0116851
0.0116728
0.0116652
0.0116531
0.0116448
0.0116322
0.0116234
0.0116107
0.011602
0.0115888
0.0115818
0.0115689
0.0115619
0.0115505
0.0115455
0.0115348
0.0115305
0.0115205
0.0115165
0.0115057
0.0115036
0.0114936
0.0114903
0.0114814
0.0114788
0.0114684
0.0114663
0.0114565
0.0114545
0.0114452
0.0114437
0.0114346
0.0114337
0.0114244
0.0114233
0.0114137
0.0114127
0.0114028
0.0114013
0.0113912
0.0113894
0.0113792
0.0113774
0.0113675
0.0113659
0.0113565
0.0113551
0.0113464
0.0113451
0.0113367
0.0113355
0.0113273
0.0113259
0.0113179
0.0113164
0.0113085
0.0113066
0.0112987
0.0112965
0.0112886
0.011286
0.011278
0.011275
0.011267
0.0112637
0.0112558
0.0112521
0.0112445
0.0112407
0.0112334
0.0112303
0.0112202
0.0117302
0.0117413
0.0117509
0.0117739
0.0117842
0.011786
0.0118009
0.0117967
0.0118031
0.0118049
0.0118102
0.0118049
0.0118028
0.0117942
0.0117905
0.0117807
0.0117746
0.0117633
0.0117548
0.011741
0.01173
0.0117147
0.0117036
0.0116886
0.0116779
0.0116635
0.011654
0.0116404
0.0116323
0.0116195
0.0116123
0.0116003
0.0115935
0.0115818
0.0115753
0.0115635
0.0115574
0.0115455
0.0115397
0.0115289
0.0115241
0.0115141
0.0115096
0.0114999
0.0114965
0.0114871
0.0114834
0.0114734
0.011471
0.0114611
0.0114585
0.0114483
0.0114452
0.0114352
0.0114323
0.011422
0.0114187
0.0114085
0.0114059
0.0113955
0.0113929
0.0113821
0.0113797
0.011369
0.0113667
0.0113563
0.0113541
0.0113438
0.0113419
0.0113318
0.0113302
0.0113207
0.0113195
0.0113105
0.0113097
0.0113014
0.0113008
0.0112929
0.0112926
0.011285
0.0112846
0.0112774
0.0112768
0.0112696
0.0112687
0.0112613
0.01126
0.0112525
0.0112506
0.011243
0.0112406
0.0112329
0.01123
0.0112224
0.0112191
0.0112115
0.0112088
0.0111972
0.0112172
0.0111627
0.0116929
0.0117
0.0117181
0.0117286
0.011732
0.01174
0.0117526
0.0117476
0.0117566
0.0117594
0.0117598
0.0117553
0.0117524
0.0117438
0.0117403
0.0117324
0.011727
0.0117161
0.0117081
0.0116952
0.0116852
0.0116708
0.0116615
0.011648
0.0116397
0.0116261
0.0116177
0.0116037
0.0115954
0.0115817
0.0115739
0.0115604
0.011553
0.0115403
0.0115333
0.0115218
0.0115151
0.0115045
0.0114996
0.011489
0.0114849
0.0114748
0.011472
0.0114623
0.0114594
0.0114507
0.0114477
0.0114382
0.0114366
0.0114269
0.0114242
0.0114147
0.0114122
0.011402
0.0113999
0.0113893
0.0113865
0.0113767
0.0113739
0.0113635
0.0113614
0.0113506
0.0113479
0.0113372
0.011335
0.0113244
0.0113222
0.0113119
0.01131
0.0112998
0.0112982
0.0112885
0.0112873
0.0112779
0.0112768
0.0112678
0.011267
0.0112583
0.0112576
0.0112492
0.0112485
0.0112403
0.0112395
0.0112316
0.0112306
0.0112228
0.0112216
0.0112139
0.0112125
0.0112048
0.0112031
0.0111956
0.0111935
0.0111863
0.0111839
0.011177
0.0111743
0.0111677
0.0111651
0.0111563
0.0116381
0.0116369
0.0116507
0.0116689
0.0116704
0.0116781
0.011685
0.0116838
0.0116915
0.0116926
0.011698
0.0116968
0.0116947
0.0116883
0.0116879
0.0116824
0.0116799
0.0116714
0.0116654
0.0116541
0.0116446
0.0116314
0.0116222
0.0116091
0.0115998
0.0115855
0.0115756
0.0115608
0.011552
0.0115382
0.011531
0.0115192
0.0115135
0.0115028
0.0114982
0.0114885
0.0114839
0.0114743
0.0114708
0.0114617
0.0114581
0.0114494
0.0114467
0.0114375
0.0114358
0.0114267
0.0114243
0.0114152
0.0114133
0.0114036
0.0114018
0.011392
0.0113896
0.01138
0.0113778
0.0113676
0.0113655
0.0113557
0.0113534
0.0113437
0.0113417
0.0113315
0.0113296
0.0113195
0.0113176
0.0113076
0.0113059
0.0112959
0.0112943
0.0112845
0.0112831
0.0112735
0.0112723
0.0112629
0.0112618
0.0112527
0.0112518
0.0112429
0.0112421
0.0112335
0.0112327
0.0112243
0.0112234
0.0112153
0.0112144
0.0112064
0.0112053
0.0111975
0.0111963
0.0111887
0.0111872
0.0111798
0.011178
0.011171
0.011169
0.0111623
0.0111599
0.0111536
0.0111512
0.0111432
0.0116287
0.0116333
0.0116485
0.0116579
0.0116628
0.0116742
0.0116806
0.0116804
0.0116937
0.0116959
0.0116982
0.0116892
0.0116829
0.0116732
0.0116696
0.0116632
0.0116585
0.0116478
0.0116399
0.011627
0.0116165
0.0116016
0.0115917
0.0115776
0.0115685
0.0115554
0.0115475
0.0115352
0.0115287
0.0115175
0.0115122
0.0115023
0.0114978
0.0114885
0.0114849
0.0114754
0.0114718
0.0114627
0.0114593
0.0114503
0.0114469
0.0114382
0.0114355
0.0114264
0.0114242
0.0114152
0.011413
0.0114042
0.0114023
0.0113932
0.0113913
0.011382
0.0113801
0.0113709
0.0113691
0.0113593
0.0113574
0.0113479
0.011346
0.0113364
0.0113347
0.0113249
0.0113231
0.0113133
0.0113116
0.0113018
0.0113003
0.0112905
0.011289
0.0112794
0.0112781
0.0112686
0.0112674
0.0112581
0.0112571
0.011248
0.011247
0.0112381
0.0112373
0.0112286
0.0112278
0.0112193
0.0112185
0.0112103
0.0112094
0.0112013
0.0112003
0.0111925
0.0111913
0.0111837
0.0111823
0.0111748
0.0111732
0.011166
0.0111641
0.0111575
0.0111544
0.0111525
0.0111264
0.0111637
0.0115812
0.011582
0.0116002
0.0115994
0.01161
0.0116179
0.0116158