/*--------------------------------*- C++ -*----------------------------------*\
  =========                 |
  \\      /  F ield         | OpenFOAM: The Open Source CFD Toolbox
   \\    /   O peration     | Website:  https://openfoam.org
    \\  /    A nd           | Version:  8
     \\/     M anipulation  |
\*---------------------------------------------------------------------------*/
FoamFile
{
    version     2.0;
    format      ascii;
    class       volScalarField;
    location    "0.999971";
    object      p;
}
// * * * * * * * * * * * * * * * * * * * * * * * * * * * * * * * * * * * * * //

dimensions      [1 -1 -2 0 0 0 0];

internalField   nonuniform List<scalar> 
6800
(
100403
100486
100520
100540
100542
100570
100603
100607
100631
100656
100320
100431
100512
100534
100539
100566
100595
100621
100651
100666
100281
100333
100460
100526
100528
100559
100595
100625
100651
100675
100291
100310
100354
100496
100507
100544
100583
100620
100655
100685
100309
100476
100326
100470
100490
100529
100568
100607
100641
100678
100312
100598
100284
100427
100458
100495
100535
100589
100636
100691
100100
100466
100179
100343
100393
100464
100513
100575
100623
100679
99645.4
100264
100055
100244
100311
100416
100481
100561
100621
100685
99165
99985.2
99903.7
100124
100213
100352
100448
100555
100621
100680
98691.1
99699.4
99674.9
100034
100182
100330
100426
100528
100614
100683
100610
100583
100566
100558
100555
100554
100554
100556
100559
100563
100602
100578
100562
100555
100552
100550
100550
100552
100555
100560
100587
100567
100554
100548
100546
100544
100543
100545
100548
100555
100569
100555
100546
100541
100539
100537
100536
100537
100541
100551
100550
100543
100538
100536
100533
100531
100530
100530
100537
100558
100534
100533
100532
100533
100532
100531
100529
100526
100533
100573
100519
100524
100529
100535
100537
100537
100533
100532
100534
100597
100503
100517
100532
100542
100546
100544
100541
100549
100543
100614
100485
100511
100534
100547
100553
100553
100552
100560
100552
100602
100457
100505
100529
100547
100555
100561
100558
100598
100621
100626
100571
100586
100604
100628
100655
100685
100719
100755
100794
100835
100878
100921
100965
101010
101054
101098
101141
101182
101221
101258
101292
101324
101353
101379
101402
101422
101439
101454
101466
101476
101484
101490
101495
101498
101499
101500
101500
101498
101497
101494
101491
101488
101484
101480
101476
101471
101467
101462
101457
101453
101448
101443
101439
101434
101430
101426
101421
101417
101413
101409
101406
101402
101399
101395
101392
101389
101386
101383
101380
101377
101374
101372
101370
101367
101365
101363
101361
101359
101357
101355
101353
101351
101350
101348
101346
101345
101343
101342
101341
101339
101338
101336
101335
101334
101332
101331
101330
101329
101327
101327
100566
100582
100601
100624
100651
100681
100715
100752
100791
100832
100874
100918
100962
101007
101052
101095
101138
101179
101219
101256
101291
101323
101352
101378
101401
101421
101438
101453
101466
101476
101484
101490
101494
101497
101499
101500
101499
101498
101496
101494
101491
101487
101484
101480
101475
101471
101466
101462
101457
101452
101448
101443
101439
101434
101430
101425
101421
101417
101413
101409
101406
101402
101398
101395
101392
101389
101386
101383
101380
101377
101374
101372
101369
101367
101365
101363
101361
101359
101357
101355
101353
101351
101350
101348
101346
101345
101343
101342
101341
101339
101338
101336
101335
101334
101332
101331
101330
101329
101327
101327
100559
100576
100595
100618
100645
100676
100709
100746
100785
100826
100868
100912
100956
101000
101045
101090
101133
101174
101214
101252
101287
101319
101348
101375
101398
101418
101436
101451
101464
101474
101482
101488
101493
101496
101498
101499
101498
101497
101495
101493
101490
101487
101483
101479
101475
101470
101466
101461
101457
101452
101447
101443
101438
101434
101429
101425
101421
101417
101413
101409
101405
101402
101398
101395
101392
101388
101385
101382
101380
101377
101374
101372
101369
101367
101365
101363
101361
101359
101357
101355
101353
101351
101350
101348
101346
101345
101343
101342
101340
101339
101338
101336
101335
101334
101332
101331
101330
101329
101327
101327
100553
100571
100590
100613
100639
100669
100703
100739
100777
100817
100860
100904
100948
100993
101037
101082
101125
101167
101207
101245
101280
101313
101343
101369
101393
101414
101432
101447
101460
101471
101479
101485
101490
101494
101496
101497
101496
101495
101494
101492
101489
101486
101482
101478
101474
101469
101465
101460
101456
101451
101447
101442
101438
101433
101429
101425
101420
101416
101412
101409
101405
101401
101398
101394
101391
101388
101385
101382
101379
101377
101374
101371
101369
101367
101365
101362
101360
101358
101356
101355
101353
101351
101349
101348
101346
101345
101343
101342
101340
101339
101338
101336
101335
101334
101332
101331
101330
101329
101327
101326
100553
100568
100587
100609
100635
100664
100697
100732
100770
100810
100852
100895
100939
100984
101028
101073
101116
101158
101198
101236
101272
101305
101335
101362
101386
101407
101426
101442
101455
101466
101474
101481
101486
101490
101492
101493
101493
101493
101491
101489
101486
101483
101480
101476
101472
101468
101463
101459
101455
101450
101445
101441
101437
101432
101428
101424
101420
101416
101412
101408
101404
101401
101397
101394
101391
101388
101385
101382
101379
101376
101374
101371
101369
101366
101364
101362
101360
101358
101356
101354
101353
101351
101349
101348
101346
101345
101343
101342
101340
101339
101338
101336
101335
101334
101332
101331
101330
101329
101327
101326
100565
100574
100590
100611
100635
100663
100694
100728
100765
100804
100845
100887
100931
100975
101020
101063
101107
101149
101189
101227
101263
101296
101326
101353
101378
101399
101418
101434
101448
101459
101468
101475
101481
101485
101487
101489
101489
101489
101487
101486
101483
101480
101477
101474
101470
101466
101461
101457
101453
101448
101444
101439
101435
101431
101427
101422
101418
101415
101411
101407
101403
101400
101396
101393
101390
101387
101384
101381
101378
101376
101373
101371
101368
101366
101364
101362
101360
101358
101356
101354
101352
101351
101349
101347
101346
101344
101343
101341
101340
101339
101337
101336
101335
101333
101332
101331
101330
101329
101327
101326
100589
100590
100601
100618
100640
100666
100697
100729
100764
100802
100841
100882
100925
100968
101011
101055
101097
101138
101178
101216
101252
101285
101315
101343
101368
101390
101409
101425
101439
101451
101460
101468
101474
101478
101481
101483
101483
101483
101482
101481
101479
101477
101474
101470
101467
101463
101459
101454
101450
101446
101442
101437
101433
101429
101425
101421
101417
101413
101409
101406
101402
101399
101395
101392
101389
101386
101383
101380
101378
101375
101372
101370
101368
101365
101363
101361
101359
101357
101355
101354
101352
101350
101349
101347
101345
101344
101343
101341
101340
101338
101337
101336
101335
101333
101332
101331
101330
101328
101327
101326
100613
100616
100623
100635
100653
100675
100701
100733
100766
100803
100840
100879
100920
100962
101004
101046
101087
101128
101166
101203
101239
101271
101302
101329
101354
101376
101396
101413
101428
101440
101450
101458
101465
101470
101473
101475
101476
101477
101476
101475
101474
101472
101470
101466
101463
101459
101455
101451
101447
101443
101439
101435
101431
101427
101423
101419
101415
101411
101408
101404
101401
101397
101394
101391
101388
101385
101382
101379
101377
101374
101372
101369
101367
101365
101363
101361
101359
101357
101355
101353
101351
101350
101348
101347
101345
101344
101342
101341
101340
101338
101337
101336
101334
101333
101332
101331
101330
101328
101327
101326
100611
100632
100647
100658
100674
100692
100716
100746
100778
100810
100843
100882
100921
100960
101000
101040
101080
101119
101157
101193
101227
101259
101288
101316
101340
101362
101382
101399
101414
101427
101438
101447
101454
101459
101463
101466
101468
101468
101467
101467
101467
101465
101464
101461
101458
101455
101451
101448
101444
101440
101436
101432
101428
101424
101420
101417
101413
101409
101406
101402
101399
101396
101392
101389
101386
101383
101381
101378
101375
101373
101370
101368
101366
101364
101362
101360
101358
101356
101354
101352
101351
101349
101348
101346
101345
101343
101342
101341
101339
101338
101337
101335
101334
101333
101332
101331
101329
101328
101327
101326
100619
100643
100667
100683
100698
100716
100737
100761
100790
100817
100851
100886
100922
100958
100995
101032
101069
101105
101141
101175
101208
101239
101268
101295
101320
101342
101362
101380
101396
101409
101421
101431
101439
101445
101450
101454
101456
101458
101458
101458
101458
101458
101456
101453
101451
101448
101445
101442
101439
101435
101432
101428
101425
101421
101417
101414
101411
101407
101404
101400
101397
101394
101391
101388
101385
101382
101379
101377
101374
101372
101370
101367
101365
101363
101361
101359
101357
101355
101354
101352
101350
101349
101347
101346
101344
101343
101341
101340
101339
101338
101336
101335
101334
101333
101332
101330
101329
101328
101327
101325
100655
100669
100696
100713
100729
100746
100766
100788
100814
100842
100871
100903
100936
100970
101005
101040
101075
101109
101142
101175
101206
101235
101263
101289
101312
101334
101354
101371
101387
101400
101412
101421
101430
101436
101441
101445
101448
101449
101451
101450
101450
101451
101449
101446
101444
101442
101440
101436
101434
101430
101427
101424
101421
101417
101413
101410
101407
101403
101400
101397
101394
101391
101388
101385
101383
101380
101377
101375
101372
101370
101368
101366
101364
101362
101360
101358
101356
101354
101353
101351
101349
101348
101346
101345
101344
101342
101341
101340
101338
101337
101336
101335
101334
101333
101331
101330
101329
101328
101327
101325
100702
100715
100741
100757
100771
100787
100807
100828
100852
100877
100905
100934
100964
100996
101027
101059
101091
101123
101154
101184
101213
101240
101265
101289
101310
101331
101349
101365
101380
101392
101403
101412
101420
101427
101432
101436
101439
101440
101442
101442
101442
101441
101439
101438
101437
101435
101432
101430
101427
101424
101421
101418
101415
101411
101408
101405
101402
101399
101396
101393
101390
101388
101385
101382
101380
101377
101375
101372
101370
101368
101366
101364
101362
101360
101358
101356
101354
101353
101351
101350
101348
101347
101345
101344
101343
101342
101340
101339
101338
101337
101336
101335
101333
101332
101331
101330
101329
101328
101327
101326
100744
100756
100778
100793
100806
100822
100840
100860
100882
100905
100931
100957
100985
101014
101043
101072
101102
101131
101160
101188
101214
101240
101264
101286
101306
101325
101342
101358
101372
101384
101395
101404
101412
101418
101423
101427
101430
101432
101432
101434
101433
101433
101433
101432
101430
101428
101426
101424
101421
101418
101416
101413
101410
101407
101404
101401
101398
101395
101393
101390
101387
101384
101382
101379
101377
101375
101372
101370
101368
101366
101364
101362
101360
101358
101356
101355
101353
101352
101350
101349
101347
101346
101344
101343
101342
101341
101340
101338
101337
101336
101335
101334
101333
101332
101331
101330
101329
101328
101327
101326
100782
100794
100816
100830
100843
100858
100876
100894
100915
100936
100960
100984
101010
101036
101063
101090
101117
101143
101169
101195
101219
101242
101264
101285
101305
101323
101339
101353
101366
101378
101388
101397
101404
101410
101415
101419
101422
101424
101425
101427
101426
101425
101425
101425
101423
101421
101419
101417
101415
101412
101410
101407
101405
101402
101399
101396
101394
101391
101388
101386
101383
101381
101379
101376
101374
101372
101370
101368
101365
101364
101362
101360
101358
101356
101355
101353
101352
101350
101349
101347
101346
101345
101343
101342
101341
101340
101339
101338
101337
101336
101335
101334
101333
101332
101331
101330
101329
101328
101327
101326
100821
100833
100852
100866
100878
100892
100908
100926
100944
100964
100985
101008
101031
101055
101079
101104
101128
101153
101177
101200
101223
101245
101265
101285
101303
101319
101334
101348
101360
101371
101381
101389
101396
101402
101407
101411
101414
101416
101418
101418
101419
101418
101419
101417
101416
101415
101413
101411
101409
101407
101404
101402
101400
101397
101395
101392
101390
101387
101385
101382
101380
101378
101376
101373
101371
101369
101367
101365
101363
101361
101360
101358
101356
101355
101353
101352
101350
101349
101347
101346
101345
101344
101342
101341
101340
101339
101338
101337
101336
101335
101334
101333
101332
101331
101330
101329
101328
101327
101326
101326
100860
100871
100889
100901
100913
100926
100940
100956
100973
100992
101011
101032
101053
101075
101097
101120
101143
101165
101187
101208
101229
101249
101268
101286
101302
101318
101332
101345
101356
101366
101375
101383
101390
101396
101400
101404
101407
101409
101412
101411
101412
101412
101412
101410
101409
101408
101407
101405
101403
101401
101398
101396
101394
101392
101390
101388
101385
101383
101381
101379
101376
101374
101372
101370
101368
101366
101364
101363
101361
101359
101357
101356
101354
101353
101351
101350
101349
101347
101346
101345
101344
101342
101341
101340
101339
101338
101337
101336
101335
101334
101333
101333
101332
101331
101330
101329
101328
101327
101326
101326
100898
100908
100924
100936
100946
100958
100972
100986
101002
101018
101036
101055
101074
101094
101114
101135
101155
101175
101195
101215
101234
101252
101269
101286
101301
101315
101328
101341
101351
101361
101369
101377
101383
101389
101393
101397
101400
101402
101405
101405
101404
101404
101404
101403
101403
101401
101400
101399
101397
101395
101393
101391
101389
101387
101385
101383
101381
101379
101377
101375
101373
101371
101369
101367
101365
101364
101362
101360
101358
101357
101355
101354
101352
101351
101350
101348
101347
101346
101345
101343
101342
101341
101340
101339
101338
101337
101336
101336
101335
101334
101333
101332
101331
101330
101330
101329
101328
101327
101326
101325
100933
100944
100959
100969
100979
100990
101002
101015
101029
101044
101060
101077
101095
101113
101131
101150
101168
101187
101205
101223
101240
101257
101273
101288
101302
101315
101327
101338
101348
101357
101365
101372
101378
101383
101387
101390
101393
101395
101397
101398
101397
101398
101397
101396
101396
101395
101395
101393
101391
101389
101387
101386
101384
101383
101381
101379
101377
101375
101373
101371
101369
101367
101366
101364
101362
101361
101359
101358
101356
101355
101353
101352
101350
101349
101348
101347
101345
101344
101343
101342
101341
101340
101339
101338
101337
101336
101336
101335
101334
101333
101332
101332
101331
101330
101329
101328
101328
101327
101326
101325
100967
100977
100992
101001
101010
101020
101031
101043
101056
101070
101084
101099
101115
101131
101148
101164
101181
101198
101214
101230
101246
101261
101275
101289
101302
101314
101325
101335
101344
101353
101360
101366
101372
101376
101380
101384
101386
101388
101390
101390
101391
101390
101390
101391
101389
101390
101389
101388
101386
101383
101382
101380
101379
101378
101376
101374
101373
101371
101369
101367
101365
101364
101362
101361
101359
101358
101356
101355
101354
101352
101351
101350
101348
101347
101346
101345
101344
101343
101342
101341
101340
101339
101338
101337
101336
101336
101335
101334
101333
101332
101332
101331
101330
101330
101329
101328
101327
101327
101326
101325
101002
101008
101024
101033
101041
101050
101060
101071
101082
101094
101107
101121
101135
101149
101164
101179
101194
101209
101224
101238
101253
101266
101279
101291
101303
101314
101324
101333
101342
101349
101356
101362
101367
101371
101375
101378
101380
101382
101383
101385
101385
101384
101384
101385
101384
101385
101383
101381
101380
101379
101378
101376
101374
101373
101372
101370
101368
101366
101364
101363
101361
101360
101359
101358
101357
101355
101354
101352
101351
101350
101349
101348
101346
101345
101344
101343
101342
101341
101340
101339
101339
101338
101337
101336
101335
101335
101334
101333
101333
101332
101331
101330
101330
101329
101329
101328
101327
101327
101326
101325
101037
101042
101055
101064
101071
101079
101088
101097
101107
101118
101130
101142
101154
101167
101180
101193
101207
101220
101233
101246
101259
101271
101282
101293
101304
101314
101322
101331
101338
101346
101352
101357
101362
101365
101369
101371
101373
101376
101377
101379
101379
101378
101378
101378
101379
101378
101376
101376
101375
101374
101373
101372
101370
101368
101367
101365
101364
101362
101361
101360
101358
101357
101356
101355
101354
101352
101351
101350
101349
101347
101346
101345
101344
101343
101342
101342
101341
101340
101339
101338
101337
101336
101336
101335
101334
101334
101333
101332
101332
101331
101331
101330
101329
101329
101328
101328
101327
101326
101326
101325
101074
101078
101087
101095
101101
101109
101115
101123
101132
101142
101152
101162
101173
101184
101196
101208
101220
101231
101243
101254
101266
101276
101287
101296
101306
101314
101322
101330
101337
101343
101348
101353
101357
101361
101363
101366
101367
101370
101371
101372
101374
101373
101373
101372
101373
101372
101371
101371
101370
101369
101368
101367
101366
101364
101362
101361
101360
101359
101358
101357
101355
101354
101353
101352
101351
101349
101348
101347
101346
101345
101344
101343
101342
101342
101341
101340
101339
101338
101337
101337
101336
101335
101335
101334
101333
101333
101332
101332
101331
101331
101330
101329
101329
101328
101328
101327
101327
101326
101326
101325
101107
101112
101120
101126
101131
101137
101142
101149
101156
101165
101173
101182
101192
101202
101212
101222
101232
101242
101253
101262
101272
101281
101290
101299
101307
101315
101322
101329
101335
101340
101346
101350
101353
101356
101358
101359
101362
101363
101364
101366
101367
101368
101368
101367
101367
101366
101366
101365
101364
101363
101363
101362
101361
101360
101357
101356
101356
101355
101354
101353
101352
101351
101350
101349
101347
101346
101345
101345
101344
101343
101342
101341
101340
101340
101339
101338
101337
101337
101336
101335
101335
101334
101333
101333
101332
101332
101331
101331
101330
101330
101329
101329
101328
101328
101327
101327
101327
101326
101326
101325
101139
101144
101153
101155
101161
101162
101168
101175
101180
101187
101194
101202
101210
101219
101227
101236
101245
101254
101262
101271
101279
101287
101295
101302
101309
101315
101322
101327
101333
101338
101342
101346
101350
101351
101354
101355
101357
101358
101359
101360
101362
101362
101362
101363
101361
101361
101361
101360
101359
101358
101358
101357
101355
101354
101353
101352
101351
101350
101350
101349
101348
101347
101346
101345
101344
101344
101343
101342
101341
101340
101340
101339
101338
101338
101337
101336
101336
101335
101334
101334
101333
101333
101332
101332
101332
101331
101331
101330
101330
101329
101329
101328
101328
101328
101327
101327
101326
101326
101325
101325
101169
101177
101187
101186
101189
101188
101196
101200
101203
101209
101215
101222
101228
101235
101242
101250
101257
101265
101272
101279
101286
101293
101299
101305
101311
101317
101322
101327
101331
101336
101340
101342
101345
101347
101349
101350
101351
101352
101354
101355
101357
101357
101357
101357
101355
101356
101355
101355
101353
101352
101353
101351
101350
101350
101349
101348
101347
101347
101345
101345
101344
101344
101343
101342
101341
101341
101340
101339
101338
101338
101337
101337
101336
101336
101335
101335
101334
101334
101333
101333
101332
101332
101331
101331
101331
101330
101330
101329
101329
101329
101328
101328
101327
101327
101327
101326
101326
101326
101325
101325
101197
101206
101212
101218
101214
101215
101222
101224
101225
101231
101236
101241
101247
101252
101257
101264
101270
101276
101281
101287
101293
101298
101304
101309
101313
101318
101322
101326
101330
101333
101336
101339
101341
101343
101344
101346
101347
101348
101349
101350
101351
101352
101352
101349
101349
101349
101349
101349
101348
101348
101347
101347
101346
101346
101345
101344
101344
101342
101342
101341
101341
101340
101339
101339
101338
101338
101337
101336
101336
101335
101335
101334
101334
101334
101333
101333
101332
101332
101332
101331
101331
101330
101330
101330
101330
101329
101329
101329
101328
101328
101328
101327
101327
101327
101326
101326
101326
101326
101325
101325
101228
101233
101234
101240
101239
101246
101246
101245
101248
101252
101256
101260
101264
101268
101272
101277
101282
101287
101291
101296
101300
101304
101308
101312
101316
101319
101323
101326
101329
101331
101334
101336
101338
101339
101340
101341
101342
101343
101344
101344
101346
101346
101344
101344
101344
101343
101344
101343
101342
101343
101342
101342
101342
101341
101340
101340
101340
101338
101339
101337
101337
101337
101336
101335
101335
101334
101334
101334
101333
101333
101332
101332
101332
101332
101331
101331
101331
101330
101330
101330
101330
101329
101329
101329
101329
101328
101328
101328
101328
101327
101327
101327
101327
101326
101326
101326
101326
101326
101325
101325
101258
101260
101265
101263
101265
101269
101266
101264
101271
101273
101276
101278
101281
101283
101287
101291
101294
101297
101301
101304
101307
101310
101313
101316
101318
101321
101323
101326
101328
101329
101331
101333
101334
101335
101335
101336
101337
101338
101339
101339
101339
101340
101338
101339
101339
101339
101338
101338
101337
101338
101337
101337
101337
101336
101335
101336
101335
101335
101334
101333
101333
101332
101332
101332
101332
101332
101331
101331
101331
101331
101330
101330
101330
101330
101330
101329
101329
101329
101329
101328
101328
101328
101328
101328
101328
101328
101327
101327
101327
101327
101327
101326
101326
101326
101326
101326
101326
101325
101325
101325
101284
101285
101291
101289
101287
101291
101288
101292
101295
101295
101296
101296
101299
101300
101301
101305
101307
101308
101312
101312
101315
101317
101318
101319
101321
101322
101324
101325
101327
101328
101329
101330
101330
101331
101331
101332
101333
101333
101334
101333
101333
101333
101333
101333
101333
101333
101333
101333
101332
101332
101333
101333
101332
101332
101331
101331
101330
101331
101330
101330
101330
101329
101330
101330
101329
101329
101329
101329
101329
101329
101328
101328
101328
101328
101328
101327
101327
101327
101327
101327
101327
101327
101327
101327
101327
101327
101326
101326
101326
101326
101326
101326
101326
101326
101326
101325
101325
101325
101325
101325
101311
101310
101313
101312
101310
101314
101313
101316
101316
101315
101315
101315
101317
101317
101317
101318
101319
101319
101321
101321
101322
101323
101323
101323
101323
101324
101325
101325
101326
101326
101326
101327
101327
101327
101327
101328
101327
101328
101328
101328
101328
101328
101328
101328
101328
101327
101328
101328
101327
101327
101328
101328
101327
101327
101327
101327
101327
101327
101327
101327
101327
101327
101327
101327
101327
101327
101326
101326
101326
101326
101326
101326
101326
101326
101326
101326
101326
101326
101326
101326
101326
101326
101326
101326
101326
101325
101325
101325
101325
101325
101325
101325
101325
101325
101325
101325
101325
101325
101325
101325
100734
100737
100733
100730
100737
100722
100723
100713
100694
100682
100792
100789
100773
100768
100765
100759
100755
100753
100736
100722
100848
100831
100823
100818
100805
100803
100788
100788
100772
100759
100891
100870
100864
100860
100846
100841
100826
100822
100807
100794
100935
100917
100906
100899
100886
100879
100864
100858
100845
100834
100972
100956
100943
100935
100923
100915
100900
100893
100881
100870
101008
100993
100980
100971
100958
100951
100937
100927
100917
100904
101040
101027
101014
101005
100992
100984
100973
100961
100952
100938
101071
101058
101046
101036
101026
101017
101007
100995
100987
100974
101099
101087
101077
101067
101058
101048
101041
101029
101022
101013
101126
101115
101106
101096
101088
101078
101072
101062
101054
101050
101151
101141
101134
101124
101118
101108
101102
101094
101086
101082
101175
101166
101160
101151
101146
101138
101130
101123
101118
101110
101198
101190
101185
101177
101171
101168
101160
101151
101148
101140
101220
101212
101209
101203
101196
101195
101189
101179
101174
101170
101240
101235
101231
101228
101222
101220
101218
101210
101203
101198
101261
101257
101255
101251
101246
101242
101244
101241
101237
101232
101280
101277
101277
101274
101270
101263
101266
101266
101261
101263
101298
101297
101295
101297
101294
101289
101289
101291
101286
101287
101316
101316
101314
101316
101316
101314
101314
101315
101314
101312
101543
101535
101501
101460
101394
101283
101164
100916
100710
100020
101410
101368
101319
101252
101168
101039
100886
100597
100333
99506.3
101277
101208
101147
101064
100957
100791
100616
100267
99985.4
99153.4
101145
101064
100991
100888
100768
100592
100396
100040
99707.2
98754.4
101022
100931
100855
100745
100610
100408
100191
99797.6
99482.2
98543
100921
100827
100735
100607
100469
100270
100063
99700.6
99388.2
98184.6
100826
100731
100649
100532
100391
100171
99901.8
99540.3
99249.4
98240.7
100768
100665
100557
100438
100311
100125
99903.6
99536.3
99345.3
98062.5
100700
100621
100540
100420
100294
100095
99897.7
99529.1
99368.6
98146.3
100687
100596
100529
100440
100327
100121
99922.7
99530.7
99475.1
98365.7
102642
102732
102833
102942
103064
103194
103335
103475
103605
103693
102627
102719
102818
102926
103042
103172
103304
103442
103561
103648
102569
102657
102746
102848
102951
103069
103184
103303
103403
103470
102494
102571
102655
102737
102837
102926
103033
103115
103182
103194
102396
102466
102539
102613
102686
102771
102833
102901
102925
102864
102279
102340
102396
102456
102509
102559
102624
102621
102615
102475
102152
102199
102251
102274
102317
102326
102350
102338
102260
102038
102001
102030
102085
102089
102084
102081
102056
102003
101899
101542
101861
101872
101900
101893
101857
101820
101763
101634
101499
101044
101696
101695
101690
101681
101629
101559
101469
101286
101102
100504
101326
101326
101327
101327
101327
101327
101327
101327
101327
101327
101327
101327
101327
101327
101327
101328
101328
101328
101328
101328
101329
101329
101329
101329
101330
101330
101330
101331
101331
101331
101332
101332
101333
101333
101334
101335
101336
101336
101337
101338
101339
101340
101341
101342
101344
101345
101347
101348
101350
101352
101354
101356
101358
101360
101363
101366
101369
101372
101376
101379
101384
101388
101393
101398
101403
101409
101416
101422
101429
101436
101445
101454
101464
101473
101485
101496
101510
101522
101538
101553
101571
101589
101610
101630
101655
101679
101708
101737
101771
101806
101847
101890
101941
101994
102057
102125
102207
102297
102406
102526
101326
101326
101327
101327
101327
101327
101327
101327
101327
101327
101327
101327
101327
101327
101327
101328
101328
101328
101328
101328
101328
101329
101329
101329
101330
101330
101330
101331
101331
101331
101332
101332
101333
101333
101334
101335
101336
101336
101337
101338
101339
101340
101341
101342
101344
101345
101347
101348
101350
101352
101354
101356
101358
101360
101363
101366
101369
101372
101376
101379
101384
101388
101393
101398
101403
101409
101416
101422
101429
101436
101445
101453
101464
101473
101485
101496
101510
101522
101538
101553
101571
101588
101610
101630
101655
101678
101708
101736
101771
101805
101847
101888
101939
101991
102055
102121
102202
102289
102396
102512
101326
101326
101327
101327
101327
101327
101327
101327
101327
101327
101327
101327
101327
101327
101327
101328
101328
101328
101328
101328
101328
101329
101329
101329
101330
101330
101330
101331
101331
101331
101332
101332
101333
101333
101334
101335
101336
101336
101337
101338
101339
101340
101341
101342
101344
101345
101347
101348
101350
101352
101354
101356
101358
101360
101363
101366
101369
101372
101376
101379
101384
101388
101393
101398
101403
101409
101415
101422
101429
101436
101445
101454
101464
101473
101485
101496
101509
101523
101538
101553
101571
101589
101609
101630
101654
101678
101706
101736
101769
101804
101843
101886
101934
101987
102046
102112
102186
102270
102365
102473
101326
101326
101326
101327
101327
101327
101327
101327
101327
101327
101327
101327
101327
101327
101327
101327
101328
101328
101328
101328
101328
101329
101329
101329
101330
101330
101330
101330
101331
101331
101332
101332
101333
101333
101334
101335
101335
101336
101337
101338
101339
101340
101341
101342
101344
101345
101346
101348
101350
101351
101354
101356
101358
101360
101363
101366
101369
101372
101376
101379
101384
101388
101393
101397
101403
101409
101415
101422
101429
101436
101445
101454
101464
101473
101485
101496
101509
101522
101538
101553
101571
101588
101609
101629
101654
101677
101706
101734
101768
101800
101841
101880
101929
101977
102036
102095
102167
102239
102326
102414
101326
101326
101326
101326
101327
101327
101327
101327
101327
101327
101327
101327
101327
101327
101327
101327
101328
101328
101328
101328
101328
101329
101329
101329
101329
101330
101330
101330
101331
101331
101332
101332
101333
101333
101334
101335
101335
101336
101337
101338
101339
101340
101341
101342
101343
101345
101346
101348
101350
101351
101353
101355
101358
101360
101363
101366
101369
101372
101376
101379
101383
101388
101393
101397
101403
101409
101415
101421
101429
101436
101445
101453
101463
101473
101485
101496
101509
101522
101537
101553
101570
101588
101608
101629
101652
101676
101704
101731
101764
101797
101835
101874
101919
101965
102019
102073
102136
102198
102268
102333
101326
101326
101326
101326
101327
101327
101327
101327
101327
101327
101327
101327
101327
101327
101327
101327
101328
101328
101328
101328
101328
101329
101329
101329
101329
101330
101330
101330
101331
101331
101332
101332
101333
101333
101334
101335
101335
101336
101337
101338
101339
101340
101341
101342
101343
101345
101346
101348
101349
101351
101353
101355
101358
101360
101363
101366
101369
101372
101375
101379
101383
101388
101392
101397
101403
101409
101415
101422
101429
101436
101445
101454
101463
101473
101484
101496
101509
101523
101537
101553
101570
101588