/*--------------------------------*- C++ -*----------------------------------*\
  =========                 |
  \\      /  F ield         | OpenFOAM: The Open Source CFD Toolbox
   \\    /   O peration     | Website:  https://openfoam.org
    \\  /    A nd           | Version:  8
     \\/     M anipulation  |
\*---------------------------------------------------------------------------*/
FoamFile
{
    version     2.0;
    format      ascii;
    class       surfaceScalarField;
    location    "0.999971";
    object      phi;
}
// * * * * * * * * * * * * * * * * * * * * * * * * * * * * * * * * * * * * * //

dimensions      [1 0 -1 0 0 0 0];

internalField   nonuniform List<scalar> 
13330
(
-0.0549918
0.510079
-0.455088
0.219559
-0.199594
-0.0749566
0.606898
-0.666061
0.278722
1.17667
-1.21154
0.641769
1.83951
-1.71377
1.05093
2.3853
-2.03031
1.48451
2.73479
-2.13689
1.78741
2.97269
-2.17819
1.94029
3.16191
-2.18568
1.99646
-2.18975
2.02802
3.32363
0.0265675
0.483512
0.429911
-0.602938
0.985037
-1.22119
1.6441
-1.8706
2.14168
-2.21135
2.42431
-2.31293
2.62687
-2.33946
2.78942
-2.34074
2.9395
-2.33575
-2.32653
3.07627
0.151788
0.331724
0.702056
-1.1532
1.36406
-1.88319
1.83875
-2.3453
2.09231
-2.46491
2.26975
-2.49038
2.42045
-2.49015
2.55492
-2.47521
2.68303
-2.46386
-2.44569
2.8022
0.33361
-0.00188635
0.993034
-1.81263
1.50777
-2.39793
1.75869
-2.59621
1.92542
-2.63164
2.06563
-2.63059
2.19064
-2.61515
2.30666
-2.59124
2.41321
-2.57041
-2.55187
2.51938
0.596857
-0.598744
1.15719
-2.37296
1.4232
-2.66393
1.59595
-2.76897
1.72582
-2.7615
1.84345
-2.74823
1.94612
-2.71782
2.04619
-2.6913
2.14934
-2.67356
-2.65261
2.25009
0.72463
-1.32337
1.05932
-2.70765
1.25394
-2.85856
1.39443
-2.90945
1.50258
-2.86966
1.60771
-2.85336
1.70535
-2.81547
1.79906
-2.78501
1.88899
-2.76349
-2.73728
1.97365
0.598205
-1.92158
0.891656
-3.0011
1.04818
-3.01508
1.18087
-3.04214
1.2774
-2.96618
1.36388
-2.93984
1.44216
-2.89375
1.52278
-2.86562
1.6037
-2.84442
-2.81954
1.68597
0.512154
-2.43373
0.7306
-3.21955
0.862866
-3.14735
0.968717
-3.14799
1.05171
-3.04918
1.1291
-3.01722
1.19726
-2.96192
1.26268
-2.93104
1.32318
-2.90492
-2.87735
1.38099
0.384296
-2.81803
0.56679
-3.40204
0.667337
-3.2479
0.753991
-3.23465
0.83732
-3.13251
0.905473
-3.08537
0.961098
-3.01755
1.00813
-2.97806
1.05265
-2.94944
-2.92735
1.10264
0.30174
-3.11977
0.43795
-3.53825
0.537583
-3.34753
0.587645
-3.28471
0.622475
-3.16734
0.666592
-3.12949
0.714134
-3.06509
0.758273
-3.0222
0.790743
-2.98191
0.819865
-2.95647
-0.0881119
0.0881119
-0.162421
0.0743088
-0.230094
0.0676735
-0.293813
0.063719
-0.354911
0.061098
-0.414222
0.0593109
-0.471961
0.0577386
-0.527803
0.0558425
-0.581149
0.0533455
0.0507813
-0.63193
-0.0798765
0.167988
-0.151068
0.1455
-0.213474
0.13008
-0.271227
0.121472
-0.325514
0.115385
-0.376871
0.110668
-0.425259
0.106127
-0.470037
0.100621
-0.509597
0.0929055
0.0846693
-0.543485
-0.0697746
0.237763
-0.1293
0.205026
-0.181018
0.181798
-0.226232
0.166686
-0.266448
0.155601
-0.301575
0.145795
-0.330802
0.135354
-0.352767
0.122586
-0.364758
0.104896
0.0844873
-0.364576
-0.0547777
0.292541
-0.0994334
0.249681
-0.135174
0.217539
-0.162469
0.19398
-0.181772
0.174904
-0.19297
0.156992
-0.194599
0.136984
-0.183519
0.111506
-0.153117
0.0744946
0.0283568
-0.0969868
-0.0371119
0.329653
-0.0643008
0.27687
-0.0804633
0.233701
-0.0848176
0.198335
-0.0752912
0.165378
-0.0507657
0.132466
-0.0124575
0.0986758
0.0423231
0.0567253
0.128251
-0.0114336
-0.113245
0.269853
-0.021821
0.351474
-0.0322504
0.2873
-0.027254
0.228705
-0.000902857
0.171984
0.0494844
0.114991
0.120615
0.0613355
0.220202
-0.000911336
0.358389
-0.0814615
0.548585
-0.201629
-0.391429
0.82677
-0.0151946
0.366668
-0.0104632
0.282568
0.021407
0.196834
0.0925903
0.1008
0.198162
0.00941897
0.348251
-0.0887536
0.565482
-0.218142
0.859961
-0.375941
1.21213
-0.553795
-0.832675
1.65337
-0.0152972
0.381966
0.00262929
0.264642
0.0803147
0.119149
0.213678
-0.0325624
0.410115
-0.187019
0.692676
-0.371314
1.08173
-0.607193
1.56421
-0.858426
2.10822
-1.0978
-1.37079
2.64633
-0.0316633
0.413629
0.0246938
0.208285
0.174249
-0.0304061
0.405765
-0.264079
0.74624
-0.527493
1.20976
-0.834833
1.78779
-1.18522
2.40895
-1.47959
2.98318
-1.67203
-1.80196
3.41435
-0.0414586
0.0918696
0.340185
0.717876
1.24131
1.89099
2.49317
2.95387
3.2783
3.50436
-0.662257
0.0303272
-0.680178
0.0179214
-0.688066
0.00788726
-0.686194
-0.00187123
-0.675315
-0.0108797
-0.656021
-0.0192936
-0.629092
-0.0269288
-0.595176
-0.0339166
-0.55473
-0.0404462
-0.508294
-0.0464356
-0.456048
-0.0522457
-0.398291
-0.0577569
-0.335229
-0.0630624
-0.26749
-0.0677388
-0.195911
-0.0715794
-0.120941
-0.0749692
-0.0423217
-0.0786197
0.0397651
-0.0820867
0.124256
-0.0844905
0.210663
-0.0864079
0.298335
-0.0876716
0.386398
-0.0880625
0.474286
-0.0878883
0.561484
-0.0871981
0.647534
-0.0860496
0.732034
-0.0845002
0.814651
-0.0826169
0.895111
-0.0804603
0.973217
-0.0781058
1.04883
-0.0756108
1.12186
-0.0730331
1.19227
-0.0704126
1.26006
-0.0677839
1.32523
-0.0651723
1.38782
-0.0625943
1.44789
-0.0600675
1.50549
-0.0575953
1.56068
-0.0551904
1.61353
-0.0528536
1.66412
-0.0505933
1.71254
-0.0484168
1.75886
-0.0463161
1.80315
-0.0442967
1.84551
-0.0423565
1.886
-0.0404857
1.92469
-0.0386923
1.96166
-0.0369702
1.99698
-0.0353233
2.03073
-0.0337441
2.06297
-0.0322397
2.09377
-0.0308036
2.12321
-0.0294399
2.15136
-0.0281465
2.17827
-0.0269181
2.20403
-0.0257542
2.22867
-0.024639
2.25224
-0.0235722
2.27479
-0.0225547
2.29638
-0.0215835
2.31703
-0.0206509
2.33678
-0.0197548
2.35568
-0.0188937
2.37374
-0.0180671
2.39102
-0.0172756
2.40754
-0.0165179
2.42333
-0.0157956
2.43844
-0.0151075
2.45289
-0.0144535
2.46673
-0.0138336
2.47997
-0.0132461
2.49266
-0.0126897
2.50483
-0.012163
2.51649
-0.0116645
2.52768
-0.0111921
2.53843
-0.0107439
2.54874
-0.0103178
2.55866
-0.009912
2.56818
-0.00952453
2.57733
-0.00915395
2.58613
-0.00879886
2.59459
-0.00845813
2.60272
-0.00813103
2.61054
-0.00781665
2.61805
-0.00751483
2.62528
-0.00722492
2.63223
-0.00694755
2.63891
-0.00668189
2.64534
-0.00642905
2.65153
-0.00618817
2.65749
-0.00596001
2.66323
-0.00574497
2.66877
-0.00554095
2.67412
-0.00535251
2.67929
-0.00516943
2.6843
-0.00501117
2.68914
-0.00483533
2.69386
-0.00472149
2.69838
-0.00452298
2.70286
-0.00447778
-0.00405006
-0.564998
0.0518395
-0.576111
0.0290351
-0.578061
0.00983738
-0.571368
-0.00856432
-0.556351
-0.0258969
-0.533553
-0.0420912
-0.50367
-0.0568125
-0.46751
-0.0700761
-0.425845
-0.0821109
-0.378913
-0.0933677
-0.326412
-0.104747
-0.268913
-0.115256
-0.207228
-0.124747
-0.142507
-0.13246
-0.0733337
-0.140753
0.00144262
-0.149745
0.0800672
-0.157244
0.160942
-0.162961
0.244
-0.167549
0.328448
-0.170856
0.413755
-0.172978
0.499456
-0.173763
0.584968
-0.173401
0.669772
-0.172002
0.753409
-0.169687
0.835472
-0.166563
0.915627
-0.162772
0.993604
-0.158437
1.06922
-0.153717
1.14232
-0.148718
1.21285
-0.143561
1.28076
-0.138321
1.34604
-0.13307
1.40874
-0.127864
1.46888
-0.122736
1.52654
-0.117725
1.58177
-0.112826
1.63465
-0.108074
1.68526
-0.10346
1.73367
-0.099007
1.77998
-0.0947284
1.82426
-0.090598
1.8666
-0.0866338
1.90707
-0.0828285
1.94574
-0.0791568
1.98269
-0.0756419
2.01799
-0.0722649
2.0517
-0.0690379
2.0839
-0.06594
2.11465
-0.062992
2.14402
-0.0601752
2.17208
-0.0575024
2.19891
-0.0549696
2.22455
-0.0525643
2.24909
-0.0502904
2.27256
-0.0481071
2.295
-0.0460181
2.31648
-0.0440282
2.33702
-0.0421308
2.35668
-0.040308
2.37548
-0.0385567
2.39346
-0.0368733
2.41065
-0.0352569
2.42709
-0.0337098
2.4428
-0.0322284
2.45782
-0.0308169
2.47218
-0.0294724
2.48593
-0.0281953
2.49908
-0.0269858
2.51167
-0.0258395
2.52374
-0.0247546
2.5353
-0.0237278
2.54639
-0.0227565
2.55704
-0.0218359
2.56726
-0.0209628
2.57707
-0.0201325
2.5865
-0.0193418
2.59556
-0.0185865
2.60427
-0.0178641
2.61265
-0.0171718
2.62069
-0.0165074
2.62843
-0.0158699
2.63587
-0.0152574
2.64303
-0.0146697
2.64991
-0.0141055
2.65653
-0.0135662
2.6629
-0.0130501
2.66903
-0.0125594
2.67493
-0.0120928
2.68062
-0.0116507
2.68611
-0.0112358
2.69141
-0.0108406
2.69654
-0.0104798
2.70149
-0.0101239
2.70631
-0.00982608
2.71095
-0.00947815
2.71551
-0.00927521
2.71985
-0.00887219
2.72418
-0.00879826
-0.00820858
-0.371598
0.0588618
-0.371161
0.0285975
-0.362523
0.00119951
-0.34672
-0.0243671
-0.324447
-0.0481699
-0.296418
-0.0701203
-0.263391
-0.0898396
-0.226166
-0.107301
-0.18597
-0.122307
-0.140371
-0.138967
-0.0883139
-0.156804
-0.0309203
-0.172649
0.0317084
-0.187376
0.0999132
-0.200665
0.172312
-0.213151
0.246419
-0.223853
0.322459
-0.233284
0.400488
-0.24099
0.479979
-0.24704
0.560488
-0.251365
0.641516
-0.254007
0.722644
-0.25489
0.803372
-0.254129
0.883223
-0.251853
0.961775
-0.248239
1.03864
-0.243425
1.11352
-0.237657
1.18619
-0.231109
1.25651
-0.224032
1.32434
-0.216552
1.38964
-0.208863
1.4524
-0.201076
1.51263
-0.193302
1.57039
-0.185622
1.62572
-0.178067
1.6787
-0.170704
1.72938
-0.163504
1.77784
-0.156538
1.82415
-0.14977
1.8684
-0.143257
1.91069
-0.137018
1.95108
-0.130991
1.98967
-0.125223
2.02654
-0.119695
2.06173
-0.114351
2.09534
-0.109249
2.12742
-0.104342
2.15804
-0.0996625
2.18726
-0.0951611
2.21516
-0.0908875
2.24178
-0.0867975
2.2672
-0.0829222
2.29149
-0.0792547
2.31469
-0.0757714
2.3369
-0.0724919
2.35812
-0.0693264
2.37839
-0.0662946
2.39778
-0.0634158
2.41633
-0.0606767
2.43406
-0.0580435
2.45102
-0.0555133
2.46723
-0.0530816
2.48272
-0.0507465
2.49752
-0.0485143
2.51167
-0.0463759
2.52519
-0.0443419
2.53812
-0.0424043
2.55049
-0.0405658
2.56234
-0.0388268
2.57368
-0.0371793
2.58454
-0.0356208
2.59496
-0.0341463
2.60496
-0.0327519
2.61455
-0.0314302
2.62376
-0.030177
2.63262
-0.0289846
2.64112
-0.027849
2.6493
-0.0267638
2.65716
-0.0257258
2.66472
-0.0247309
2.67199
-0.0237763
2.67898
-0.022861
2.68571
-0.0219821
2.69218
-0.0211397
2.6984
-0.0203318
2.7044
-0.0195607
2.71017
-0.0188239
2.71574
-0.0181247
2.7211
-0.0174609
2.72629
-0.0168329
2.7313
-0.0162466
2.73614
-0.0156864
2.74084
-0.0151803
2.7454
-0.0146775
2.74984
-0.0142649
2.75413
-0.0137701
2.75835
-0.0135008
2.76242
-0.0129382
2.76647
-0.0128461
-0.0120888
-0.0833729
0.0452479
-0.0685326
0.0137572
-0.0494008
-0.0179323
-0.0259537
-0.0478141
0.00174934
-0.0758729
0.0340333
-0.102404
0.0709036
-0.12671
0.112868
-0.149265
0.161533
-0.170972
0.215011
-0.192445
0.270223
-0.212016
0.32846
-0.230886
0.39013
-0.249046
0.45529
-0.265825
0.523333
-0.281193
0.593776
-0.294296
0.665892
-0.305399
0.739471
-0.31457
0.813971
-0.321539
0.888987
-0.326381
0.964108
-0.329128
1.0389
-0.329686
1.11293
-0.328158
1.18576
-0.324681
1.25702
-0.319497
1.32637
-0.312777
1.39363
-0.304918
1.45861
-0.296088
1.52123
-0.286653
1.58142
-0.276743
1.6392
-0.266641
1.69458
-0.256458
1.74762
-0.246338
1.79838
-0.236385
1.84692
-0.226602
1.89332
-0.217108
1.93761
-0.207797
1.9799
-0.198829
2.02021
-0.190076
2.05865
-0.181694
2.09533
-0.173703
2.1303
-0.165962
2.16368
-0.158596
2.19553
-0.151546
2.22588
-0.144707
2.25484
-0.138208
2.28244
-0.131944
2.30877
-0.125991
2.33386
-0.120244
2.35778
-0.114813
2.38058
-0.109597
2.40232
-0.104667
2.42308
-0.10001
2.44289
-0.0955852
2.46185
-0.0914522
2.47995
-0.0874206
2.4972
-0.0835494
2.51369
-0.0798987
2.52945
-0.0764394
2.54451
-0.073108
2.55891
-0.0699066
2.57266
-0.0668303
2.58579
-0.0638757
2.59833
-0.0610584
2.61031
-0.0583562
2.62176
-0.0557944
2.63271
-0.0533524
2.64318
-0.0510397
2.65321
-0.0488565
2.66282
-0.0467883
2.67204
-0.0448334
2.68087
-0.042984
2.68936
-0.0412361
2.69751
-0.0395785
2.70534
-0.0380072
2.71286
-0.0365108
2.7201
-0.0350862
2.72706
-0.0337234
2.73375
-0.0324208
2.74019
-0.0311719
2.74639
-0.0299743
2.75236
-0.0288275
2.7581
-0.0277274
2.76364
-0.0266745
2.76897
-0.0256662
2.77412
-0.0247062
2.77909
-0.0237907
2.78389
-0.0229243
2.78853
-0.0221041
2.79303
-0.0213295
2.79739
-0.0206115
2.80163
-0.0199234
2.80576
-0.0193097
2.80978
-0.0186978
2.81371
-0.0182024
2.81754
-0.0175971
2.82133
-0.0172922
2.82501
-0.016619
2.8287
-0.0165276
-0.0156463
0.304211
0.0108894
0.337148
-0.0191798
0.370147
-0.0509303
0.404253
-0.0819208
0.439527
-0.111147
0.477572
-0.14045
0.51856
-0.167697
0.562518
-0.193224
0.609799
-0.218253
0.660832
-0.243477
0.714696
-0.26588
0.770946
-0.287136
0.829691
-0.307791
0.890745
-0.326879
0.953804
-0.344253
1.01862
-0.359111
1.08461
-0.371393
1.1516
-0.381559
1.21904
-0.388973
1.28653
-0.393877
1.35371
-0.396303
1.42014
-0.396114
1.48542
-0.393444
1.54916
-0.388425
1.61115
-0.381478
1.67111
-0.372738
1.72896
-0.362774
1.78454
-0.35167
1.83788
-0.339989
1.88892
-0.327781
1.93774
-0.315463
1.98438
-0.303101
2.02892
-0.290872
2.07145
-0.278914
2.11199
-0.267148
2.1507
-0.255811
2.18751
-0.244608
2.22259
-0.233913
2.25587
-0.223348
2.2875
-0.213324
2.31763
-0.20384
2.34626
-0.194586
2.37353
-0.185873
2.39953
-0.177548
2.42424
-0.169409
2.44777
-0.161743
2.47014
-0.154316
2.49146
-0.14731
2.51171
-0.140493
2.53101
-0.134111
2.54935
-0.127932
2.5668
-0.122119
2.58343
-0.116641
2.59927
-0.111432
2.61446
-0.10664
2.62891
-0.101872
2.64263
-0.0972657
2.65572
-0.092993
2.66825
-0.0889654
2.68021
-0.085069
2.69163
-0.0813234
2.70252
-0.0777251
2.71291
-0.074266
2.72284
-0.0709827
2.73231
-0.0678241
2.74136
-0.0648482
2.75001
-0.0620039
2.75829
-0.0593198
2.76623
-0.0567929
2.77384
-0.0543979
2.78114
-0.0521364
2.78815
-0.0499968
2.79489
-0.0479765
2.80137
-0.0460586
2.80761
-0.0442421
2.81361
-0.0425095
2.81938
-0.0408619
2.82494
-0.0392835
2.8303
-0.0377769
2.83546
-0.0363318
2.84043
-0.0349474
2.84523
-0.0336252
2.84986
-0.0323579
2.85433
-0.0311479
2.85866
-0.0299912
2.86285
-0.028894
2.86691
-0.0278503
2.87085
-0.0268664
2.87468
-0.0259381
2.87842
-0.0250645
2.88207
-0.0242624
2.88564
-0.0234911
2.88914
-0.0228141
2.89258
-0.0221415
2.89598
-0.0215953
2.89931
-0.0209263
2.90263
-0.0206183
2.90591
-0.0198935
2.9092
-0.0198224
-0.0188778
0.855606
-0.0179473
0.886447
-0.05002
0.916983
-0.0814669
0.948555
-0.113493
0.980267
-0.142858
1.01475
-0.174935
1.05239
-0.205333
1.09156
-0.232395
1.13288
-0.259579
1.17794
-0.288529
1.22516
-0.313108
1.27442
-0.336389
1.32604
-0.359415
1.37968
-0.380521
1.43498
-0.399548
1.49145
-0.415584
1.5488
-0.428742
1.60705
-0.439807
1.66537
-0.4473
1.7234
-0.451899
1.78078
-0.453684
1.83708
-0.452413
1.89198
-0.448346
1.94515
-0.441598
1.9965
-0.432826
2.04576
-0.421999
2.09301
-0.41002
2.13806
-0.396728
2.18111
-0.383032
2.22206
-0.368735
2.26109
-0.354495
2.29824
-0.340247
2.33358
-0.32621
2.36725
-0.312589
2.39922
-0.29912
2.42972
-0.286312
2.45855
-0.273434
2.48601
-0.261377
2.51179
-0.249124
2.53618
-0.237715
2.55938
-0.22704
2.58126
-0.216468
2.6021
-0.206706
2.62194
-0.197387
2.64067
-0.188144
2.65851
-0.179577
2.67538
-0.171188
2.69145
-0.163386
2.70664
-0.155678
2.72111
-0.148586
2.73479
-0.141611
2.74777
-0.1351
2.7601
-0.128972
2.77182
-0.12315
2.78313
-0.117949
2.79384
-0.112583
2.80385
-0.107275
2.81347
-0.102613
2.8227
-0.0981905
2.83149
-0.0938618
2.83987
-0.0897027
2.84785
-0.085709
2.85545
-0.0818605
2.8627
-0.0782402
2.86961
-0.0747312
2.87623
-0.0714658
2.88254
-0.0683196
2.8886
-0.0653716
2.89441
-0.062607
2.89999
-0.0599818
2.90536
-0.0575065
2.91053
-0.0551636
2.91551
-0.0529549
2.92031
-0.0508549
2.92493
-0.04887
2.9294
-0.0469718
2.93371
-0.0451723
2.93787
-0.0434429
2.94189
-0.0417985
2.94577
-0.0402184
2.94953
-0.0387079
2.95318
-0.0372713
2.95672
-0.0358955
2.96016
-0.0345858
2.9635
-0.0333367
2.96677
-0.0321578
2.96996
-0.0310401
2.97308
-0.0299926
2.97615
-0.0290083
2.97918
-0.0280877
2.98217
-0.0272527
2.98512
-0.0264467
2.98806
-0.0257537
2.991
-0.0250791
2.9939
-0.0244991
2.99681
-0.0238294
2.99973
-0.0235453
3.00268
-0.0228384
3.00565
-0.0227968
-0.0218635
1.63689
-0.00146729
1.62764
-0.0407631
1.62467
-0.0785055
1.62862
-0.117437
1.63557
-0.149809
1.64898
-0.188349
1.66933
-0.225681
1.69138
-0.254444
1.71659
-0.284783
1.74829
-0.320233
1.78239
-0.34721
1.81906
-0.373052
1.85879
-0.399154
1.90094
-0.422671
1.94505
-0.443649
1.99058
-0.461119
2.03717
-0.475333
2.08515
-0.487785
2.13285
-0.495001
2.18
-0.499051
2.22626
-0.499942
2.27112
-0.497274
2.31433
-0.491549
2.35556
-0.482834
2.39493
-0.472192
2.43214
-0.459215
2.46754
-0.445419
2.5009
-0.43008
2.53261
-0.414743
2.56252
-0.398651
2.59094
-0.382911
2.61787
-0.367176
2.64337
-0.351716
2.66768
-0.336898
2.6906
-0.322034
2.71257
-0.308285
2.73307
-0.293939
2.75278
-0.281087
2.77079
-0.267128
2.78775
-0.25468
2.80389
-0.243174
2.81889
-0.231471
2.83322
-0.221042
2.84688
-0.211047
2.85963
-0.200889
2.87181
-0.191753
2.88324
-0.182621
2.8942
-0.174351
2.90447
-0.16594
2.91432
-0.158439
2.92353
-0.150825
2.93227
-0.143836
2.94051
-0.137216
2.9483
-0.13094
2.95602
-0.125672
2.9633
-0.119861
2.96977
-0.113742
2.97624
-0.109084
2.98247
-0.10442
2.98838
-0.0997729
2.99399
-0.0953105
2.99931
-0.0910294
3.00433
-0.0868862
3.00915
-0.0830605
3.01371
-0.0792879
3.01811
-0.0758673
3.0223
-0.0725044
3.02633
-0.0693987
3.03022
-0.0665001
3.03397
-0.0637377
3.03761
-0.0611388
3.04112
-0.0586756
3.04452
-0.0563609
3.04782
-0.0541543
3.05103
-0.0520778
3.05414
-0.0500825
3.05717
-0.0482031
3.06012
-0.046385
3.06299
-0.0446712
3.06578
-0.0430145
3.06851
-0.041438
3.07119
-0.0399504
3.07382
-0.0385237
3.07641
-0.0371708
3.07895
-0.0358836
3.08147
-0.0346783
3.08397
-0.0335406
3.08647
-0.0324845
3.08895
-0.0314967
3.09145
-0.0305829
3.09396
-0.0297639
3.09649
-0.0289741
3.09904
-0.0283059
3.10167
-0.0277092
3.10424
-0.0270717
3.10691
-0.0264939
3.1096
-0.0262413
3.1124
-0.025636
3.11522
-0.0256139
-0.024774
2.58475
0.0601164
2.52291
0.0210829
2.46891
-0.024514
2.42598
-0.0745011
2.39178
-0.11561
2.36645
-0.163018
2.35158
-0.210815
2.34918
-0.252039
2.34879
-0.284399
2.36012
-0.33156
2.37443
-0.361521
2.3923
-0.390926
2.41423
-0.42108
2.43974
-0.448181
2.46773
-0.471643
2.49843
-0.491817
2.53102
-0.507924
2.56613
-0.522891
2.60037
-0.529238
2.63388
-0.532568
2.66624
-0.532298
2.69692
-0.527958
2.72583
-0.520459
2.75278
-0.509784
2.77815
-0.497559
2.8016
-0.482663
2.82381
-0.467631
2.84436
-0.450631
2.86396
-0.434345
2.88226
-0.416946
2.89969
-0.400344
2.91621
-0.383696
2.93178
-0.36729
2.9468
-0.351914
2.9607
-0.335937
2.97444
-0.322017
2.98678
-0.306285
2.99946
-0.293767
3.0098
-0.277463
3.01977
-0.264653
3.02937
-0.252773
3.03784
-0.239942
3.04615
-0.229349
3.05413
-0.219026
3.06136
-0.208128
3.06845
-0.198841
3.07511
-0.189278
3.08175
-0.180991
3.08792
-0.172108
3.09411
-0.164635
3.09978
-0.156491
3.10526
-0.149318
3.11025
-0.1422
3.11513
-0.135828
3.11978
-0.130321
3.12447
-0.124547
3.12878
-0.118056
3.13268
-0.112977
3.13644
-0.108181
3.13999
-0.103326
3.14335
-0.0986652
3.14652
-0.0942074
3.14948
-0.0898463
3.15238
-0.0859567
3.15506
-0.081973
3.15774
-0.0785404
3.16025
-0.0750172
3.16272
-0.0718663
3.16515
-0.0689327
3.16753
-0.0661184
3.16987
-0.0634791
3.17217
-0.0609727
3.17444
-0.058631
3.17667
-0.0563864
3.17888
-0.05429
3.18106
-0.052255
3.18322
-0.0503636
3.18534
-0.0485047
3.18745
-0.0467879
3.18954
-0.0451
3.19161
-0.04351
3.19369
-0.04203
3.19576
-0.0405983
3.19785
-0.0392517
3.19994
-0.0379753
3.20205
-0.0367957
3.2042
-0.0356873
3.20639
-0.0346762
3.20863
-0.0337335
3.21092
-0.0328774
3.21327
-0.0321138
3.21569
-0.03139
3.21817
-0.0307844
3.22073
-0.030273
3.22337
-0.0297056
3.22608
-0.0292046
3.22884
-0.0290056
3.23173
-0.0285219
3.23468
-0.0285698
-0.0278599
3.35486
0.119615
3.29073
0.085209
3.22884
0.0373778
3.17095
-0.0166119
3.12075
-0.0654154
3.07728
-0.119547
3.03528
-0.168815
3.00541
-0.222164
2.98199
-0.260979
2.96269
-0.312261
2.95481
-0.353637
2.95176
-0.387879
2.95142
-0.420745
2.95395
-0.450703
2.95903
-0.476727
2.9659
-0.498687
2.97172
-0.513742
2.97638
-0.527555
2.98245
-0.535303
2.98863
-0.538747
2.99475
-0.538423
3.00102
-0.534225
3.00781
-0.527249
3.015
-0.51698
3.02303
-0.505587
3.03138
-0.491006
3.04065
-0.47691
3.05008
-0.460062
3.06031
-0.444567
3.07059
-0.427228
3.0813
-0.411056
3.09212
-0.394512
3.10291
-0.378083
3.11394
-0.362945
3.12446
-0.346458
3.13563
-0.33319
3.14549
-0.316139
3.15754
-0.30582
3.16591
-0.285833
3.17491
-0.273649
3.18417
-0.262037
3.19172
-0.247493
3.19967
-0.237298
3.20767
-0.22702
3.21468
-0.215144
3.22172
-0.205876
3.2278
-0.195365
3.2339
-0.187088
3.23882
-0.17703
3.24405
-0.169862
3.24816
-0.160596
3.25222
-0.153385
3.25501
-0.144983
3.25833
-0.139149
3.26078
-0.132775
3.26345
-0.12722
3.26652
-0.121123
3.26899
-0.115447
3.27115
-0.110339
3.27306
-0.105242
3.27486
-0.10046
3.2766
-0.095946
3.27822
-0.0914693
3.27992
-0.0876608
3.28151
-0.0835579
3.28333
-0.0803566
3.285
-0.0766959
3.28683
-0.0736911
3.28873
-0.0708303
3.29064
-0.0680329
3.29258
-0.0654188
3.29452
-0.0629168
3.29649
-0.0605947
3.29844
-0.058339
3.30041
-0.0562606
3.30236
-0.0542019
3.30433
-0.0523397
3.30628
-0.0504502
3.30827
-0.0487766
3.31024
-0.0470717
3.31224
-0.0455054
3.31429
-0.0440801
3.31636
-0.0426761
3.31849
-0.0413811
3.32067
-0.0401518
3.32291
-0.0390407
3.32522
-0.0379954
3.32762
-0.0370714
3.33009
-0.0362045
3.33266
-0.0354474
3.33531
-0.0347663
3.33808
-0.0341555
3.34093
-0.0336375
3.34385
-0.0331926
3.34695
-0.0328015
3.35014
-0.0323979
3.35341
-0.0322733
3.35682
-0.0319389
3.36029
-0.0320406
-0.0315153
3.46863
0.155345
3.43106
0.12278
3.39312
0.075314
3.35465
0.0218648
3.31725
-0.0280227
3.27956
-0.0818567
3.24394
-0.133191
3.20817
-0.186394
3.18073
-0.233542
3.14846
-0.279988
3.11902
-0.324196
3.09405
-0.36291
3.0721
-0.398796
3.05177
-0.430373
3.03331
-0.458267
3.01673
-0.482111
3.00357
-0.500583
2.99133
-0.515316
2.98163
-0.525598
2.97425
-0.531373
2.96908
-0.533246
2.96605
-0.531194
2.96521
-0.526408
2.96634
-0.518117
2.96973
-0.508977
2.97476
-0.49603
2.98182
-0.483969
2.99007
-0.468317
2.99988
-0.454378
3.01054
-0.437883
3.02215
-0.422665
3.03444
-0.406804
3.04705
-0.390698
3.06045
-0.376341
3.07339
-0.3594
3.08775
-0.347551
3.10055
-0.328935
3.11601
-0.321285
3.13079
-0.300611
3.14327
-0.286122
3.15578
-0.274554
3.16931
-0.261025
3.18198
-0.24996
3.19468
-0.239721
3.20744
-0.227901
3.21979
-0.218228
3.23186
-0.207435
3.24355
-0.198782
3.25502
-0.188496
3.26592
-0.180763
3.27663
-0.171309
3.28674
-0.163496
3.29614
-0.154385
3.3049
-0.14791
3.31323
-0.141099
3.32106
-0.13505
3.32875
-0.128812
3.33579
-0.122487
3.34242
-0.116974
3.34857
-0.111388
3.35432
-0.106209
3.35978
-0.101411
3.36469
-0.0963816
3.36963
-0.0926
3.3738
-0.0877199
3.37826
-0.0848244
3.38178
-0.0802095
3.38529
-0.0772047
3.38863
-0.0741703
3.39179
-0.0711952
3.39481
-0.068431
3.3977
-0.0658069
3.4005
-0.0633958
3.40322
-0.0610606
3.4059
-0.058942
3.40853
-0.056832
3.41117
-0.0549806
3.41377
-0.0530527
3.41645
-0.0514561
3.41906
-0.0496812
3.42176
-0.0482065
3.42459
-0.0469032
3.42747
-0.0455641
3.43047
-0.0443764
3.43354
-0.0432259
3.43672
-0.0422218
3.43999
-0.0412573
3.44336
-0.0404442
3.44681
-0.0396531
3.45038
-0.0390176
3.45402
-0.03841
3.45781
-0.0379391
3.46166
-0.0374911
3.46566
-0.0371897
3.46974
-0.036883
3.474
-0.0366635
3.47829
-0.0365613
3.48278
-0.0364233
3.48728
-0.0365451
-0.0362972
3.85208
0.165962
-3.8627
3.84278
0.13208
3.83263
0.0854628
3.82185
0.0326457
3.8112
-0.017375
3.79897
-0.0696269
3.78503
-0.119253
3.76858
-0.169937
3.75126
-0.216223
3.73229
-0.26102
3.71193
-0.303838
3.69082
-0.341798
3.66903
-0.377011
3.64656
-0.407898
3.62371
-0.435415
3.60026
-0.458668
3.57718
-0.477502
3.55412
-0.49225
3.53148
-0.502961
3.50958
-0.509473
3.48842
-0.512087
3.46883
-0.511596
3.45043
-0.508008
3.43393
-0.501624
3.41916
-0.494202
3.40605
-0.482923
3.39471
-0.47263
3.38479
-0.458396
3.37653
-0.446118
3.36939
-0.430739
3.36368
-0.416959
3.35886
-0.401981
3.35515
-0.386993
3.35223
-0.373414
3.3501
-0.357275
3.34871
-0.346158
3.34822
-0.328445
3.34658
-0.319647
3.34903
-0.303058
3.34837
-0.285468
3.34849
-0.274678
3.35024
-0.262772
3.35188
-0.251599
3.35389
-0.241736
3.35604
-0.230043
3.35796
-0.220149
3.36025
-0.209723
3.36219
-0.200724
3.36483
-0.191138
3.36671
-0.182642
3.36923
-0.173826
3.37126
-0.165529
3.37429
-0.157413
3.37653
-0.150149
3.37883
-0.143398
3.38056
-0.136784
3.38231
-0.130562
3.38399
-0.124169
3.38553
-0.118517
3.38695
-0.112805
3.38823
-0.107484
3.38935
-0.102531
3.39034
-0.0973728
3.39107
-0.0933331
3.39165
-0.0882998
3.3919
-0.0850761
3.39186
-0.0801652
3.39158
-0.0769285
3.39106
-0.0736486
3.39022
-0.0703565
3.38908
-0.067287
3.38761
-0.064335
3.38587
-0.0616579
3.38381
-0.0590065
3.38155
-0.056678
3.37897
-0.0542551
3.37629
-0.0522949
3.37324
-0.05001
3.3703
-0.0485119
3.36691
-0.0462889
3.36348
-0.0447782
3.36003
-0.0434544
3.35639
-0.0419271
3.35272
-0.0407062
3.34897
-0.03947
3.34523
-0.0384817
3.34148
-0.0375048
3.33779
-0.036754
3.33412
-0.0359848
3.33055
-0.0354537
3.32702
-0.0348802
3.32364
-0.034551
3.32029
-0.0341412
3.31711
-0.0340136
3.31397
-0.0337417
3.31105
-0.0337458
3.3081
-0.0336157
3.30532
-0.0336426
3.30256
-0.0337835
-0.0339229
3.83337
0.172873
-3.84028
3.82615
0.139296
3.81892
0.0926966
3.81019
0.0413722
3.80097
-0.00815217
3.78952
-0.0581798
3.77694
-0.10667
3.76168
-0.154677
3.74563
-0.200178
3.72787
-0.243257
3.70842
-0.284388
3.688
-0.321374
3.66657
-0.355583
3.6444
-0.385731
3.62157
-0.412588
3.59824
-0.435329
3.57483
-0.454102
3.55143
-0.468846
3.52842
-0.479952
3.50632
-0.487375
3.48577
-0.491532
3.46668
-0.492512
3.44972
-0.491049
3.43413
-0.486026
3.42008
-0.480159
3.40763
-0.470465
3.39673
-0.461732
3.38729
-0.448953
3.37927
-0.438107
3.37246
-0.423921
3.36691
-0.411409
3.3622
-0.397279
3.35871
-0.3835
3.35563
-0.37033
3.35391
-0.355556
3.35218
-0.344429
3.35167
-0.327937
3.3511
-0.319073
3.35245
-0.30441
3.3523
-0.28532
3.35315
-0.275523
3.35453
-0.264155
3.35638
-0.253449
3.35846
-0.243813
3.36029
-0.231872
3.36218
-0.22204
3.36436
-0.2119
3.36653
-0.202896
3.36894
-0.193549
3.37122
-0.184917
3.37378
-0.17639
3.37628
-0.168034
3.37907
-0.1602
3.38161
-0.152689
3.3841
-0.145891
3.38646
-0.139137
3.3888
-0.132906
3.39119
-0.126561
3.3935
-0.12082
3.39581
-0.115118
3.39808
-0.109758
3.40026
-0.104708
3.40252
-0.0996344
3.40444
-0.0952513
3.40665
-0.0905124
3.4082
-0.0866185
3.41029
-0.0822592
3.41196
-0.0786
3.41345
-0.0751383
3.41481
-0.0717203
3.41604
-0.0685103
3.41712
-0.0654164
3.41804
-0.0625829
3.41883
-0.0597921
3.41947
-0.0573148
3.41997
-0.0547612
3.42034
-0.052659
3.42057
-0.0502485
3.42067
-0.0486078
3.42066
-0.0462798
3.42046
-0.0445724
3.42013
-0.043131
3.41959
-0.0413865
3.41893
-0.0400455
3.41807
-0.0386039
3.41708
-0.037497
3.4159
-0.0363204
3.41458
-0.0354411
3.41309
-0.0344927
3.41149
-0.0338513
3.40972
-0.0331089
3.40788
-0.0327133
3.40588
-0.0321406
3.40387
-0.0320003
3.40169
-0.0315679
3.3996
-0.0316495
3.39732
-0.0313421
3.39513
-0.0314503
3.39256
-0.0312169
-0.0314483
3.80811
0.180314
-3.81555
3.8008
0.146605
3.79433
0.0991716
3.78654
0.0491638
3.77752
0.000859684
3.76666
-0.0473204
3.75444
-0.0944448
3.74028
-0.140515
3.72492
-0.184819
3.70802
-0.226356
3.68966
-0.266036
3.67027
-0.301976
3.64997
-0.335281
3.62894
-0.364706
3.60745
-0.391098
3.58566
-0.413534
3.56406
-0.432502
3.54286
-0.447648
3.52245
-0.459547
3.50296
-0.467882
3.48474
-0.473314
3.46766
-0.475429
3.45216
-0.47555
3.43783
-0.471697
3.42478
-0.467112
3.41324
-0.458926
3.40308
-0.45157
3.39427
-0.440139
3.38672
-0.430555
3.38036
-0.41756
3.37497
-0.40602
3.37068
-0.39299
3.36707
-0.37989
3.36434
-0.367603
3.3624
-0.353618
3.36074
-0.342773
3.35989
-0.327085
3.36059
-0.319773
3.35876
-0.302578
3.36174
-0.288305
3.36109
-0.274872
3.36256
-0.265623
3.36451
-0.255403
3.36636
-0.245662
3.36787
-0.233381
3.36932
-0.223486
3.37126
-0.213839
3.37316
-0.204799
3.37542
-0.195808
3.37763
-0.187125
3.37992
-0.17868
3.38226
-0.170374
3.38473
-0.162676
3.38718
-0.155135
3.38956
-0.148275
3.39183
-0.141407
3.39404
-0.135112
3.39622
-0.128738
3.39834
-0.122948
3.40045
-0.117225
3.40254
-0.111849
3.40461
-0.106779
3.40668
-0.1017
3.40866
-0.0972327
3.41065
-0.0924984
3.41246
-0.0884279
3.41439
-0.0841935
3.41612
-0.080331
3.41771
-0.0767318
3.41924
-0.0732471
3.42067
-0.0699366
3.42203
-0.0667793
3.42328
-0.0638285
3.42448
-0.060997
3.42555
-0.058386
3.42664
-0.055851
3.42755
-0.0535687
3.4286
-0.0512964
3.4293
-0.0493129
3.43031
-0.0472843
3.43116
-0.0454236
3.43192
-0.0438921
3.43273
-0.0421929
3.4335
-0.0408145
3.43426
-0.0393683
3.43499
-0.0382265
3.43568
-0.0370128
3.43633
-0.0360842
3.43692
-0.0350829
3.43744
-0.0343801
3.43791
-0.0335699
3.43829
-0.0330978
3.4386
-0.0324542
3.43882
-0.0322142
3.43895
-0.0317044
3.43898
-0.0316712
3.43893
-0.0312928
3.4388
-0.0313225
3.43862
-0.031042
-0.031113
3.78708
0.187768
-3.79454
3.77931
0.154375
3.77137
0.107117
3.76363
0.0568982
3.75515
0.00933827
3.74495
-0.0371134
3.73337
-0.0828696
3.72014
-0.127278
3.7057
-0.170386
3.69005
-0.2107
3.6732
-0.249187
3.65538
-0.284156
3.63676
-0.316664
3.61754
-0.345488
3.59794
-0.371491
3.57826
-0.393861
3.55866
-0.4129
3.53974
-0.428726
3.52118
-0.440985
3.5037
-0.450406
3.48688
-0.4565
3.47117
-0.459717
3.45628
-0.460657
3.44293
-0.458347
3.43081
-0.454992
3.4202
-0.448319
3.41063
-0.441994
3.40238
-0.431892
3.39508
-0.423255
3.38888
-0.411362
3.38357
-0.400708
3.37916
-0.388581
3.37546
-0.376188
3.37256
-0.364707
3.37039
-0.35144
3.36829
-0.340677
3.36788
-0.32667
3.36728
-0.319175
3.3655
-0.3008
3.3682
-0.291005
3.36789
-0.27456
3.36844
-0.266174
3.3697
-0.256668
3.37146
-0.247419
3.37298
-0.234903
3.3746
-0.225107
3.37629
-0.215524
3.37793
-0.206441
3.37981
-0.197691
3.38172
-0.189027
3.38366
-0.180623
3.38577
-0.172482
3.38797
-0.164884
3.39025
-0.157412
3.39244
-0.150465
3.39462
-0.143584
3.39669
-0.137187
3.3988
-0.130843
3.40082
-0.124968
3.40285
-0.119253
3.40485
-0.113856
3.4068
-0.108727
3.4088
-0.1037
3.41064
-0.0990677
3.41254
-0.0944051
3.41427
-0.0901589
3.41602
-0.0859435
3.41768
-0.0819902
3.41924
-0.0782898
3.42074
-0.0747472
3.42217
-0.0713654
3.42353
-0.0681389
3.4248
-0.0650973
3.426
-0.0622
3.42711
-0.0594978
3.42818
-0.0569169
3.42915
-0.0545383
3.43011
-0.0522591
3.43096
-0.0501651
3.43189
-0.0482118
3.43275
-0.0462818
3.43357
-0.0447075
3.43439
-0.0430223
3.43522
-0.0416395
3.43605
-0.0402009
3.43688
-0.0390496
3.4377
-0.0378386
3.43852
-0.036904
3.43934
-0.0358987
3.44013
-0.0351717
3.44092
-0.0343624
3.44166
-0.0338398
3.44242
-0.0332106
3.44309
-0.0328822
3.4438
-0.0324168
3.44438
-0.032252
3.44503
-0.0319389
3.44557
-0.0318696