/*--------------------------------*- C++ -*----------------------------------*\
  =========                 |
  \\      /  F ield         | OpenFOAM: The Open Source CFD Toolbox
   \\    /   O peration     | Website:  https://openfoam.org
    \\  /    A nd           | Version:  8
     \\/     M anipulation  |
\*---------------------------------------------------------------------------*/
FoamFile
{
    version     2.0;
    format      ascii;
    class       volScalarField;
    location    "0.999971";
    object      r_crit;
}
// * * * * * * * * * * * * * * * * * * * * * * * * * * * * * * * * * * * * * //

dimensions      [0 1 0 0 0 0 0];

internalField   nonuniform List<scalar> 
6800
(
1.06046e-09
1.06041e-09
1.05975e-09
1.05764e-09
1.05309e-09
1.04391e-09
1.02907e-09
1.0228e-09
1.02052e-09
1.02004e-09
1.06115e-09
1.06053e-09
1.05833e-09
1.0525e-09
1.0395e-09
1.02554e-09
1.02091e-09
1.0195e-09
1.01944e-09
1.01967e-09
1.06076e-09
1.05832e-09
1.05299e-09
1.03874e-09
1.02475e-09
1.01982e-09
1.0188e-09
1.01897e-09
1.01964e-09
1.0209e-09
1.06072e-09
1.05133e-09
1.04357e-09
1.02586e-09
1.01972e-09
1.01826e-09
1.01839e-09
1.0194e-09
1.02049e-09
1.02137e-09
1.0624e-09
1.04316e-09
1.0308e-09
1.0205e-09
1.01787e-09
1.01765e-09
1.01842e-09
1.01994e-09
1.0208e-09
1.02153e-09
1.06089e-09
1.03087e-09
1.02556e-09
1.01783e-09
1.01712e-09
1.01748e-09
1.01889e-09
1.02001e-09
1.02071e-09
1.02084e-09
1.05817e-09
1.02644e-09
1.01902e-09
1.01474e-09
1.01631e-09
1.01743e-09
1.0187e-09
1.01979e-09
1.0204e-09
1.02072e-09
1.04957e-09
1.01375e-09
1.01449e-09
1.01352e-09
1.01616e-09
1.01744e-09
1.01873e-09
1.01965e-09
1.01998e-09
1.01976e-09
1.03809e-09
1.00992e-09
1.01331e-09
1.01211e-09
1.0158e-09
1.01714e-09
1.01877e-09
1.01934e-09
1.0196e-09
1.01966e-09
1.0294e-09
1.00303e-09
1.01111e-09
1.01093e-09
1.01365e-09
1.01682e-09
1.01873e-09
1.01943e-09
1.01922e-09
1.0194e-09
1.05998e-09
1.06022e-09
1.06037e-09
1.0604e-09
1.06038e-09
1.06033e-09
1.06025e-09
1.06016e-09
1.06006e-09
1.05997e-09
1.06001e-09
1.06023e-09
1.06037e-09
1.06041e-09
1.06038e-09
1.06033e-09
1.06025e-09
1.06015e-09
1.06004e-09
1.05993e-09
1.06002e-09
1.06024e-09
1.06036e-09
1.0604e-09
1.06037e-09
1.06032e-09
1.06023e-09
1.06012e-09
1.05999e-09
1.05983e-09
1.06003e-09
1.06024e-09
1.06036e-09
1.06038e-09
1.06036e-09
1.0603e-09
1.06021e-09
1.0601e-09
1.05996e-09
1.05975e-09
1.06007e-09
1.06026e-09
1.06035e-09
1.06036e-09
1.06032e-09
1.06025e-09
1.06015e-09
1.06005e-09
1.05992e-09
1.05969e-09
1.06014e-09
1.06029e-09
1.06034e-09
1.06032e-09
1.06023e-09
1.06008e-09
1.0599e-09
1.05977e-09
1.05974e-09
1.05958e-09
1.06022e-09
1.06033e-09
1.06034e-09
1.06022e-09
1.06001e-09
1.05966e-09
1.05928e-09
1.05888e-09
1.05873e-09
1.05794e-09
1.06031e-09
1.06037e-09
1.06028e-09
1.06006e-09
1.05967e-09
1.05894e-09
1.05823e-09
1.05709e-09
1.05589e-09
1.05102e-09
1.06041e-09
1.06041e-09
1.0602e-09
1.05985e-09
1.05913e-09
1.05752e-09
1.05584e-09
1.05192e-09
1.04766e-09
1.03526e-09
1.06027e-09
1.06039e-09
1.06019e-09
1.05938e-09
1.05763e-09
1.05405e-09
1.04885e-09
1.03858e-09
1.02809e-09
1.02223e-09
1.05985e-09
1.05972e-09
1.05961e-09
1.05953e-09
1.05948e-09
1.05946e-09
1.05946e-09
1.05948e-09
1.05952e-09
1.05957e-09
1.05962e-09
1.05968e-09
1.05974e-09
1.05979e-09
1.05983e-09
1.05986e-09
1.05987e-09
1.05987e-09
1.05984e-09
1.0598e-09
1.05973e-09
1.05963e-09
1.05951e-09
1.05937e-09
1.05921e-09
1.05903e-09
1.05883e-09
1.05861e-09
1.05837e-09
1.05812e-09
1.05786e-09
1.05758e-09
1.0573e-09
1.057e-09
1.0567e-09
1.05638e-09
1.05607e-09
1.05575e-09
1.05543e-09
1.05511e-09
1.05478e-09
1.05446e-09
1.05413e-09
1.0538e-09
1.05348e-09
1.05316e-09
1.05284e-09
1.05253e-09
1.05222e-09
1.05192e-09
1.05163e-09
1.05133e-09
1.05105e-09
1.05077e-09
1.0505e-09
1.05024e-09
1.04998e-09
1.04973e-09
1.04948e-09
1.04924e-09
1.04902e-09
1.0488e-09
1.04858e-09
1.04838e-09
1.04819e-09
1.048e-09
1.04782e-09
1.04764e-09
1.04747e-09
1.04731e-09
1.04715e-09
1.047e-09
1.04685e-09
1.0467e-09
1.04656e-09
1.04642e-09
1.04629e-09
1.04615e-09
1.04602e-09
1.04589e-09
1.04577e-09
1.04565e-09
1.04553e-09
1.04542e-09
1.04531e-09
1.0452e-09
1.0451e-09
1.04499e-09
1.0449e-09
1.0448e-09
1.04471e-09
1.04462e-09
1.04453e-09
1.04445e-09
1.04436e-09
1.04429e-09
1.04419e-09
1.04413e-09
1.04403e-09
1.04394e-09
1.05979e-09
1.05962e-09
1.05949e-09
1.05939e-09
1.05933e-09
1.0593e-09
1.0593e-09
1.05932e-09
1.05936e-09
1.05942e-09
1.05948e-09
1.05956e-09
1.05963e-09
1.0597e-09
1.05976e-09
1.05981e-09
1.05985e-09
1.05987e-09
1.05986e-09
1.05984e-09
1.0598e-09
1.05973e-09
1.05963e-09
1.05952e-09
1.05937e-09
1.05921e-09
1.05903e-09
1.05883e-09
1.05861e-09
1.05837e-09
1.05811e-09
1.05785e-09
1.05757e-09
1.05728e-09
1.05698e-09
1.05667e-09
1.05635e-09
1.05604e-09
1.05571e-09
1.05539e-09
1.05506e-09
1.05473e-09
1.05439e-09
1.05407e-09
1.05374e-09
1.05341e-09
1.05309e-09
1.05278e-09
1.05246e-09
1.05216e-09
1.05186e-09
1.05157e-09
1.05128e-09
1.051e-09
1.05072e-09
1.05045e-09
1.05019e-09
1.04994e-09
1.04969e-09
1.04945e-09
1.04922e-09
1.049e-09
1.04879e-09
1.04858e-09
1.04838e-09
1.0482e-09
1.04801e-09
1.04784e-09
1.04766e-09
1.0475e-09
1.04734e-09
1.04718e-09
1.04703e-09
1.04688e-09
1.04674e-09
1.04659e-09
1.04646e-09
1.04632e-09
1.04619e-09
1.04606e-09
1.04593e-09
1.04581e-09
1.04569e-09
1.04557e-09
1.04546e-09
1.04535e-09
1.04525e-09
1.04514e-09
1.04504e-09
1.04495e-09
1.04485e-09
1.04476e-09
1.04467e-09
1.04459e-09
1.04449e-09
1.04442e-09
1.04432e-09
1.04425e-09
1.04416e-09
1.04406e-09
1.05967e-09
1.05944e-09
1.05927e-09
1.05915e-09
1.05906e-09
1.05901e-09
1.05901e-09
1.05903e-09
1.05909e-09
1.05916e-09
1.05924e-09
1.05934e-09
1.05944e-09
1.05954e-09
1.05963e-09
1.05972e-09
1.05979e-09
1.05985e-09
1.05989e-09
1.05991e-09
1.05991e-09
1.05988e-09
1.05983e-09
1.05976e-09
1.05965e-09
1.05952e-09
1.05937e-09
1.0592e-09
1.059e-09
1.05878e-09
1.05855e-09
1.0583e-09
1.05803e-09
1.05775e-09
1.05745e-09
1.05715e-09
1.05683e-09
1.05651e-09
1.05619e-09
1.05585e-09
1.05552e-09
1.05518e-09
1.05485e-09
1.05451e-09
1.05417e-09
1.05384e-09
1.05352e-09
1.05319e-09
1.05288e-09
1.05256e-09
1.05226e-09
1.05196e-09
1.05167e-09
1.05138e-09
1.0511e-09
1.05083e-09
1.05056e-09
1.0503e-09
1.05005e-09
1.04981e-09
1.04958e-09
1.04935e-09
1.04914e-09
1.04893e-09
1.04873e-09
1.04854e-09
1.04835e-09
1.04817e-09
1.048e-09
1.04783e-09
1.04766e-09
1.0475e-09
1.04735e-09
1.04719e-09
1.04704e-09
1.0469e-09
1.04675e-09
1.04661e-09
1.04648e-09
1.04634e-09
1.04621e-09
1.04609e-09
1.04597e-09
1.04585e-09
1.04573e-09
1.04562e-09
1.04551e-09
1.04541e-09
1.0453e-09
1.0452e-09
1.04511e-09
1.04501e-09
1.04492e-09
1.04483e-09
1.04473e-09
1.04465e-09
1.04455e-09
1.04448e-09
1.04438e-09
1.04427e-09
1.05955e-09
1.05922e-09
1.05899e-09
1.05882e-09
1.05871e-09
1.05864e-09
1.05863e-09
1.05866e-09
1.05872e-09
1.05881e-09
1.05892e-09
1.05904e-09
1.05918e-09
1.05932e-09
1.05945e-09
1.05958e-09
1.0597e-09
1.0598e-09
1.05989e-09
1.05996e-09
1.06e-09
1.06002e-09
1.06001e-09
1.05998e-09
1.05992e-09
1.05983e-09
1.0597e-09
1.05956e-09
1.05939e-09
1.0592e-09
1.05898e-09
1.05874e-09
1.05848e-09
1.05821e-09
1.05792e-09
1.05761e-09
1.05729e-09
1.05697e-09
1.05664e-09
1.0563e-09
1.05596e-09
1.05562e-09
1.05527e-09
1.05493e-09
1.05459e-09
1.05426e-09
1.05392e-09
1.0536e-09
1.05328e-09
1.05296e-09
1.05265e-09
1.05235e-09
1.05205e-09
1.05176e-09
1.05148e-09
1.0512e-09
1.05094e-09
1.05068e-09
1.05043e-09
1.05018e-09
1.04995e-09
1.04973e-09
1.04951e-09
1.0493e-09
1.0491e-09
1.04891e-09
1.04872e-09
1.04854e-09
1.04837e-09
1.04819e-09
1.04803e-09
1.04786e-09
1.0477e-09
1.04754e-09
1.04739e-09
1.04724e-09
1.04709e-09
1.04695e-09
1.04681e-09
1.04667e-09
1.04654e-09
1.04641e-09
1.04629e-09
1.04617e-09
1.04605e-09
1.04594e-09
1.04583e-09
1.04572e-09
1.04561e-09
1.04551e-09
1.04541e-09
1.04531e-09
1.04521e-09
1.04512e-09
1.04502e-09
1.04493e-09
1.04483e-09
1.04474e-09
1.04465e-09
1.04453e-09
1.05939e-09
1.05893e-09
1.05862e-09
1.05841e-09
1.05827e-09
1.05818e-09
1.05817e-09
1.05821e-09
1.05828e-09
1.05839e-09
1.05853e-09
1.05867e-09
1.05884e-09
1.05901e-09
1.05918e-09
1.05934e-09
1.05949e-09
1.05962e-09
1.05974e-09
1.05985e-09
1.05993e-09
1.05998e-09
1.06001e-09
1.06001e-09
1.05998e-09
1.05991e-09
1.0598e-09
1.05967e-09
1.05952e-09
1.05933e-09
1.05912e-09
1.05889e-09
1.05863e-09
1.05835e-09
1.05806e-09
1.05775e-09
1.05742e-09
1.05709e-09
1.05676e-09
1.05642e-09
1.05607e-09
1.05573e-09
1.05539e-09
1.05504e-09
1.0547e-09
1.05437e-09
1.05404e-09
1.05371e-09
1.05339e-09
1.05308e-09
1.05277e-09
1.05248e-09
1.05218e-09
1.0519e-09
1.05162e-09
1.05135e-09
1.05109e-09
1.05084e-09
1.05059e-09
1.05036e-09
1.05013e-09
1.04991e-09
1.04971e-09
1.04951e-09
1.04931e-09
1.04913e-09
1.04894e-09
1.04877e-09
1.04859e-09
1.04842e-09
1.04826e-09
1.0481e-09
1.04794e-09
1.04778e-09
1.04763e-09
1.04748e-09
1.04733e-09
1.04719e-09
1.04705e-09
1.04692e-09
1.04679e-09
1.04666e-09
1.04654e-09
1.04642e-09
1.0463e-09
1.04619e-09
1.04608e-09
1.04597e-09
1.04587e-09
1.04576e-09
1.04566e-09
1.04556e-09
1.04546e-09
1.04536e-09
1.04526e-09
1.04517e-09
1.04507e-09
1.04497e-09
1.04488e-09
1.04474e-09
1.05898e-09
1.0584e-09
1.058e-09
1.05777e-09
1.05762e-09
1.05754e-09
1.05754e-09
1.05759e-09
1.05768e-09
1.05782e-09
1.05796e-09
1.05811e-09
1.05828e-09
1.05845e-09
1.05862e-09
1.05878e-09
1.05893e-09
1.05905e-09
1.05917e-09
1.05928e-09
1.05936e-09
1.05942e-09
1.05945e-09
1.05944e-09
1.0594e-09
1.05932e-09
1.05919e-09
1.05905e-09
1.05889e-09
1.0587e-09
1.05847e-09
1.05823e-09
1.05796e-09
1.05767e-09
1.05736e-09
1.05704e-09
1.05671e-09
1.05637e-09
1.05604e-09
1.05571e-09
1.05537e-09
1.05504e-09
1.05471e-09
1.05438e-09
1.05406e-09
1.05374e-09
1.05343e-09
1.05312e-09
1.05282e-09
1.05253e-09
1.05225e-09
1.05197e-09
1.0517e-09
1.05144e-09
1.05118e-09
1.05094e-09
1.0507e-09
1.05047e-09
1.05025e-09
1.05004e-09
1.04984e-09
1.04965e-09
1.04946e-09
1.04929e-09
1.04911e-09
1.04895e-09
1.04878e-09
1.04862e-09
1.04846e-09
1.04831e-09
1.04816e-09
1.04801e-09
1.04786e-09
1.04771e-09
1.04757e-09
1.04743e-09
1.0473e-09
1.04717e-09
1.04704e-09
1.04692e-09
1.0468e-09
1.04668e-09
1.04656e-09
1.04645e-09
1.04634e-09
1.04624e-09
1.04613e-09
1.04603e-09
1.04593e-09
1.04583e-09
1.04573e-09
1.04563e-09
1.04553e-09
1.04544e-09
1.04534e-09
1.04525e-09
1.04515e-09
1.04504e-09
1.04496e-09
1.04482e-09
1.05718e-09
1.05695e-09
1.05655e-09
1.05643e-09
1.05635e-09
1.05634e-09
1.05638e-09
1.05645e-09
1.05655e-09
1.05667e-09
1.05682e-09
1.05694e-09
1.05706e-09
1.05716e-09
1.05727e-09
1.05736e-09
1.05741e-09
1.05746e-09
1.05751e-09
1.05754e-09
1.05756e-09
1.05754e-09
1.0575e-09
1.05743e-09
1.05731e-09
1.05715e-09
1.05699e-09
1.05682e-09
1.0566e-09
1.05637e-09
1.05611e-09
1.05584e-09
1.05556e-09
1.05525e-09
1.05495e-09
1.05463e-09
1.05432e-09
1.054e-09
1.0537e-09
1.0534e-09
1.05311e-09
1.05283e-09
1.05255e-09
1.05227e-09
1.052e-09
1.05174e-09
1.05148e-09
1.05123e-09
1.05099e-09
1.05076e-09
1.05053e-09
1.05032e-09
1.05011e-09
1.0499e-09
1.0497e-09
1.04952e-09
1.04934e-09
1.04917e-09
1.049e-09
1.04884e-09
1.04869e-09
1.04855e-09
1.04842e-09
1.04829e-09
1.04817e-09
1.04804e-09
1.04792e-09
1.04779e-09
1.04767e-09
1.04755e-09
1.04743e-09
1.04731e-09
1.0472e-09
1.04708e-09
1.04697e-09
1.04686e-09
1.04675e-09
1.04664e-09
1.04654e-09
1.04644e-09
1.04634e-09
1.04625e-09
1.04616e-09
1.04607e-09
1.04598e-09
1.04589e-09
1.0458e-09
1.04571e-09
1.04562e-09
1.04554e-09
1.04545e-09
1.04537e-09
1.04528e-09
1.04519e-09
1.0451e-09
1.04501e-09
1.04493e-09
1.04482e-09
1.04476e-09
1.04461e-09
1.05129e-09
1.0518e-09
1.05229e-09
1.05261e-09
1.05294e-09
1.05315e-09
1.05335e-09
1.05347e-09
1.0536e-09
1.05367e-09
1.05376e-09
1.05377e-09
1.05375e-09
1.05371e-09
1.05366e-09
1.05354e-09
1.05338e-09
1.05324e-09
1.05311e-09
1.05296e-09
1.05277e-09
1.05256e-09
1.05236e-09
1.0521e-09
1.05189e-09
1.05165e-09
1.05137e-09
1.05111e-09
1.05083e-09
1.05057e-09
1.0503e-09
1.05004e-09
1.04978e-09
1.04952e-09
1.04928e-09
1.04903e-09
1.04882e-09
1.04858e-09
1.0484e-09
1.04824e-09
1.04808e-09
1.04794e-09
1.04779e-09
1.04764e-09
1.04751e-09
1.04738e-09
1.04727e-09
1.04715e-09
1.04705e-09
1.04696e-09
1.04687e-09
1.04679e-09
1.04671e-09
1.04663e-09
1.04655e-09
1.04648e-09
1.04641e-09
1.04635e-09
1.04629e-09
1.04624e-09
1.0462e-09
1.04616e-09
1.04612e-09
1.04607e-09
1.04603e-09
1.04598e-09
1.04593e-09
1.04588e-09
1.04583e-09
1.04577e-09
1.04572e-09
1.04566e-09
1.0456e-09
1.04554e-09
1.04549e-09
1.04543e-09
1.04538e-09
1.04532e-09
1.04527e-09
1.04522e-09
1.04517e-09
1.04511e-09
1.04506e-09
1.04501e-09
1.04495e-09
1.0449e-09
1.04484e-09
1.04479e-09
1.04473e-09
1.04467e-09
1.04461e-09
1.04455e-09
1.04449e-09
1.04442e-09
1.04436e-09
1.04428e-09
1.04422e-09
1.04413e-09
1.04408e-09
1.04396e-09
1.03612e-09
1.03798e-09
1.03959e-09
1.04083e-09
1.04199e-09
1.04286e-09
1.04354e-09
1.04409e-09
1.04444e-09
1.04466e-09
1.04477e-09
1.04464e-09
1.04439e-09
1.0441e-09
1.04375e-09
1.04336e-09
1.04288e-09
1.04243e-09
1.04195e-09
1.04142e-09
1.04097e-09
1.04049e-09
1.04006e-09
1.03966e-09
1.03928e-09
1.03896e-09
1.03864e-09
1.03843e-09
1.03819e-09
1.03805e-09
1.0379e-09
1.0378e-09
1.03772e-09
1.03766e-09
1.03764e-09
1.03764e-09
1.03768e-09
1.03773e-09
1.03782e-09
1.03795e-09
1.03811e-09
1.0383e-09
1.03848e-09
1.03865e-09
1.03885e-09
1.03905e-09
1.03926e-09
1.03945e-09
1.03967e-09
1.03987e-09
1.04007e-09
1.04028e-09
1.04048e-09
1.04065e-09
1.04082e-09
1.04097e-09
1.04112e-09
1.04127e-09
1.04141e-09
1.04155e-09
1.04168e-09
1.04179e-09
1.04191e-09
1.042e-09
1.04209e-09
1.04218e-09
1.04225e-09
1.04233e-09
1.0424e-09
1.04246e-09
1.04252e-09
1.04258e-09
1.04263e-09
1.04268e-09
1.04272e-09
1.04277e-09
1.04281e-09
1.04284e-09
1.04287e-09
1.0429e-09
1.04292e-09
1.04293e-09
1.04295e-09
1.04296e-09
1.04296e-09
1.04297e-09
1.04297e-09
1.04297e-09
1.04297e-09
1.04296e-09
1.04295e-09
1.04293e-09
1.04291e-09
1.04288e-09
1.04286e-09
1.04282e-09
1.04279e-09
1.04274e-09
1.04271e-09
1.04265e-09
1.0232e-09
1.02377e-09
1.02483e-09
1.02557e-09
1.02628e-09
1.02686e-09
1.02735e-09
1.02772e-09
1.02802e-09
1.02826e-09
1.02839e-09
1.02852e-09
1.02858e-09
1.02874e-09
1.0288e-09
1.02897e-09
1.02911e-09
1.0293e-09
1.02953e-09
1.02972e-09
1.02995e-09
1.03012e-09
1.03031e-09
1.03044e-09
1.03055e-09
1.03065e-09
1.0307e-09
1.03077e-09
1.03078e-09
1.03084e-09
1.03084e-09
1.03086e-09
1.03087e-09
1.03088e-09
1.0309e-09
1.03089e-09
1.03093e-09
1.03093e-09
1.03095e-09
1.03098e-09
1.03108e-09
1.03109e-09
1.03114e-09
1.03119e-09
1.03124e-09
1.03133e-09
1.03143e-09
1.03151e-09
1.0316e-09
1.03169e-09
1.03181e-09
1.03196e-09
1.03212e-09
1.03231e-09
1.0325e-09
1.03273e-09
1.03297e-09
1.03322e-09
1.03348e-09
1.03378e-09
1.03408e-09
1.03439e-09
1.03471e-09
1.03502e-09
1.03536e-09
1.03568e-09
1.036e-09
1.03631e-09
1.03663e-09
1.03692e-09
1.0372e-09
1.03747e-09
1.03772e-09
1.03795e-09
1.03817e-09
1.03838e-09
1.03857e-09
1.03875e-09
1.03891e-09
1.03906e-09
1.0392e-09
1.03933e-09
1.03946e-09
1.03957e-09
1.03967e-09
1.03976e-09
1.03985e-09
1.03993e-09
1.04001e-09
1.04008e-09
1.04015e-09
1.0402e-09
1.04025e-09
1.04029e-09
1.04033e-09
1.04036e-09
1.04038e-09
1.0404e-09
1.04042e-09
1.04045e-09
1.02054e-09
1.02073e-09
1.0212e-09
1.02153e-09
1.02184e-09
1.02211e-09
1.02238e-09
1.02261e-09
1.02287e-09
1.02316e-09
1.02343e-09
1.02378e-09
1.02413e-09
1.02461e-09
1.02503e-09
1.02555e-09
1.02602e-09
1.02652e-09
1.02702e-09
1.02746e-09
1.02791e-09
1.02825e-09
1.02859e-09
1.02885e-09
1.02907e-09
1.02925e-09
1.02939e-09
1.02953e-09
1.0296e-09
1.0297e-09
1.02975e-09
1.0298e-09
1.02984e-09
1.02986e-09
1.02987e-09
1.02988e-09
1.02991e-09
1.02988e-09
1.02987e-09
1.02988e-09
1.02987e-09
1.02982e-09
1.0298e-09
1.02974e-09
1.02971e-09
1.02969e-09
1.02966e-09
1.02963e-09
1.0296e-09
1.02952e-09
1.02947e-09
1.0294e-09
1.02934e-09
1.0293e-09
1.02929e-09
1.0293e-09
1.02931e-09
1.02931e-09
1.02933e-09
1.02937e-09
1.0294e-09
1.02945e-09
1.0295e-09
1.02955e-09
1.02964e-09
1.02975e-09
1.0299e-09
1.03007e-09
1.03027e-09
1.03049e-09
1.03073e-09
1.03099e-09
1.03126e-09
1.03155e-09
1.03184e-09
1.03213e-09
1.03243e-09
1.03273e-09
1.03302e-09
1.03332e-09
1.03361e-09
1.03389e-09
1.03417e-09
1.03445e-09
1.03471e-09
1.03495e-09
1.03519e-09
1.03541e-09
1.03562e-09
1.03581e-09
1.036e-09
1.03617e-09
1.03633e-09
1.03647e-09
1.0366e-09
1.03673e-09
1.03683e-09
1.03694e-09
1.037e-09
1.0372e-09
1.02103e-09
1.02106e-09
1.02127e-09
1.02144e-09
1.02164e-09
1.02186e-09
1.02211e-09
1.02234e-09
1.02262e-09
1.0229e-09
1.02321e-09
1.0236e-09
1.02401e-09
1.02452e-09
1.02498e-09
1.02554e-09
1.02603e-09
1.02656e-09
1.02702e-09
1.02744e-09
1.02785e-09
1.02815e-09
1.02845e-09
1.02866e-09
1.02887e-09
1.02904e-09
1.02919e-09
1.02931e-09
1.0294e-09
1.0295e-09
1.02955e-09
1.0296e-09
1.02966e-09
1.02968e-09
1.02969e-09
1.02973e-09
1.02972e-09
1.02971e-09
1.02971e-09
1.02968e-09
1.02964e-09
1.02963e-09
1.02956e-09
1.02953e-09
1.02953e-09
1.02949e-09
1.02946e-09
1.02942e-09
1.02938e-09
1.02932e-09
1.02926e-09
1.02918e-09
1.0291e-09
1.02905e-09
1.02899e-09
1.02896e-09
1.0289e-09
1.02886e-09
1.02881e-09
1.02876e-09
1.02871e-09
1.02864e-09
1.02859e-09
1.02853e-09
1.02848e-09
1.02843e-09
1.02841e-09
1.02839e-09
1.02836e-09
1.02837e-09
1.02838e-09
1.02844e-09
1.0285e-09
1.0286e-09
1.02868e-09
1.02879e-09
1.02887e-09
1.02897e-09
1.02906e-09
1.02917e-09
1.02927e-09
1.02939e-09
1.0295e-09
1.02965e-09
1.02978e-09
1.02995e-09
1.0301e-09
1.03029e-09
1.03046e-09
1.03067e-09
1.03085e-09
1.03107e-09
1.03125e-09
1.03148e-09
1.03166e-09
1.0319e-09
1.03207e-09
1.03231e-09
1.03249e-09
1.03274e-09
1.02169e-09
1.02164e-09
1.02181e-09
1.02196e-09
1.02214e-09
1.02236e-09
1.02259e-09
1.02283e-09
1.02309e-09
1.02338e-09
1.02371e-09
1.02409e-09
1.02449e-09
1.02493e-09
1.02536e-09
1.0258e-09
1.0262e-09
1.02661e-09
1.02699e-09
1.02735e-09
1.02767e-09
1.02792e-09
1.02818e-09
1.02837e-09
1.02855e-09
1.0287e-09
1.02883e-09
1.02896e-09
1.02905e-09
1.02916e-09
1.02922e-09
1.02929e-09
1.02936e-09
1.02937e-09
1.02941e-09
1.02945e-09
1.02945e-09
1.02947e-09
1.02947e-09
1.02947e-09
1.02945e-09
1.02942e-09
1.02939e-09
1.02939e-09
1.0294e-09
1.0294e-09
1.02937e-09
1.02935e-09
1.02931e-09
1.02928e-09
1.02921e-09
1.02917e-09
1.02909e-09
1.02905e-09
1.02898e-09
1.02894e-09
1.02887e-09
1.02883e-09
1.02878e-09
1.02873e-09
1.02868e-09
1.02861e-09
1.02857e-09
1.0285e-09
1.02845e-09
1.02839e-09
1.02834e-09
1.02832e-09
1.02825e-09
1.02823e-09
1.0282e-09
1.02818e-09
1.02819e-09
1.02815e-09
1.02818e-09
1.02814e-09
1.02815e-09
1.02817e-09
1.02826e-09
1.02837e-09
1.02835e-09
1.0284e-09
1.02843e-09
1.02843e-09
1.02843e-09
1.02842e-09
1.02842e-09
1.02843e-09
1.02843e-09
1.02847e-09
1.02849e-09
1.0285e-09
1.02852e-09
1.02857e-09
1.0286e-09
1.02867e-09
1.02872e-09
1.02881e-09
1.02889e-09
1.029e-09
1.02195e-09
1.02191e-09
1.02208e-09
1.02217e-09
1.02233e-09
1.0226e-09
1.02287e-09
1.02313e-09
1.02337e-09
1.02362e-09
1.02389e-09
1.02421e-09
1.02456e-09
1.02494e-09
1.02533e-09
1.0257e-09
1.02608e-09
1.02642e-09
1.02673e-09
1.02703e-09
1.02727e-09
1.02752e-09
1.02774e-09
1.02791e-09
1.02811e-09
1.02825e-09
1.02845e-09
1.02859e-09
1.02876e-09
1.02891e-09
1.02902e-09
1.02915e-09
1.02924e-09
1.02928e-09
1.02935e-09
1.02939e-09
1.02939e-09
1.02944e-09
1.02945e-09
1.02952e-09
1.02949e-09
1.02947e-09
1.02941e-09
1.0294e-09
1.02938e-09
1.02938e-09
1.0294e-09
1.02939e-09
1.02935e-09
1.02932e-09
1.02927e-09
1.02922e-09
1.02916e-09
1.02909e-09
1.02904e-09
1.02897e-09
1.02893e-09
1.02886e-09
1.02882e-09
1.02876e-09
1.02872e-09
1.02866e-09
1.02862e-09
1.02856e-09
1.02854e-09
1.02848e-09
1.02846e-09
1.02841e-09
1.02837e-09
1.02834e-09
1.02828e-09
1.02825e-09
1.02823e-09
1.02821e-09
1.02822e-09
1.02818e-09
1.0282e-09
1.02819e-09
1.02825e-09
1.02823e-09
1.02825e-09
1.02833e-09
1.02831e-09
1.02836e-09
1.02838e-09
1.02836e-09
1.02835e-09
1.02832e-09
1.0283e-09
1.02828e-09
1.02826e-09
1.02824e-09
1.02821e-09
1.0282e-09
1.02819e-09
1.02817e-09
1.02816e-09
1.02816e-09
1.02815e-09
1.02815e-09
1.02213e-09
1.02216e-09
1.02239e-09
1.02238e-09
1.02243e-09
1.02261e-09
1.02289e-09
1.02319e-09
1.02347e-09
1.02372e-09
1.02396e-09
1.02423e-09
1.02454e-09
1.02488e-09
1.02525e-09
1.02561e-09
1.02595e-09
1.02629e-09
1.02659e-09
1.02688e-09
1.02712e-09
1.02737e-09
1.02757e-09
1.02776e-09
1.02797e-09
1.02812e-09
1.02835e-09
1.0285e-09
1.0287e-09
1.02887e-09
1.02901e-09
1.02916e-09
1.02925e-09
1.02932e-09
1.02938e-09
1.02943e-09
1.02945e-09
1.02949e-09
1.0295e-09
1.02953e-09
1.02953e-09
1.02952e-09
1.02948e-09
1.02947e-09
1.02945e-09
1.02944e-09
1.02946e-09
1.02945e-09
1.02942e-09
1.02938e-09
1.02933e-09
1.02928e-09
1.02921e-09
1.02916e-09
1.02909e-09
1.02904e-09
1.029e-09
1.02894e-09
1.02891e-09
1.02886e-09
1.02883e-09
1.02879e-09
1.02875e-09
1.02872e-09
1.02867e-09
1.02864e-09
1.02861e-09
1.02858e-09
1.02854e-09
1.02852e-09
1.02851e-09
1.02846e-09
1.02845e-09
1.02843e-09
1.02846e-09
1.02843e-09
1.02846e-09
1.02848e-09
1.02848e-09
1.02848e-09
1.02846e-09
1.02845e-09
1.02845e-09
1.02843e-09
1.02842e-09
1.0284e-09
1.02839e-09
1.02837e-09
1.02835e-09
1.02833e-09
1.02831e-09
1.0283e-09
1.02828e-09
1.02826e-09
1.02825e-09
1.02823e-09
1.02822e-09
1.02819e-09
1.02819e-09
1.02814e-09
1.02246e-09
1.02248e-09
1.02316e-09
1.02325e-09
1.0231e-09
1.023e-09
1.02312e-09
1.02336e-09
1.02365e-09
1.02393e-09
1.02422e-09
1.02448e-09
1.02478e-09
1.02509e-09
1.02541e-09
1.02576e-09
1.02608e-09
1.02642e-09
1.02669e-09
1.02695e-09
1.02716e-09
1.02736e-09
1.02754e-09
1.02773e-09
1.02792e-09
1.0281e-09
1.0283e-09
1.02848e-09
1.02871e-09
1.02889e-09
1.02907e-09
1.02924e-09
1.02932e-09
1.02941e-09
1.02948e-09
1.0295e-09
1.02953e-09
1.02957e-09
1.02956e-09
1.02956e-09
1.02959e-09
1.02955e-09
1.02956e-09
1.02957e-09
1.02953e-09
1.02952e-09
1.02951e-09
1.0295e-09
1.02948e-09
1.02944e-09
1.02939e-09
1.02933e-09
1.02928e-09
1.02924e-09
1.02921e-09
1.02917e-09
1.02915e-09
1.02912e-09
1.02908e-09
1.02906e-09
1.02903e-09
1.02898e-09
1.02896e-09
1.0289e-09
1.02887e-09
1.02881e-09
1.02878e-09
1.02874e-09
1.02868e-09
1.02871e-09
1.02868e-09
1.02872e-09
1.02873e-09
1.02871e-09
1.02869e-09
1.02865e-09
1.02862e-09
1.02859e-09
1.02856e-09
1.02853e-09
1.0285e-09
1.02848e-09
1.02845e-09
1.02843e-09
1.02841e-09
1.02839e-09
1.02837e-09
1.02836e-09
1.02834e-09
1.02833e-09
1.02831e-09
1.0283e-09
1.02828e-09
1.02827e-09
1.02826e-09
1.02824e-09
1.02823e-09
1.02821e-09
1.0282e-09
1.02818e-09
1.02282e-09
1.02289e-09
1.02336e-09
1.02361e-09
1.02403e-09
1.02409e-09
1.02385e-09
1.02381e-09
1.02398e-09
1.02428e-09
1.02462e-09
1.02494e-09
1.02523e-09
1.02551e-09
1.02578e-09
1.02607e-09
1.02637e-09
1.02667e-09
1.02694e-09
1.02719e-09
1.0274e-09
1.02758e-09
1.02773e-09
1.02787e-09
1.02798e-09
1.02812e-09
1.02827e-09
1.02847e-09
1.02868e-09
1.0289e-09
1.02912e-09
1.02931e-09
1.02943e-09
1.02955e-09
1.02961e-09
1.02962e-09
1.02966e-09
1.02966e-09
1.02964e-09
1.02967e-09
1.02968e-09
1.02962e-09
1.02965e-09
1.02961e-09
1.02959e-09
1.02956e-09
1.02954e-09
1.02953e-09
1.02953e-09
1.02952e-09
1.02948e-09
1.02941e-09
1.02936e-09
1.02933e-09
1.0293e-09
1.02929e-09
1.02927e-09
1.02925e-09
1.02922e-09
1.02919e-09
1.02915e-09
1.02913e-09
1.02911e-09
1.02909e-09
1.02908e-09
1.02906e-09
1.02901e-09
1.02899e-09
1.02898e-09
1.02897e-09
1.02898e-09
1.02898e-09
1.02896e-09
1.02892e-09
1.02887e-09
1.02883e-09
1.02878e-09
1.02874e-09
1.02869e-09
1.02866e-09
1.02862e-09
1.02859e-09
1.02856e-09
1.02854e-09
1.02852e-09
1.0285e-09
1.02847e-09
1.02846e-09
1.02844e-09
1.02843e-09
1.02841e-09
1.0284e-09
1.02839e-09
1.02837e-09
1.02837e-09
1.02835e-09
1.02834e-09
1.02832e-09
1.02831e-09
1.02828e-09
1.02326e-09
1.02326e-09
1.02353e-09
1.02384e-09
1.02395e-09
1.02399e-09
1.02401e-09
1.02408e-09
1.02428e-09
1.02457e-09
1.02492e-09
1.02523e-09
1.02549e-09
1.02574e-09
1.02598e-09
1.02627e-09
1.02656e-09
1.0269e-09
1.02718e-09
1.02744e-09
1.02763e-09
1.02777e-09
1.02786e-09
1.02794e-09
1.028e-09
1.02811e-09
1.02821e-09
1.02841e-09
1.02862e-09
1.02887e-09
1.02914e-09
1.02932e-09
1.02949e-09
1.02961e-09
1.02964e-09
1.02969e-09
1.02969e-09
1.02969e-09
1.0297e-09
1.02976e-09
1.02975e-09
1.0297e-09
1.02966e-09
1.0296e-09
1.02963e-09
1.02962e-09
1.02962e-09
1.02962e-09
1.02962e-09
1.02965e-09
1.02964e-09
1.0296e-09
1.02956e-09
1.02952e-09
1.02948e-09
1.02946e-09
1.02946e-09
1.02944e-09
1.02941e-09
1.02938e-09
1.02935e-09
1.02934e-09
1.02932e-09
1.02931e-09
1.0293e-09
1.02929e-09
1.02928e-09
1.02923e-09
1.02922e-09
1.02924e-09
1.02924e-09
1.02922e-09
1.02918e-09
1.02913e-09
1.02908e-09
1.02902e-09
1.02897e-09
1.02892e-09
1.02888e-09
1.02884e-09
1.02881e-09
1.02879e-09
1.02876e-09
1.02875e-09
1.02873e-09
1.02872e-09
1.02871e-09
1.02869e-09
1.02868e-09
1.02866e-09
1.02864e-09
1.02862e-09
1.0286e-09
1.02859e-09
1.02858e-09
1.02857e-09
1.02856e-09
1.02853e-09
1.02852e-09
1.02849e-09
1.0238e-09
1.02373e-09
1.02388e-09
1.02423e-09
1.02439e-09
1.0245e-09
1.02462e-09
1.02459e-09
1.02473e-09
1.0249e-09
1.02517e-09
1.02544e-09
1.02566e-09
1.02594e-09
1.02614e-09
1.02646e-09
1.02677e-09
1.02711e-09
1.02739e-09
1.02767e-09
1.02789e-09
1.02806e-09
1.02814e-09
1.02822e-09
1.02829e-09
1.02836e-09
1.02839e-09
1.02851e-09
1.0287e-09
1.02894e-09
1.02919e-09
1.02938e-09
1.02955e-09
1.02967e-09
1.02971e-09
1.02976e-09
1.02977e-09
1.02977e-09
1.02978e-09
1.02982e-09
1.02979e-09
1.02976e-09
1.02969e-09
1.02972e-09
1.02974e-09
1.02971e-09
1.02971e-09
1.02971e-09
1.02973e-09
1.02973e-09
1.02975e-09
1.02978e-09
1.02973e-09
1.02971e-09
1.02966e-09
1.02964e-09
1.02963e-09
1.02964e-09
1.02967e-09
1.02965e-09
1.02963e-09
1.02961e-09
1.02959e-09
1.02959e-09
1.02958e-09
1.02958e-09
1.02957e-09
1.02956e-09
1.02954e-09
1.02952e-09
1.02948e-09
1.02943e-09
1.02937e-09
1.02931e-09
1.02925e-09
1.02918e-09
1.02912e-09
1.02907e-09
1.02902e-09
1.02897e-09
1.02894e-09
1.02891e-09
1.02888e-09
1.02887e-09
1.02885e-09
1.02884e-09
1.02883e-09
1.02882e-09
1.02881e-09
1.02879e-09
1.02878e-09
1.02877e-09
1.02876e-09
1.02874e-09
1.02873e-09
1.02871e-09
1.0287e-09
1.02867e-09
1.02865e-09
1.02863e-09
1.02441e-09
1.02434e-09
1.02428e-09
1.02455e-09
1.0247e-09
1.02493e-09
1.02533e-09
1.02544e-09
1.02534e-09
1.02533e-09
1.02551e-09
1.02573e-09
1.02595e-09
1.0263e-09
1.02649e-09
1.0268e-09
1.02706e-09
1.02731e-09
1.02753e-09
1.02773e-09
1.02795e-09
1.02809e-09
1.0282e-09
1.02834e-09
1.0286e-09
1.02887e-09
1.02893e-09
1.02882e-09
1.02888e-09
1.02904e-09
1.0292e-09
1.0294e-09
1.02955e-09
1.02964e-09
1.02968e-09
1.02971e-09
1.02971e-09
1.02971e-09
1.02972e-09
1.02975e-09
1.02973e-09
1.0297e-09
1.02971e-09
1.02984e-09
1.0298e-09
1.02979e-09
1.02975e-09
1.02975e-09
1.02979e-09
1.02973e-09
1.02978e-09
1.02982e-09
1.02983e-09
1.02977e-09
1.02978e-09
1.02973e-09
1.02975e-09
1.02978e-09
1.02981e-09
1.02979e-09
1.02976e-09
1.02975e-09
1.02973e-09
1.02973e-09
1.02971e-09
1.02969e-09
1.02967e-09
1.02966e-09
1.02963e-09
1.02961e-09
1.02958e-09
1.02955e-09
1.0295e-09
1.02944e-09
1.02937e-09
1.02929e-09
1.02922e-09
1.02915e-09
1.02908e-09
1.02902e-09
1.02898e-09
1.02894e-09
1.0289e-09
1.02888e-09
1.02886e-09
1.02884e-09
1.02883e-09
1.02882e-09
1.02881e-09
1.02879e-09
1.02879e-09
1.02877e-09
1.02877e-09
1.02875e-09
1.02875e-09
1.02873e-09
1.02873e-09
1.02871e-09
1.0287e-09
1.02869e-09
1.02492e-09
1.02495e-09
1.02486e-09
1.02484e-09
1.02507e-09
1.02523e-09
1.0255e-09
1.02588e-09
1.02597e-09
1.02585e-09
1.02582e-09
1.02598e-09
1.02624e-09
1.02659e-09
1.02692e-09
1.02728e-09
1.02756e-09
1.02773e-09
1.0279e-09
1.02792e-09
1.02805e-09
1.02812e-09
1.02829e-09
1.02837e-09
1.02857e-09
1.02864e-09
1.02882e-09
1.02894e-09
1.02916e-09
1.02931e-09
1.02945e-09
1.02954e-09
1.0296e-09
1.0296e-09
1.02961e-09
1.02958e-09
1.02958e-09
1.02956e-09
1.02962e-09
1.02962e-09
1.02965e-09
1.02966e-09
1.02972e-09
1.02981e-09
1.02971e-09
1.02977e-09
1.02975e-09
1.02976e-09
1.02974e-09
1.02979e-09
1.02975e-09
1.02979e-09
1.02982e-09
1.02986e-09
1.02979e-09
1.02977e-09
1.0297e-09
1.02967e-09
1.0297e-09
1.02971e-09
1.02975e-09
1.02975e-09
1.02977e-09
1.0298e-09
1.02979e-09
1.02978e-09
1.02975e-09
1.02973e-09
1.02971e-09
1.02967e-09
1.02965e-09
1.0296e-09
1.02956e-09
1.02949e-09
1.02942e-09
1.02933e-09
1.02925e-09
1.02916e-09
1.02908e-09
1.029e-09
1.02893e-09
1.02888e-09
1.02883e-09
1.02879e-09
1.02875e-09
1.02873e-09
1.0287e-09
1.02869e-09
1.02867e-09
1.02866e-09
1.02864e-09
1.02864e-09
1.02863e-09
1.02861e-09
1.02861e-09
1.0286e-09
1.02859e-09
1.02858e-09
1.02858e-09
1.02854e-09
1.02523e-09
1.02552e-09
1.02543e-09
1.0254e-09
1.02544e-09
1.0256e-09
1.02581e-09
1.02596e-09
1.02606e-09
1.02616e-09
1.02623e-09
1.02633e-09
1.0265e-09
1.02677e-09
1.02707e-09
1.02742e-09
1.02778e-09
1.02803e-09
1.02832e-09
1.02844e-09
1.02875e-09
1.02889e-09
1.02921e-09
1.02947e-09
1.02976e-09
1.02997e-09
1.03019e-09
1.03022e-09
1.03034e-09
1.03032e-09
1.03029e-09
1.03012e-09
1.03011e-09
1.03004e-09
1.02997e-09
1.02972e-09
1.0297e-09
1.02959e-09
1.02955e-09
1.02953e-09
1.02961e-09
1.02961e-09
1.02972e-09
1.02971e-09
1.02968e-09
1.02969e-09
1.0297e-09
1.02964e-09
1.02964e-09
1.02962e-09
1.02962e-09
1.02965e-09
1.02966e-09
1.02967e-09
1.02971e-09
1.0297e-09
1.02964e-09
1.02958e-09
1.02948e-09
1.02952e-09
1.02959e-09
1.02961e-09
1.02968e-09
1.02967e-09
1.02969e-09
1.0297e-09
1.02967e-09
1.02964e-09
1.02961e-09
1.02956e-09
1.02953e-09
1.02949e-09
1.02944e-09
1.02938e-09
1.0293e-09
1.02921e-09
1.02912e-09
1.02903e-09
1.02894e-09
1.02886e-09
1.02879e-09
1.02872e-09
1.02867e-09
1.02863e-09
1.0286e-09
1.02858e-09
1.02855e-09
1.02853e-09
1.02851e-09
1.02849e-09
1.02848e-09
1.02846e-09
1.02845e-09
1.02844e-09
1.02843e-09
1.02842e-09
1.02841e-09
1.0284e-09
1.02839e-09
1.02838e-09
1.02558e-09
1.02578e-09
1.02593e-09
1.0259e-09
1.0259e-09
1.0259e-09
1.02608e-09
1.02622e-09
1.0264e-09
1.0265e-09
1.02663e-09
1.02671e-09
1.02689e-09
1.02706e-09
1.02729e-09
1.02754e-09
1.02787e-09
1.02814e-09
1.02843e-09
1.02867e-09
1.02897e-09
1.02914e-09
1.0294e-09
1.02978e-09
1.02996e-09
1.03032e-09
1.03044e-09
1.03057e-09
1.03051e-09
1.03051e-09
1.03052e-09
1.03016e-09
1.03017e-09
1.02979e-09
1.02985e-09
1.02974e-09
1.02967e-09
1.02958e-09
1.02956e-09
1.02956e-09
1.02957e-09
1.02956e-09
1.02969e-09
1.02961e-09
1.02964e-09
1.02964e-09
1.02961e-09
1.02957e-09
1.02957e-09
1.02954e-09
1.02954e-09
1.02951e-09
1.0295e-09
1.02953e-09
1.02955e-09
1.02954e-09
1.02943e-09
1.02928e-09
1.0292e-09
1.02917e-09
1.02917e-09
1.02915e-09
1.02918e-09