/*--------------------------------*- C++ -*----------------------------------*\
  =========                 |
  \\      /  F ield         | OpenFOAM: The Open Source CFD Toolbox
   \\    /   O peration     | Website:  https://openfoam.org
    \\  /    A nd           | Version:  8
     \\/     M anipulation  |
\*---------------------------------------------------------------------------*/
FoamFile
{
    version     2.0;
    format      ascii;
    class       volScalarField;
    location    "0.999971";
    object      r_het;
}
// * * * * * * * * * * * * * * * * * * * * * * * * * * * * * * * * * * * * * //

dimensions      [0 1 0 0 0 0 0];

internalField   nonuniform List<scalar> 
6800
(
0.00446051
0.00452907
0.00470584
0.00474275
0.00473866
0.00472511
0.00469675
0.00467838
0.00467888
0.00467261
0.00446373
0.00468047
0.00475399
0.00474957
0.00472893
0.00469827
0.00468398
0.00468835
0.00471973
0.0047329
0.00445767
0.00472294
0.0047678
0.00474094
0.00470613
0.00469431
0.00470701
0.00474328
0.00481531
0.0048499
0.00445932
0.00481011
0.00477633
0.00471496
0.00470433
0.00472277
0.00477901
0.00484817
0.00488156
0.00488935
0.00496394
0.00485966
0.00473041
0.00471046
0.00473188
0.00479737
0.00486363
0.00489254
0.00490953
0.00491026
0.00496809
0.00475989
0.00471625
0.00472955
0.00479855
0.00486683
0.00489982
0.00492895
0.00494043
0.00493614
0.00496934
0.00472486
0.00471522
0.00476785
0.00487067
0.0049019
0.00494768
0.00496281
0.00496089
0.00495122
0.00497309
0.00467656
0.00473889
0.00484597
0.00491402
0.00495609
0.00497864
0.00498303
0.00498196
0.00497476
0.0049809
0.0046692
0.00480994
0.00487796
0.00496447
0.00498133
0.00500693
0.00501308
0.00500759
0.00499715
0.00499172
0.00466832
0.00486156
0.00494286
0.00498851
0.00502286
0.00504318
0.00503632
0.00502477
0.00502319
0.00446654
0.00447621
0.00447986
0.00448309
0.00448548
0.00448794
0.00448997
0.00449212
0.00449398
0.00449597
0.00446643
0.00447555
0.00447862
0.00448012
0.00448048
0.0044796
0.00447766
0.00447442
0.00446985
0.00446416
0.00446633
0.00447359
0.00447449
0.00447331
0.00446833
0.00445898
0.00444495
0.00442445
0.00439747
0.00437686
0.00446548
0.00447055
0.00446999
0.00446175
0.00444141
0.00440593
0.00437096
0.00433669
0.00431559
0.00429169
0.00446467
0.00446798
0.0044621
0.00444034
0.00440473
0.00437511
0.00435002
0.00432771
0.00431303
0.00435616
0.00446288
0.0044646
0.00445454
0.00443077
0.00440271
0.0043813
0.00435751
0.00436608
0.00437603
0.00451902
0.00446192
0.00446259
0.00445225
0.0044327
0.00440716
0.0044116
0.00444666
0.00451217
0.00458376
0.00465703
0.00446009
0.00446011
0.00444936
0.00444314
0.0044682
0.00453903
0.00463679
0.00468385
0.0046983
0.00469627
0.00445938
0.00445816
0.00445484
0.00450985
0.00464427
0.00470217
0.00471609
0.00471438
0.00470486
0.00468872
0.00445761
0.00445464
0.00453638
0.00469114
0.00472922
0.00472753
0.00472148
0.00470242
0.00468688
0.00467221
0.00449842
0.00450143
0.00450418
0.00450701
0.00450977
0.00451318
0.00451647
0.00452027
0.00452391
0.00452793
0.00453178
0.00453602
0.00453993
0.00454379
0.00454628
0.00454787
0.00455126
0.00455422
0.00455747
0.00456029
0.00456207
0.00456444
0.00456613
0.0045677
0.00456875
0.00456954
0.00457013
0.00457048
0.00457063
0.00457063
0.00457068
0.00457041
0.00457006
0.00456932
0.00456882
0.0045678
0.00456718
0.00456591
0.00456515
0.0045636
0.00456271
0.0045609
0.00455989
0.00455783
0.00455671
0.00455446
0.00455327
0.00455087
0.00454964
0.00454718
0.00454592
0.00454343
0.00454216
0.00453965
0.00453838
0.00453586
0.00453457
0.00453203
0.00453072
0.00452815
0.00452682
0.00452419
0.00452284
0.00452013
0.00451873
0.00451593
0.00451448
0.00451156
0.00451005
0.00450701
0.00450543
0.00450226
0.00450062
0.00449733
0.00449564
0.00449224
0.00449051
0.00448704
0.00448527
0.00448175
0.00447996
0.00447641
0.00447461
0.00447104
0.00446924
0.00446566
0.00446386
0.00446028
0.00445847
0.00445487
0.00445306
0.00444944
0.0044476
0.00444394
0.00444207
0.00443837
0.00443643
0.00443273
0.00443043
0.0044262
0.00445495
0.00445663
0.00445569
0.00445811
0.00446187
0.00446782
0.00447593
0.00448439
0.0044945
0.00450483
0.00451511
0.0045273
0.00454092
0.00455239
0.00456507
0.00457545
0.00458498
0.00459481
0.00460193
0.00460654
0.00461052
0.00461344
0.00461498
0.00461617
0.00461637
0.00461625
0.00461596
0.00461499
0.00461426
0.00461254
0.00461158
0.00460943
0.00460832
0.0046059
0.00460468
0.00460205
0.00460074
0.00459795
0.00459658
0.00459374
0.00459234
0.00458944
0.004588
0.00458506
0.00458358
0.0045806
0.00457907
0.00457608
0.00457453
0.00457157
0.00457004
0.00456711
0.00456562
0.00456276
0.00456132
0.0045585
0.0045571
0.00455432
0.00455293
0.00455014
0.00454874
0.00454589
0.00454446
0.00454151
0.00454001
0.00453693
0.00453536
0.00453214
0.00453048
0.0045271
0.00452536
0.00452186
0.00452007
0.0045165
0.00451468
0.00451107
0.00450925
0.00450564
0.00450382
0.00450024
0.00449844
0.00449488
0.0044931
0.00448956
0.0044878
0.00448426
0.0044825
0.00447895
0.00447717
0.00447359
0.00447179
0.00446813
0.00446629
0.00446253
0.00446063
0.00445678
0.00445476
0.00445085
0.00444851
0.00444409
0.00435149
0.0043525
0.00434823
0.00435271
0.00436376
0.004379
0.00439695
0.00442033
0.00444196
0.0044674
0.00448992
0.00450689
0.00452796
0.0045481
0.00456736
0.00458471
0.00459907
0.00461212
0.00462026
0.00462526
0.00462872
0.00462906
0.00462891
0.00462803
0.00462717
0.00462509
0.00462389
0.00462123
0.00461992
0.00461708
0.00461569
0.00461266
0.00461117
0.00460794
0.00460634
0.00460293
0.00460124
0.00459766
0.00459587
0.00459215
0.0045903
0.00458649
0.00458459
0.00458078
0.00457881
0.00457504
0.00457306
0.00456936
0.00456742
0.00456383
0.00456197
0.00455851
0.00455675
0.00455343
0.00455177
0.00454855
0.00454696
0.00454381
0.00454222
0.00453909
0.00453746
0.00453429
0.00453257
0.00452931
0.00452746
0.00452407
0.0045221
0.00451859
0.00451655
0.00451294
0.00451087
0.00450723
0.00450518
0.00450154
0.00449956
0.00449594
0.00449405
0.00449048
0.00448867
0.00448515
0.0044834
0.00447993
0.0044782
0.00447474
0.00447301
0.00446953
0.00446777
0.00446421
0.00446241
0.00445873
0.00445687
0.00445304
0.0044511
0.00444711
0.00444508
0.00444093
0.00443882
0.00443446
0.00443254
0.00442694
0.0042762
0.0042727
0.00428322
0.00431016
0.00432299
0.00434564
0.00436707
0.0043966
0.00442494
0.00445612
0.00448651
0.00451408
0.0045469
0.00457889
0.00460403
0.00462286
0.0046324
0.00463713
0.00463829
0.00463775
0.00463699
0.00463457
0.00463328
0.00463056
0.00462918
0.00462603
0.00462433
0.00462066
0.00461858
0.00461418
0.00461172
0.00460662
0.00460385
0.00459819
0.00459516
0.00458918
0.00458582
0.0045798
0.00457629
0.00457035
0.00456682
0.00456103
0.00455756
0.00455198
0.00454861
0.00454329
0.00454007
0.00453504
0.00453202
0.00452733
0.0045245
0.00452015
0.00451751
0.00451346
0.00451098
0.00450719
0.00450483
0.0045012
0.0044989
0.00449534
0.00449303
0.00448946
0.0044871
0.00448345
0.00448105
0.00447733
0.00447489
0.00447112
0.0044687
0.00446493
0.00446257
0.00445883
0.00445657
0.00445292
0.00445079
0.00444723
0.00444524
0.00444176
0.0044399
0.00443648
0.00443472
0.00443129
0.00442958
0.00442611
0.00442436
0.00442083
0.00441902
0.00441533
0.00441346
0.00440959
0.00440761
0.00440356
0.00440148
0.00439726
0.00439508
0.00439072
0.00438846
0.00438402
0.00438159
0.00437691
0.00433949
0.00433246
0.0043361
0.00434592
0.00436377
0.00438737
0.00441769
0.00445671
0.00449525
0.0045363
0.00457073
0.00460322
0.00462521
0.00463752
0.00464458
0.00464629
0.00464614
0.00464467
0.00464325
0.0046401
0.0046384
0.00463465
0.00463246
0.00462768
0.00462468
0.00461865
0.00461448
0.00460746
0.00460238
0.00459462
0.00458882
0.00458051
0.00457423
0.00456563
0.00455913
0.00455055
0.0045441
0.00453579
0.00452961
0.00452172
0.00451594
0.00450851
0.00450316
0.00449622
0.00449131
0.00448486
0.00448038
0.00447444
0.00447039
0.00446495
0.00446129
0.00445631
0.00445299
0.00444843
0.00444539
0.00444118
0.00443839
0.00443446
0.00443183
0.00442809
0.00442555
0.00442189
0.00441941
0.00441577
0.00441332
0.00440968
0.00440728
0.00440365
0.0044013
0.0043977
0.00439545
0.0043919
0.00438975
0.0043863
0.00438426
0.0043809
0.00437897
0.00437568
0.00437383
0.00437057
0.00436876
0.00436547
0.00436367
0.00436029
0.00435845
0.00435494
0.00435304
0.00434936
0.00434738
0.00434352
0.00434147
0.00433745
0.00433534
0.00433119
0.00432906
0.00432482
0.00432269
0.00431838
0.00431645
0.0043113
0.004514
0.00451109
0.00451836
0.00453332
0.00455063
0.00457302
0.00459422
0.00461397
0.0046295
0.00464179
0.00465061
0.00465476
0.00465683
0.00465616
0.00465485
0.00465151
0.00464957
0.00464499
0.00464215
0.00463577
0.00463163
0.00462345
0.0046173
0.00460782
0.00460016
0.00458967
0.00458114
0.00456997
0.00456095
0.00454934
0.00454007
0.00452835
0.00451915
0.00450775
0.00449895
0.00448825
0.00448009
0.0044703
0.00446291
0.00445403
0.00444744
0.0044394
0.00443354
0.00442625
0.00442105
0.00441446
0.00440988
0.00440394
0.00439995
0.00439461
0.00439113
0.00438632
0.00438325
0.0043789
0.00437615
0.00437216
0.0043697
0.00436601
0.00436373
0.00436022
0.00435805
0.00435465
0.00435257
0.00434923
0.00434721
0.00434392
0.00434196
0.00433872
0.00433683
0.00433363
0.00433181
0.00432867
0.00432691
0.00432382
0.00432209
0.00431906
0.00431734
0.00431433
0.00431259
0.00430957
0.00430779
0.00430471
0.00430287
0.0042997
0.00429777
0.00429448
0.00429248
0.00428906
0.004287
0.00428345
0.00428135
0.00427771
0.00427561
0.00427189
0.00426985
0.00426609
0.00426413
0.00426035
0.00425868
0.00425401
0.0046563
0.00465698
0.00465868
0.00466091
0.00466413
0.00466671
0.00466953
0.00467104
0.00467144
0.00467047
0.00466896
0.00466564
0.00466327
0.00465824
0.0046546
0.00464688
0.00464143
0.00463035
0.0046224
0.00460873
0.00459835
0.0045836
0.00457205
0.00455726
0.00454552
0.00453115
0.00451968
0.00450578
0.00449433
0.00448071
0.0044699
0.00445714
0.00444736
0.0044358
0.00442722
0.00441704
0.00440964
0.00440066
0.00439419
0.00438626
0.00438063
0.00437354
0.00436862
0.00436225
0.00435796
0.00435226
0.00434858
0.0043435
0.00434039
0.00433587
0.00433323
0.00432918
0.00432688
0.00432319
0.00432112
0.00431768
0.00431581
0.00431255
0.00431078
0.00430762
0.00430591
0.00430282
0.00430117
0.00429815
0.00429655
0.0042936
0.00429207
0.00428919
0.00428772
0.0042849
0.00428345
0.00428066
0.00427922
0.00427643
0.00427494
0.00427213
0.00427057
0.00426772
0.00426606
0.00426314
0.00426138
0.00425839
0.00425652
0.00425344
0.0042515
0.00424832
0.00424632
0.00424306
0.00424102
0.0042377
0.00423566
0.0042323
0.00423031
0.00422692
0.00422501
0.00422163
0.00421983
0.00421644
0.00421495
0.00421056
0.00469577
0.00469485
0.00469415
0.00469232
0.00469105
0.00468804
0.00468599
0.00468134
0.00467833
0.0046716
0.00466703
0.00465734
0.00464993
0.00463682
0.0046259
0.00460962
0.00459631
0.0045758
0.00455978
0.00453919
0.00452427
0.00450597
0.00449321
0.00447759
0.00446686
0.00445333
0.00444398
0.00443189
0.00442386
0.004413
0.00440585
0.00439577
0.00438934
0.00438005
0.00437425
0.00436582
0.00436045
0.00435295
0.00434804
0.00434124
0.00433678
0.00433051
0.00432648
0.00432068
0.00431711
0.00431181
0.00430865
0.00430385
0.00430111
0.0042968
0.00429441
0.0042905
0.00428834
0.00428472
0.00428269
0.00427924
0.00427733
0.004274
0.00427213
0.00426886
0.00426701
0.00426379
0.00426197
0.0042588
0.00425704
0.00425395
0.00425227
0.00424926
0.00424767
0.00424472
0.00424319
0.00424027
0.00423875
0.00423581
0.00423426
0.00423127
0.00422964
0.00422658
0.00422485
0.0042217
0.00421986
0.00421662
0.00421469
0.00421136
0.00420936
0.00420595
0.00420392
0.00420045
0.00419842
0.00419492
0.00419291
0.00418941
0.00418743
0.00418394
0.00418203
0.00417857
0.00417675
0.00417327
0.00417175
0.00416718
0.00468539
0.00468055
0.00467788
0.00467296
0.00466944
0.00466179
0.00465595
0.00464411
0.0046352
0.00462013
0.00460725
0.00458936
0.00457386
0.00455391
0.00453772
0.0045174
0.00450264
0.00448641
0.00447618
0.00446326
0.00445572
0.00444492
0.00443886
0.0044293
0.00442387
0.00441472
0.00440932
0.00440009
0.00439446
0.00438513
0.00437945
0.0043702
0.00436478
0.0043558
0.0043507
0.00434204
0.00433719
0.00432886
0.00432404
0.00431605
0.00431123
0.00430349
0.00429872
0.00429129
0.00428662
0.00427967
0.00427525
0.00426888
0.00426483
0.00425912
0.00425543
0.00425033
0.00424702
0.00424244
0.00423943
0.00423521
0.00423244
0.00422847
0.00422585
0.00422201
0.0042195
0.00421573
0.00421332
0.00420958
0.00420728
0.00420357
0.00420135
0.00419772
0.00419565
0.00419209
0.00419017
0.00418665
0.00418484
0.00418134
0.00417958
0.00417606
0.0041743
0.00417074
0.00416891
0.00416528
0.00416338
0.00415968
0.00415768
0.0041539
0.00415182
0.00414798
0.00414585
0.00414198
0.00413983
0.00413594
0.00413379
0.00412991
0.0041278
0.00412393
0.00412187
0.00411803
0.00411605
0.00411219
0.0041105
0.00410553
0.00466143
0.00464398
0.00463209
0.00461574
0.00460422
0.00458848
0.00457755
0.00456211
0.00455103
0.00453607
0.00452499
0.00451111
0.00450123
0.0044894
0.00448143
0.00447161
0.00446536
0.0044559
0.0044505
0.00444163
0.00443702
0.00442879
0.00442464
0.00441667
0.00441251
0.00440426
0.00439969
0.00439088
0.00438587
0.00437695
0.00437174
0.00436271
0.00435751
0.00434846
0.00434333
0.00433425
0.00432923
0.00432016
0.00431505
0.00430605
0.0043008
0.0042918
0.00428648
0.00427766
0.00427234
0.00426385
0.00425873
0.00425062
0.00424572
0.00423814
0.00423367
0.00422668
0.00422244
0.00421586
0.00421174
0.00420544
0.00420135
0.00419525
0.00419115
0.00418519
0.00418118
0.00417539
0.00417155
0.00416594
0.00416237
0.00415704
0.00415377
0.00414868
0.00414571
0.0041408
0.00413806
0.00413329
0.00413072
0.00412608
0.00412364
0.0041191
0.00411671
0.00411225
0.00410987
0.00410545
0.00410306
0.00409869
0.00409627
0.00409194
0.00408951
0.00408519
0.00408274
0.00407844
0.004076
0.00407172
0.00406932
0.00406505
0.00406271
0.00405844
0.00405617
0.00405191
0.00404969
0.00404549
0.0040431
0.00403861
0.00469705
0.00467011
0.00464991
0.0046273
0.00461036
0.00458966
0.00457431
0.0045552
0.00454147
0.00452512
0.00451389
0.00450117
0.00449331
0.00448437
0.00447912
0.00447265
0.0044697
0.00446483
0.00446281
0.00445867
0.00445658
0.00445201
0.00444929
0.00444333
0.0044397
0.00443197
0.00442746
0.00441827
0.00441284
0.0044027
0.00439663
0.00438605
0.00437983
0.00436912
0.00436291
0.00435228
0.00434629
0.0043357
0.0043298
0.00431929
0.00431325
0.00430279
0.00429664
0.00428632
0.00428021
0.00427018
0.00426432
0.00425472
0.00424906
0.00423983
0.00423427
0.00422547
0.00422009
0.00421172
0.0042065
0.00419836
0.00419314
0.00418506
0.00417978
0.00417168
0.00416638
0.00415833
0.00415309
0.00414519
0.00414018
0.00413256
0.0041279
0.00412061
0.0041163
0.00410931
0.00410529
0.00409857
0.00409479
0.00408831
0.00408469
0.00407839
0.00407485
0.00406871
0.00406521
0.00405921
0.00405574
0.00404986
0.00404641
0.00404067
0.00403724
0.00403167
0.00402831
0.0040229
0.00401965
0.0040144
0.00401129
0.0040062
0.00400327
0.00399832
0.00399558
0.00399075
0.00398817
0.00398352
0.00398076
0.00397564
0.00476447
0.00473706
0.00471468
0.00469048
0.004672
0.00465124
0.00463558
0.00461734
0.00460446
0.00458919
0.00457948
0.00456722
0.00455977
0.00454931
0.00454307
0.00453333
0.00452753
0.00451764
0.00451183
0.00450127
0.0044953
0.00448403
0.00447765
0.00446601
0.00445915
0.00444738
0.00444017
0.00442828
0.00442096
0.00440907
0.00440178
0.00439
0.00438299
0.00437146
0.00436475
0.00435367
0.00434727
0.00433636
0.00433022
0.00431937
0.00431318
0.00430259
0.00429635
0.00428589
0.00427985
0.00426965
0.00426392
0.00425417
0.00424867
0.00423928
0.00423393
0.00422489
0.00421966
0.00421099
0.00420582
0.00419736
0.00419212
0.00418365
0.00417833
0.00416975
0.00416437
0.00415571
0.00415033
0.00414176
0.00413644
0.004128
0.00412285
0.00411462
0.00410962
0.00410158
0.00409681
0.00408901
0.00408444
0.00407683
0.00407231
0.00406477
0.00406019
0.00405268
0.004048
0.00404052
0.00403577
0.00402837
0.00402359
0.00401632
0.00401159
0.00400452
0.00399993
0.00399312
0.00398874
0.00398226
0.00397815
0.00397198
0.00396814
0.00396227
0.00395876
0.00395316
0.00394997
0.00394469
0.00394134
0.00393526
0.00480212
0.00477613
0.00475503
0.0047318
0.00471331
0.00469258
0.00467609
0.0046572
0.00464265
0.00462568
0.00461332
0.00459821
0.00458777
0.00457403
0.0045648
0.00455181
0.00454314
0.00453052
0.00452213
0.00450965
0.00450151
0.00448896
0.00448112
0.00446867
0.00446103
0.00444881
0.00444131
0.00442921
0.00442178
0.00440972
0.00440241
0.00439058
0.00438364
0.00437206
0.00436559
0.00435451
0.00434828
0.00433764
0.00433171
0.00432122
0.00431555
0.00430512
0.00429948
0.00428929
0.00428381
0.00427382
0.00426857
0.00425888
0.0042539
0.00424451
0.00423973
0.0042305
0.00422584
0.00421673
0.00421215
0.00420312
0.00419857
0.00418956
0.00418494
0.00417586
0.00417116
0.00416203
0.00415732
0.00414828
0.0041436
0.00413477
0.00413017
0.00412161
0.00411705
0.00410866
0.00410429
0.00409601
0.00409179
0.00408361
0.00407943
0.00407131
0.0040671
0.00405903
0.00405471
0.00404664
0.00404212
0.00403392
0.00402924
0.00402097
0.00401613
0.00400791
0.00400294
0.00399488
0.0039899
0.00398209
0.00397716
0.00396964
0.00396487
0.00395769
0.00395322
0.00394636
0.00394231
0.00393558
0.00393272
0.00392215
0.00481795
0.00479267
0.00477224
0.00474911
0.00473095
0.00471037
0.00469381
0.00467432
0.00465868
0.00464033
0.00462644
0.00460988
0.00459804
0.004583
0.00457261
0.00455842
0.00454869
0.00453503
0.00452556
0.00451237
0.00450319
0.00449032
0.00448183
0.00446923
0.00446144
0.00444919
0.00444201
0.0044302
0.00442335
0.00441198
0.00440529
0.00439434
0.00438798
0.00437731
0.00437149
0.00436125
0.00435577
0.00434605
0.00434085
0.00433136
0.00432624
0.00431661
0.00431146
0.00430186
0.00429669
0.00428718
0.00428211
0.00427275
0.00426786
0.00425867
0.00425393
0.00424476
0.00424008
0.0042309
0.00422629
0.00421713
0.00421254
0.00420343
0.00419885
0.00418977
0.00418522
0.00417619
0.00417168
0.00416279
0.00415835
0.00414959
0.0041452
0.00413657
0.00413219
0.00412369
0.00411933
0.00411099
0.00410676
0.00409854
0.00409442
0.00408627
0.00408218
0.00407406
0.00406992
0.00406172
0.00405736
0.00404909
0.00404452
0.00403614
0.00403137
0.00402295
0.00401801
0.00400967
0.00400464
0.00399647
0.00399145
0.00398351
0.00397862
0.00397092
0.00396627
0.00395881
0.00395442
0.00394733
0.00394247
0.00393392
0.00482425
0.00479937
0.00477927
0.00475559
0.00473683
0.00471546
0.0046989
0.00467943
0.00466389
0.00464536
0.00463119
0.00461437
0.00460223
0.00458707
0.00457637
0.00456215
0.00455213
0.00453847
0.00452894
0.0045158
0.00450686
0.00449437
0.00448638
0.00447449
0.00446754
0.00445619
0.00445005
0.00443914
0.00443345
0.00442298
0.00441742
0.00440739
0.00440196
0.0043922
0.00438713
0.00437762
0.00437277
0.00436349
0.00435879
0.00434947
0.00434462
0.00433497
0.00432987
0.00432003
0.00431479
0.0043049
0.00429972
0.00428992
0.00428488
0.00427519
0.00427024
0.00426068
0.00425574
0.00424634
0.00424148
0.00423219
0.00422747
0.00421825
0.00421365
0.00420454
0.00419998
0.00419095
0.00418639
0.00417745
0.00417288
0.00416401
0.00415951
0.00415069
0.00414618
0.00413744
0.00413295
0.00412422
0.0041197
0.00411106
0.00410653
0.00409796
0.00409338
0.00408487
0.00408022
0.00407174
0.00406702
0.00405856
0.00405378
0.00404533
0.00404048
0.00403208
0.00402716
0.00401885
0.00401389
0.00400569
0.00400074
0.00399265
0.00398781
0.00397982
0.00397516
0.0039673
0.00396284
0.00395525
0.0039503
0.0039414
0.00483545
0.0048108
0.00479204
0.00476846
0.0047496
0.00472695
0.00471014
0.0046903
0.00467538
0.00465722
0.00464349
0.00462693
0.00461474
0.0045999
0.00458908
0.00457549
0.0045654
0.00455247
0.00454285
0.00453037
0.00452141
0.00450972
0.00450182
0.00449088
0.00448401
0.00447344
0.00446726
0.00445696
0.00445135
0.00444129
0.00443588
0.00442599
0.00442054
0.00441073
0.00440549
0.00439558
0.00439054
0.00438066
0.00437544
0.00436546
0.00436005
0.00434973
0.00434408
0.00433362
0.00432781
0.00431738
0.00431176
0.00430155
0.00429615
0.00428617
0.00428096
0.00427122
0.00426621
0.0042567
0.00425185
0.00424249
0.00423773
0.00422848
0.00422376
0.0042146
0.0042099
0.00420069
0.00419603
0.00418682
0.00418214
0.004173
0.00416834
0.00415929
0.0041546
0.00414561
0.0041409
0.00413188
0.00412708
0.00411804
0.00411314
0.00410417
0.0040992
0.00409036
0.00408535
0.00407666
0.00407163
0.00406309
0.00405807
0.00404964
0.00404465
0.00403631
0.00403136
0.00402311
0.00401819
0.00401001
0.00400513
0.003997
0.00399222
0.00398413
0.00397949
0.00397144
0.00396702
0.00395892
0.00395548
0.00394364
0.00484632
0.00482213
0.00480428
0.00478151
0.00476404
0.00474189
0.00472517
0.00470459
0.00469035
0.00467278
0.0046604
0.00464424
0.00463256
0.00461744
0.00460674
0.00459283
0.00458308
0.00457009
0.00456086
0.00454843
0.00453963
0.00452756
0.00451909
0.0045075
0.00449972
0.00448899
0.00448213
0.00447218
0.0044659
0.00445614
0.00445002
0.00444016
0.00443392
0.00442392
0.00441762
0.00440737
0.00440127
0.00439087
0.00438479
0.00437454
0.00436845
0.00435818
0.00435208
0.00434194
0.0043359
0.00432602
0.0043203
0.0043107
0.00430526
0.00429587
0.00429054
0.00428122
0.004276
0.0042668
0.00426162
0.0042525
0.00424731
0.0042382
0.00423306
0.00422403
0.00421897
0.00421004
0.00420507
0.00419622
0.00419126
0.00418247
0.00417742
0.00416869
0.00416358
0.00415487
0.00414962
0.00414091
0.00413545
0.00412677
0.00412117
0.0041126
0.00410695
0.00409853
0.00409289
0.00408463
0.00407903
0.00407089
0.00406538
0.00405729
0.00405188
0.00404382
0.00403853
0.00403047
0.00402533
0.00401723
0.00401227
0.00400409
0.0039993
0.00399107
0.00398645
0.00397821
0.00397378
0.00396547
0.00396192
0.00395014
0.00485319
0.00482995
0.00481194
0.00479019
0.00477307
0.00475157
0.00473535
0.00471548
0.00470172
0.00468449
0.00467238
0.00465618
0.00464449
0.00462924
0.00461865
0.00460485
0.00459537
0.00458233
0.004573
0.00455969
0.00455019
0.00453686
0.00452779
0.00451531
0.00450727
0.00449617
0.00448936
0.00447944
0.00447354
0.00446397
0.00445828
0.00444838
0.00444228
0.00443208
0.00442556
0.00441528
0.00440879
0.00439849
0.00439231
0.00438246
0.00437654
0.00436701
0.00436138
0.00435232
0.00434702
0.00433834
0.00433326
0.0043247
0.00431964
0.00431105
0.00430576
0.00429688
0.00429135
0.00428228
0.00427659
0.00426745
0.00426172
0.00425256
0.00424689
0.00423784
0.00423228
0.0042234
0.00421798
0.00420924
0.00420381
0.00419517
0.00418971
0.00418106
0.0041755
0.00416687
0.00416112
0.00415248
0.00414651
0.00413797
0.00413186
0.00412355
0.00411739
0.00410935
0.00410319
0.00409538
0.00408925
0.00408159
0.00407551
0.00406789
0.00406194
0.00405428
0.00404849
0.00404078
0.00403519
0.0040274
0.00402209
0.0040142
0.0040092
0.00400126
0.00399658
0.00398863
0.00398426
0.00397622
0.00397279
0.0039612
0.00485888
0.00483519
0.00481875
0.00479713
0.0047815
0.00476006
0.00474502
0.00472472
0.00471158
0.0046934
0.00468144
0.00466483
0.00465334
0.00463833
0.00462822
0.00461503
0.00460639
0.00459364
0.00458475
0.00457143
0.00456215
0.00454843
0.00453923
0.0045261
0.00451799
0.00450634
0.00449953
0.00448932
0.00448346
0.0044737
0.00446787
0.00445761
0.00445127
0.0044406
0.00443373
0.00442306
0.00441614
0.00440588
0.00439944
0.00438995
0.00438415
0.00437529
0.00437039
0.0043623
0.00435784
0.00435012
0.00434577
0.00433806
0.00433352
0.00432534
0.00432028
0.00431161
0.0043061
0.00429703
0.00429123
0.00428193
0.00427602
0.00426661
0.00426065
0.00425124
0.00424528
0.00423601
0.00423012
0.00422099
0.00421508
0.00420601
0.00420002
0.00419097
0.00418485
0.0041758
0.00416955
0.00416058
0.00415426
0.0041455
0.00413916
0.00413069
0.00412437
0.00411622
0.00410994
0.00410205
0.00409578
0.00408807
0.00408183
0.00407423
0.00406807
0.00406052
0.00405452
0.00404699
0.00404124
0.00403372
0.0040283
0.00402081
0.00401577
0.00400833
0.00400365
0.00399628
0.00399189
0.00398474
0.0039799
0.00397131
0.00486252
0.00483937
0.00482347
0.00480195
0.00478764
0.00476639
0.00475326
0.00473266
0.00472003
0.00470102
0.00468966
0.00467281
0.00466198
0.00464699
0.00463679
0.004623
0.00461383
0.00460015
0.00459092
0.00457722
0.00456804
0.00455442
0.00454561
0.00453309
0.00452575
0.00451453
0.00450802
0.00449754
0.00449166
0.00448176
0.00447573
0.00446553
0.00445906
0.00444827
0.00444148
0.00443061
0.00442389
0.00441344
0.00440737
0.00439781
0.00439244
0.00438381
0.00437952
0.00437176
0.0043678
0.00436009
0.00435611
0.00434817
0.00434389
0.00433549
0.00433075
0.00432205
0.00431687
0.00430778
0.00430233
0.00429316
0.00428744
0.00427819
0.00427225
0.00426288
0.00425679
0.00424738
0.00424118
0.00423172
0.00422541
0.0042159
0.00420951
0.0042
0.00419353
0.00418402
0.00417744
0.00416797
0.00416133
0.004152
0.00414538
0.00413634
0.00412983
0.00412118
0.00411481
0.00410656
0.0041003
0.00409237
0.00408618
0.00407846
0.00407235
0.00406475
0.00405877
0.00405121
0.00404543
0.00403786
0.00403236
0.00402479
0.00401961
0.00401206
0.00400723
0.00399976
0.00399528
0.00398807
0.00398314
0.00397452
0.00486546
0.00484304
0.00482767
0.00480635
0.0047921
0.00477221
0.00475844
0.00473957
0.00472627
0.00470803
0.00469635
0.00468049
0.0046709
0.00465662
0.00464774
0.00463352
0.00462433
0.00460947
0.00460014
0.00458533
0.00457654
0.00456302
0.00455536
0.00454307
0.00453631
0.00452485
0.00451846
0.00450735
0.00450103
0.00448995
0.0044833
0.0044721
0.00446518
0.00445399
0.00444728
0.00443637
0.00443025
0.00442019
0.00441496
0.00440547
0.00440081
0.00439192
0.00438749
0.00437876
0.00437427
0.00436554
0.00436114
0.00435245
0.00434805
0.00433944
0.00433497
0.00432621
0.00432157
0.00431263
0.00430764
0.00429847
0.00429326
0.00428394
0.00427862
0.00426926
0.00426376
0.00425418
0.00424841
0.00423869
0.00423264
0.00422276
0.00421646
0.00420647
0.0042
0.00418995
0.00418335
0.0041733
0.00416659
0.00415666
0.00414993
0.00414029
0.00413366
0.00412447
0.00411796
0.00410925
0.00410284
0.00409451
0.00408816
0.00408011
0.00407383
0.00406597
0.00405982
0.00405204
0.0040461
0.00403836
0.00403269
0.00402499
0.00401966
0.00401201
0.00400708
0.00399953
0.00399499
0.00398774
0.0039828
0.00397406
0.00486712
0.00484658
0.00483068
0.00481046
0.00479616
0.00477708
0.00476385
0.00474496
0.00473241
0.00471429
0.00470299
0.00468658
0.00467679
0.00466217
0.00465393
0.0046403
0.00463268
0.00461891
0.00461163
0.00459797
0.00459135
0.00457871
0.00457258
0.0045607
0.00455423
0.00454137
0.00453374
0.00451987
0.00451184
0.00449821
0.00449045
0.00447771
0.00447068
0.00445912
0.00445302
0.00444233
0.00443672
0.00442639
0.00442092
0.00441071
0.00440559
0.00439567
0.0043907
0.00438101
0.00437611
0.00436678
0.00436212
0.004353
0.00434846
0.00433949
0.00433497
0.00432604
0.00432148
0.00431226
0.00430752
0.004298
0.00429293
0.00428333
0.00427814
0.00426854
0.00426335
0.00425368
0.00424824
0.00423839
0.00423262
0.00422256
0.0042165
0.00420623
0.0042
0.00418962
0.0041833
0.00417291
0.00416656
0.00415621
0.0041499
0.00413975
0.0041336
0.00412383
0.00411786
0.00410852
0.00410269
0.00409372
0.00408795
0.00407924
0.00407348
0.00406494
0.00405914
0.00405073
0.00404494
0.00403664
0.00403098
0.00402283
0.0040174
0.00400939
0.00400431
0.00399645
0.00399176
0.00398423
0.00397917
0.00397018
0.00486878
0.00484831
0.00483404
0.00481361
0.00480007
0.00478056
0.00476831
0.00474994
0.00473839
0.00472039
0.00470954
0.00469239
0.00468295
0.00466719
0.00465898
0.00464449
0.0046372
0.0046236
0.00461683
0.00460422
0.00459813
0.00458601
0.00457991
0.00456817
0.00456171
0.00454928
0.00454189
0.00452838
0.00452041
0.0045067
0.00449895
0.00448568
0.00447845
0.00446581
0.00445891
0.00444694
0.00444041
0.00442898
0.00442284
0.00441205
0.0044065
0.00439614
0.00439099
0.004381
0.00437608
0.00436628
0.00436134
0.00435147
0.00434654
0.00433667
0.0043317
0.00432178
0.00431675
0.00430674
0.00430169
0.00429149
0.00428623
0.00427584
0.00427063
0.00426046
0.00425532
0.00424511
0.00423986
0.00422951
0.00422404
0.00421362
0.00420799
0.0041974
0.00419163
0.00418106
0.00417531
0.00416492
0.00415928
0.00414908
0.00414353
0.00413349
0.00412804
0.00411824
0.00411289
0.00410338
0.00409812
0.00408886
0.00408365
0.00407454
0.0040693
0.00406024
0.00405488
0.00404583
0.00404039
0.00403135
0.00402593
0.00401698
0.00401169
0.00400286
0.0039978
0.00398912
0.00398434
0.00397596
0.00397075
0.00396127
0.00486928
0.00484825
0.00483592
0.00481577
0.00480316
0.00478384
0.00477201
0.00475342
0.00474268
0.00472511
0.00471522
0.00469822
0.0046891
0.00467329
0.00466522
0.0046507
0.00464364
0.00462977
0.00462285
0.00460936
0.00460236
0.00458908
0.00458233
0.00456945
0.00456295
0.00454994
0.00454322
0.00453006
0.00452308
0.00450977
0.00450228
0.00448903
0.00448158
0.00446864
0.00446146
0.00444867
0.0044419
0.00442967
0.00442344
0.00441193
0.00440597
0.00439482
0.00438928
0.00437824
0.00437274
0.00436183
0.00435628
0.00434533
0.00433975
0.00432867
0.00432304
0.004312
0.00430645
0.00429542
0.00428987
0.00427887
0.00427325
0.00426237
0.00425696
0.00424627
0.00424097
0.00423051
0.00422524
0.00421478
0.00420935
0.0041988
0.00419325
0.00418272
0.00417713
0.00416676
0.00416139
0.00415128
0.00414615
0.00413636
0.00413141
0.00412195
0.00411713
0.00410788
0.00410311
0.00409393
0.00408902
0.00407984
0.00407483
0.00406556
0.00406047
0.00405109
0.00404593
0.00403645
0.00403128
0.00402175
0.00401662
0.00400708
0.00400202
0.00399252
0.00398756
0.00397813
0.00397328
0.0039641
0.00395877
0.00394884
0.0048682
0.0048474
0.00483588
0.00481581
0.0048047
0.0047854
0.00477435
0.0047557
0.00474554
0.0047279
0.00471837
0.00470148
0.00469243
0.00467633
0.00466846
0.00465361
0.00464636
0.00463219
0.00462511
0.00461091
0.00460378
0.00458956
0.0045822
0.00456808
0.00456089
0.00454719
0.00454042
0.00452715
0.00452055
0.00450749
0.00450087
0.00448768
0.00448081
0.00446756
0.00446054
0.00444727
0.00444033
0.00442734
0.00442071
0.00440822
0.00440168
0.00438963
0.00438341
0.00437142
0.0043654
0.00435364
0.00434776
0.00433603
0.00433003
0.00431828
0.0043124
0.00430075
0.00429484
0.00428336
0.00427753
0.00426614
0.0042603
0.00424907
0.00424321
0.00423217
0.00422646
0.00421561
0.00421001
0.00419924
0.00419354
0.00418282
0.0041772
0.00416656
0.00416101
0.0041506
0.00414522
0.00413511
0.00412998
0.00412014
0.00411523
0.00410567
0.00410088
0.00409153
0.00408675
0.00407753
0.00407271
0.00406353
0.00405869
0.00404949
0.00404463
0.00403539
0.00403053
0.00402128
0.00401644