/*--------------------------------*- C++ -*----------------------------------*\
  =========                 |
  \\      /  F ield         | OpenFOAM: The Open Source CFD Toolbox
   \\    /   O peration     | Website:  https://openfoam.org
    \\  /    A nd           | Version:  8
     \\/     M anipulation  |
\*---------------------------------------------------------------------------*/
FoamFile
{
    version     2.0;
    format      ascii;
    class       volScalarField;
    location    "0.999971";
    object      supersat;
}
// * * * * * * * * * * * * * * * * * * * * * * * * * * * * * * * * * * * * * //

dimensions      [0 0 0 0 0 0 0];

internalField   nonuniform List<scalar> 
6800
(
1.95452
1.9545
1.95538
1.95829
1.96464
1.9777
1.99954
2.00907
2.01254
2.01325
1.95367
1.9544
1.95736
1.96549
1.98414
2.00492
2.01198
2.01413
2.01418
2.01381
1.95425
1.95758
1.96488
1.98527
2.00618
2.01371
2.01525
2.01495
2.01388
2.0119
1.95429
1.9674
1.97844
2.00453
2.01393
2.01614
2.0159
2.01428
2.01256
2.01118
1.95197
1.9789
1.99727
2.01276
2.01681
2.01711
2.01587
2.01347
2.01211
2.01094
1.95404
1.99684
2.00523
2.01696
2.01802
2.01741
2.01518
2.01338
2.01224
2.01198
1.95803
2.00368
2.0154
2.02188
2.01936
2.01754
2.0155
2.01374
2.01274
2.01218
1.97065
2.02353
2.02261
2.02391
2.01969
2.01757
2.01549
2.01397
2.01339
2.01365
1.9878
2.02992
2.02465
2.0263
2.02038
2.01812
2.01546
2.01446
2.01398
2.01381
2.0013
2.04134
2.02841
2.02827
2.02382
2.01866
2.01556
2.01434
2.01457
2.01422
1.95496
1.95466
1.95447
1.95443
1.95447
1.95454
1.95465
1.95478
1.95491
1.95503
1.95493
1.95466
1.95448
1.95444
1.95447
1.95454
1.95466
1.95479
1.95494
1.95509
1.95494
1.95465
1.95449
1.95446
1.95449
1.95457
1.95468
1.95484
1.95501
1.95522
1.95494
1.95466
1.95452
1.95448
1.95452
1.9546
1.95472
1.95487
1.95506
1.95535
1.9549
1.95465
1.95454
1.95452
1.95458
1.95468
1.95482
1.95496
1.95513
1.95542
1.95482
1.95462
1.95455
1.95458
1.95471
1.95491
1.95516
1.95535
1.95538
1.95556
1.95473
1.95458
1.95456
1.95472
1.95501
1.95548
1.95601
1.95657
1.95678
1.95781
1.95463
1.95452
1.95464
1.95492
1.95546
1.95648
1.95746
1.95904
1.96072
1.96749
1.95451
1.95447
1.95474
1.95521
1.9562
1.95844
1.96078
1.96627
1.97234
1.99031
1.95473
1.95451
1.95476
1.95586
1.95828
1.96328
1.97063
1.98543
2.001
2.00993
1.95518
1.95535
1.95548
1.95557
1.9556
1.9556
1.95556
1.95549
1.9554
1.95528
1.95516
1.95503
1.9549
1.95478
1.95467
1.95458
1.95452
1.95448
1.95447
1.95449
1.95455
1.95465
1.95478
1.95495
1.95515
1.95537
1.95563
1.95592
1.95623
1.95657
1.95693
1.95731
1.9577
1.95811
1.95852
1.95896
1.9594
1.95984
1.96029
1.96075
1.96121
1.96167
1.96213
1.96259
1.96305
1.96351
1.96396
1.9644
1.96484
1.96527
1.96569
1.96611
1.96652
1.96691
1.9673
1.96768
1.96806
1.96842
1.96877
1.96911
1.96944
1.96975
1.97006
1.97035
1.97064
1.97091
1.97117
1.97142
1.97167
1.9719
1.97213
1.97235
1.97257
1.97278
1.97299
1.97319
1.97339
1.97358
1.97377
1.97396
1.97414
1.97431
1.97448
1.97465
1.97481
1.97496
1.97512
1.97526
1.9754
1.97554
1.97568
1.9758
1.97594
1.97605
1.97619
1.97629
1.97643
1.97653
1.97666
1.9768
1.95528
1.95549
1.95565
1.95576
1.95581
1.95582
1.95579
1.95572
1.95562
1.9555
1.95535
1.9552
1.95505
1.95491
1.95477
1.95465
1.95455
1.95449
1.95445
1.95444
1.95446
1.95452
1.95462
1.95475
1.95492
1.95512
1.95535
1.95562
1.95591
1.95623
1.95658
1.95694
1.95732
1.95772
1.95814
1.95857
1.95901
1.95945
1.9599
1.96036
1.96082
1.96129
1.96176
1.96222
1.96269
1.96315
1.96361
1.96406
1.9645
1.96494
1.96536
1.96578
1.96619
1.9666
1.96699
1.96738
1.96775
1.96812
1.96847
1.96881
1.96914
1.96946
1.96977
1.97007
1.97035
1.97063
1.97089
1.97115
1.97139
1.97163
1.97186
1.97209
1.97231
1.97253
1.97274
1.97294
1.97314
1.97334
1.97353
1.97372
1.97391
1.97408
1.97426
1.97443
1.97459
1.97475
1.9749
1.97505
1.97519
1.97533
1.97547
1.9756
1.97574
1.97586
1.97599
1.9761
1.97624
1.97634
1.97648
1.97663
1.95544
1.95574
1.95596
1.95611
1.9562
1.95623
1.9562
1.95612
1.956
1.95586
1.95569
1.95551
1.95532
1.95513
1.95495
1.95479
1.95464
1.95451
1.95441
1.95435
1.95431
1.95431
1.95435
1.95442
1.95454
1.9547
1.95488
1.95511
1.95537
1.95566
1.95597
1.95632
1.95668
1.95707
1.95748
1.9579
1.95834
1.95878
1.95924
1.95971
1.96018
1.96065
1.96113
1.9616
1.96208
1.96255
1.96301
1.96347
1.96392
1.96436
1.9648
1.96523
1.96565
1.96606
1.96646
1.96685
1.96723
1.9676
1.96796
1.9683
1.96864
1.96896
1.96927
1.96957
1.96986
1.97014
1.97041
1.97067
1.97092
1.97116
1.9714
1.97163
1.97186
1.97208
1.9723
1.97251
1.97272
1.97292
1.97312
1.97331
1.9735
1.97368
1.97386
1.97403
1.9742
1.97436
1.97452
1.97467
1.97482
1.97496
1.97511
1.97524
1.97538
1.97551
1.97565
1.97577
1.97591
1.97602
1.97616
1.97632
1.95562
1.95605
1.95635
1.95656
1.95669
1.95675
1.95673
1.95665
1.95651
1.95634
1.95615
1.95593
1.9557
1.95545
1.95521
1.95499
1.95478
1.95459
1.95442
1.95429
1.95419
1.95412
1.9541
1.95412
1.95418
1.95428
1.95444
1.95461
1.95483
1.95509
1.95538
1.9557
1.95606
1.95643
1.95683
1.95726
1.95771
1.95815
1.95862
1.95909
1.95957
1.96005
1.96053
1.96101
1.96149
1.96197
1.96244
1.9629
1.96336
1.96381
1.96425
1.96468
1.9651
1.96552
1.96592
1.96632
1.9667
1.96707
1.96743
1.96778
1.96811
1.96843
1.96874
1.96904
1.96933
1.96961
1.96988
1.97014
1.97039
1.97064
1.97089
1.97112
1.97135
1.97158
1.9718
1.97202
1.97223
1.97244
1.97264
1.97284
1.97303
1.97321
1.97339
1.97357
1.97374
1.97391
1.97407
1.97422
1.97438
1.97452
1.97467
1.97481
1.97496
1.97509
1.97524
1.97536
1.97551
1.97564
1.97577
1.97596
1.95583
1.95647
1.95687
1.95714
1.95731
1.95739
1.95737
1.95728
1.95713
1.95694
1.9567
1.95645
1.95618
1.95589
1.95561
1.95533
1.95508
1.95485
1.95464
1.95445
1.9543
1.95419
1.95411
1.95408
1.9541
1.95417
1.95431
1.95447
1.95466
1.95491
1.95519
1.95551
1.95586
1.95624
1.95664
1.95707
1.95753
1.95798
1.95845
1.95893
1.95941
1.95989
1.96038
1.96086
1.96134
1.96181
1.96228
1.96274
1.9632
1.96364
1.96408
1.9645
1.96492
1.96533
1.96573
1.96611
1.96648
1.96685
1.9672
1.96753
1.96786
1.96817
1.96847
1.96876
1.96903
1.9693
1.96957
1.96982
1.97007
1.97031
1.97055
1.97079
1.97102
1.97124
1.97146
1.97168
1.97189
1.97209
1.97229
1.97249
1.97268
1.97286
1.97304
1.97321
1.97338
1.97354
1.9737
1.97386
1.97401
1.97416
1.97431
1.97446
1.9746
1.97474
1.97489
1.97502
1.97517
1.97531
1.97544
1.97564
1.9564
1.95718
1.95772
1.95803
1.95821
1.95829
1.95825
1.95814
1.95797
1.95774
1.95749
1.95724
1.95696
1.95668
1.95639
1.95611
1.95587
1.95564
1.95543
1.95525
1.95509
1.95498
1.9549
1.95488
1.95491
1.95499
1.95516
1.95533
1.95553
1.95579
1.95609
1.95643
1.9568
1.9572
1.95762
1.95806
1.95852
1.95899
1.95945
1.95992
1.96039
1.96085
1.96132
1.96179
1.96224
1.96269
1.96314
1.96357
1.964
1.96441
1.96482
1.96521
1.9656
1.96597
1.96635
1.9667
1.96703
1.96736
1.96768
1.96798
1.96827
1.96855
1.96881
1.96907
1.96932
1.96956
1.9698
1.97003
1.97026
1.97048
1.9707
1.97092
1.97113
1.97134
1.97154
1.97174
1.97194
1.97213
1.97231
1.97249
1.97267
1.97284
1.973
1.97316
1.97332
1.97347
1.97363
1.97377
1.97392
1.97407
1.97421
1.97435
1.97449
1.97463
1.97478
1.97491
1.97505
1.97521
1.97532
1.97553
1.95887
1.95919
1.95974
1.95988
1.95997
1.95995
1.95987
1.95973
1.95955
1.95934
1.95909
1.95888
1.95866
1.95848
1.95827
1.9581
1.95797
1.95786
1.95775
1.95766
1.9576
1.95759
1.95761
1.95768
1.95782
1.95801
1.95822
1.95844
1.95872
1.95903
1.95938
1.95975
1.96014
1.96056
1.96099
1.96143
1.96186
1.96232
1.96274
1.96315
1.96356
1.96396
1.96436
1.96476
1.96514
1.96552
1.96589
1.96624
1.96659
1.96692
1.96724
1.96756
1.96785
1.96815
1.96845
1.96871
1.96896
1.96922
1.96946
1.96969
1.9699
1.9701
1.9703
1.97048
1.97067
1.97085
1.97103
1.97121
1.97138
1.97156
1.97173
1.97191
1.97208
1.97224
1.97241
1.97257
1.97273
1.97288
1.97303
1.97317
1.97331
1.97345
1.97359
1.97372
1.97385
1.97398
1.97411
1.97423
1.97436
1.97448
1.97461
1.97474
1.97486
1.97499
1.97512
1.97525
1.97537
1.97552
1.97562
1.97583
1.96711
1.96639
1.96569
1.96522
1.96473
1.96441
1.9641
1.96389
1.96367
1.96354
1.96337
1.96332
1.96329
1.9633
1.96332
1.96345
1.96362
1.96377
1.96392
1.96408
1.96431
1.96458
1.96481
1.96516
1.96542
1.96574
1.96611
1.96645
1.96684
1.96719
1.96756
1.96792
1.96828
1.96865
1.96899
1.96934
1.96964
1.96997
1.97023
1.97047
1.9707
1.9709
1.97111
1.97133
1.97152
1.9717
1.97188
1.97204
1.97219
1.97233
1.97246
1.97258
1.9727
1.97282
1.97294
1.97304
1.97315
1.97324
1.97333
1.9734
1.97347
1.97353
1.97359
1.97366
1.97372
1.97379
1.97387
1.97395
1.97403
1.97411
1.97419
1.97428
1.97436
1.97445
1.97453
1.97461
1.97469
1.97477
1.97485
1.97493
1.975
1.97508
1.97516
1.97524
1.97532
1.9754
1.97548
1.97556
1.97565
1.97573
1.97582
1.97591
1.976
1.9761
1.97619
1.9763
1.97639
1.97652
1.9766
1.97677
1.98903
1.98627
1.98389
1.98207
1.98036
1.97908
1.97807
1.97725
1.9767
1.97636
1.97615
1.9763
1.97662
1.97699
1.97744
1.97796
1.97861
1.97921
1.97986
1.9806
1.98121
1.98187
1.98246
1.98302
1.98355
1.98399
1.98443
1.98473
1.98505
1.98525
1.98546
1.98559
1.98571
1.98578
1.9858
1.98581
1.98574
1.98567
1.98554
1.98534
1.98511
1.98484
1.98458
1.98434
1.98404
1.98376
1.98345
1.98317
1.98286
1.98257
1.98229
1.98198
1.9817
1.98146
1.98122
1.98099
1.98079
1.98057
1.98037
1.98017
1.97999
1.97982
1.97967
1.97953
1.9794
1.97928
1.97918
1.97907
1.97897
1.97888
1.9788
1.97872
1.97864
1.97858
1.97851
1.97846
1.9784
1.97835
1.97831
1.97827
1.97824
1.97822
1.97821
1.97819
1.97819
1.97818
1.97818
1.97818
1.97819
1.9782
1.97822
1.97825
1.97827
1.97832
1.97835
1.97841
1.97845
1.97853
1.97857
1.97866
2.00844
2.00754
2.0059
2.00475
2.00366
2.00275
2.00199
2.0014
2.00091
2.00052
2.00027
2.00004
1.99991
1.99963
1.99949
1.99919
1.99894
1.99862
1.99822
1.9979
1.99751
1.99722
1.99691
1.99668
1.99648
1.99631
1.99622
1.99608
1.99605
1.99595
1.99594
1.99589
1.99587
1.99584
1.99582
1.99582
1.99576
1.99575
1.99573
1.99568
1.99554
1.99551
1.99544
1.99537
1.9953
1.99517
1.99503
1.99491
1.99478
1.99465
1.99447
1.99425
1.99402
1.99375
1.99346
1.99312
1.99277
1.9924
1.99201
1.99158
1.99114
1.99068
1.9902
1.98975
1.98926
1.98879
1.98832
1.98786
1.9874
1.98697
1.98656
1.98617
1.98581
1.98547
1.98514
1.98484
1.98457
1.98431
1.98407
1.98385
1.98365
1.98346
1.98328
1.98312
1.98297
1.98284
1.98271
1.98259
1.98248
1.98239
1.98229
1.98221
1.98214
1.98208
1.98203
1.98199
1.98196
1.98192
1.9819
1.98186
2.01248
2.01217
2.01142
2.01088
2.0104
2.00997
2.00952
2.00914
2.00871
2.00824
2.00779
2.00721
2.00664
2.00586
2.00519
2.00435
2.0036
2.0028
2.002
2.0013
2.00059
2.00003
1.99949
1.99908
1.99872
1.99841
1.99818
1.99796
1.99783
1.99766
1.99758
1.9975
1.99743
1.99739
1.99736
1.99735
1.9973
1.99734
1.99736
1.99734
1.99735
1.99742
1.99746
1.99756
1.9976
1.99764
1.99768
1.99773
1.99779
1.9979
1.99798
1.99809
1.99818
1.99825
1.99826
1.99826
1.99825
1.99825
1.99823
1.99817
1.99812
1.99806
1.99799
1.9979
1.99778
1.99762
1.9974
1.99714
1.99685
1.99652
1.99616
1.99577
1.99537
1.99494
1.99452
1.99408
1.99364
1.9932
1.99276
1.99232
1.99189
1.99147
1.99106
1.99065
1.99027
1.98991
1.98956
1.98924
1.98893
1.98864
1.98837
1.98812
1.98789
1.98768
1.98749
1.9873
1.98716
1.98699
1.98691
1.98662
2.01167
2.01162
2.01126
2.01097
2.01065
2.0103
2.00988
2.00951
2.00905
2.00859
2.00808
2.00745
2.00679
2.00598
2.00524
2.00435
2.00356
2.00272
2.00199
2.00132
2.00067
2.00019
1.99971
1.99936
1.99902
1.99874
1.9985
1.99829
1.99814
1.99798
1.99788
1.9978
1.9977
1.99766
1.99765
1.99758
1.99759
1.9976
1.9976
1.99765
1.9977
1.99773
1.99784
1.99788
1.99788
1.99795
1.998
1.99805
1.99811
1.9982
1.99831
1.99842
1.99855
1.99862
1.99873
1.99877
1.99886
1.99893
1.99901
1.99909
1.99917
1.99928
1.99936
1.99945
1.99953
1.9996
1.99964
1.99967
1.99972
1.99971
1.99969
1.99961
1.99951
1.99937
1.99925
1.99909
1.99897
1.99881
1.99869
1.99852
1.99838
1.99819
1.99803
1.99781
1.99761
1.99736
1.99714
1.99686
1.99661
1.99629
1.99602
1.99569
1.99542
1.99507
1.99481
1.99445
1.99421
1.99384
1.99359
1.99321
2.01061
2.01067
2.01037
2.01013
2.00985
2.00948
2.00911
2.00872
2.0083
2.00782
2.00729
2.00667
2.00603
2.00533
2.00464
2.00394
2.0033
2.00264
2.00203
2.00145
2.00094
2.00053
2.00011
1.9998
1.9995
1.99925
1.99905
1.99883
1.99868
1.9985
1.9984
1.99828
1.99817
1.99814
1.99808
1.99801
1.99801
1.99798
1.99797
1.99798
1.998
1.99805
1.9981
1.99809
1.99808
1.99809
1.99813
1.99816
1.99823
1.99828
1.99838
1.99845
1.99857
1.99864
1.99875
1.99881
1.99891
1.99897
1.99906
1.99914
1.99921
1.99932
1.99939
1.9995
1.99957
1.99967
1.99974
1.99978
1.99988
1.99992
1.99996
1.99999
1.99999
2.00005
2
2.00008
2.00005
2.00003
1.99989
1.99973
1.99975
1.99969
1.99965
1.99965
1.99964
1.99966
1.99967
1.99965
1.99964
1.99959
1.99956
1.99954
1.99952
1.99945
1.9994
1.9993
1.99923
1.99909
1.99898
1.99881
2.01017
2.01021
2.00992
2.00977
2.00951
2.00908
2.00864
2.00821
2.00783
2.00742
2.00698
2.00647
2.0059
2.00529
2.00467
2.00407
2.00347
2.00291
2.00241
2.00193
2.00154
2.00114
2.00078
2.0005
2.00017
1.99994
1.99962
1.99939
1.99912
1.99888
1.9987
1.9985
1.99836
1.99828
1.99818
1.99811
1.9981
1.99803
1.99801
1.99791
1.99796
1.99799
1.99808
1.99809
1.99811
1.99812
1.9981
1.99812
1.99817
1.99823
1.99829
1.99838
1.99847
1.99858
1.99866
1.99877
1.99883
1.99894
1.999
1.9991
1.99916
1.99926
1.99931
1.99941
1.99945
1.99953
1.99957
1.99965
1.99971
1.99976
1.99985
1.99989
1.99993
1.99996
1.99995
2.00001
1.99998
1.99999
1.99991
1.99994
1.99992
1.9998
1.99982
1.99976
1.99973
1.99975
1.99977
1.99981
1.99985
1.99988
1.99992
1.99995
1.99998
2
2.00003
2.00005
2.00006
2.00007
2.00008
2.00008
2.00984
2.00978
2.0094
2.0094
2.00931
2.00901
2.00857
2.00809
2.00763
2.00724
2.00684
2.00641
2.0059
2.00536
2.00477
2.00419
2.00365
2.0031
2.00262
2.00214
2.00176
2.00135
2.00103
2.00073
2.00039
2.00013
1.99978
1.99953
1.99921
1.99894
1.99873
1.99849
1.99835
1.99823
1.99814
1.99807
1.99803
1.99796
1.99794
1.9979
1.9979
1.99791
1.99798
1.998
1.99803
1.99804
1.99802
1.99803
1.99807
1.99814
1.99821
1.9983
1.9984
1.99849
1.99858
1.99867
1.99873
1.99882
1.99887
1.99896
1.99901
1.99907
1.99913
1.99917
1.99925
1.9993
1.99934
1.99939
1.99945
1.99949
1.99951
1.99959
1.99961
1.99963
1.99959
1.99964
1.99959
1.99956
1.99957
1.99957
1.99959
1.99961
1.99962
1.99965
1.99966
1.9997
1.99972
1.99975
1.99978
1.9998
1.99983
1.99986
1.99988
1.99991
1.99994
1.99996
1.99998
2.00002
2.00003
2.0001
2.00929
2.00924
2.00818
2.00804
2.00824
2.00838
2.00818
2.00779
2.00733
2.00687
2.00642
2.00599
2.00551
2.00502
2.0045
2.00394
2.00343
2.0029
2.00246
2.00204
2.00169
2.00137
2.00108
2.00077
2.00045
2.00018
1.99985
1.99956
1.99921
1.99892
1.99865
1.99838
1.99826
1.99811
1.998
1.99796
1.99792
1.99786
1.99786
1.99787
1.99783
1.99788
1.99786
1.99785
1.99791
1.99793
1.99795
1.99796
1.99799
1.99806
1.99814
1.99823
1.9983
1.99837
1.99842
1.99847
1.99851
1.99856
1.99862
1.99866
1.99871
1.99878
1.99881
1.9989
1.99895
1.99905
1.99909
1.99916
1.99925
1.9992
1.99925
1.99919
1.99918
1.99921
1.99925
1.9993
1.99935
1.9994
1.99945
1.99949
1.99953
1.99957
1.99961
1.99965
1.99968
1.99971
1.99974
1.99976
1.99979
1.99981
1.99984
1.99986
1.99988
1.9999
1.99992
1.99995
1.99997
2
2.00002
2.00004
2.00869
2.00858
2.00784
2.00743
2.00679
2.00668
2.00703
2.00708
2.0068
2.00632
2.00578
2.00526
2.0048
2.00435
2.00392
2.00345
2.00298
2.0025
2.00207
2.00167
2.00133
2.00104
2.00079
2.00056
2.00037
2.00014
1.9999
1.99959
1.99925
1.99891
1.99858
1.99829
1.99809
1.99791
1.99781
1.99779
1.99774
1.99773
1.99775
1.9977
1.99769
1.99778
1.99773
1.99781
1.99783
1.99788
1.99791
1.99792
1.99792
1.99794
1.99801
1.99811
1.99819
1.99825
1.99829
1.9983
1.99834
1.99836
1.99841
1.99847
1.99852
1.99856
1.99859
1.99862
1.99864
1.99867
1.99875
1.99877
1.9988
1.99882
1.9988
1.9988
1.99884
1.9989
1.99897
1.99904
1.99912
1.99918
1.99925
1.9993
1.99936
1.9994
1.99945
1.99948
1.99952
1.99955
1.99958
1.99961
1.99964
1.99966
1.99968
1.99971
1.99972
1.99975
1.99976
1.99979
1.9998
1.99983
1.99984
1.9999
2.00797
2.00797
2.00753
2.00705
2.00687
2.00679
2.00675
2.00663
2.00631
2.00584
2.0053
2.0048
2.00439
2.00398
2.0036
2.00313
2.00268
2.00213
2.0017
2.00128
2.00097
2.00074
2.00059
2.00045
2.00034
2.00016
1.99999
1.99968
1.99935
1.99897
1.99855
1.99827
1.99801
1.99783
1.99777
1.99769
1.99768
1.99768
1.99767
1.99759
1.99759
1.99767
1.99773
1.99782
1.99777
1.99779
1.99779
1.99779
1.9978
1.99776
1.99777
1.99783
1.9979
1.99796
1.99802
1.99805
1.99806
1.99809
1.99814
1.99819
1.99823
1.99825
1.99828
1.99829
1.99832
1.99833
1.99835
1.99842
1.99844
1.99841
1.99841
1.99844
1.9985
1.99858
1.99867
1.99875
1.99883
1.99891
1.99897
1.99903
1.99908
1.99911
1.99915
1.99918
1.99919
1.99922
1.99924
1.99926
1.99929
1.99931
1.99934
1.99938
1.99941
1.99942
1.99944
1.99945
1.99947
1.99951
1.99953
1.99957
2.00711
2.0072
2.00696
2.00642
2.00616
2.00597
2.00578
2.00582
2.00559
2.00531
2.00488
2.00446
2.0041
2.00366
2.00334
2.00284
2.00234
2.00181
2.00136
2.00092
2.00057
2.0003
2.00015
2.00003
1.9999
1.99979
1.99972
1.99953
1.99923
1.99886
1.99848
1.99819
1.99792
1.99775
1.99768
1.9976
1.99759
1.99758
1.99756
1.99749
1.99754
1.9976
1.9977
1.99765
1.99762
1.99766
1.99766
1.99767
1.99764
1.99765
1.99761
1.99757
1.99765
1.99768
1.99776
1.99779
1.99781
1.9978
1.99776
1.99778
1.99782
1.99785
1.99787
1.99788
1.99789
1.99789
1.99791
1.99793
1.99796
1.998
1.99806
1.99813
1.99822
1.99831
1.99841
1.99851
1.9986
1.99869
1.99876
1.99883
1.99889
1.99893
1.99897
1.99899
1.99902
1.99903
1.99905
1.99907
1.99909
1.99911
1.99913
1.99915
1.99917
1.9992
1.99921
1.99924
1.99926
1.9993
1.99933
1.99936
2.00613
2.00623
2.00631
2.00588
2.00565
2.00529
2.00468
2.00449
2.00463
2.00463
2.00434
2.00399
2.00363
2.00309
2.00279
2.00229
2.00188
2.00149
2.00115
2.00082
2.00047
2.00025
2.00007
1.99983
1.99943
1.99901
1.99892
1.99906
1.99897
1.99871
1.99846
1.99816
1.99793
1.9978
1.99772
1.99768
1.99767
1.99768
1.99765
1.99761
1.99765
1.99768
1.99767
1.99747
1.99754
1.99755
1.99761
1.99762
1.99756
1.99764
1.99758
1.99751
1.9975
1.99759
1.99758
1.99766
1.99764
1.99759
1.99754
1.99758
1.99762
1.99765
1.99767
1.99768
1.99771
1.99773
1.99777
1.99779
1.99783
1.99786
1.99791
1.99796
1.99804
1.99813
1.99823
1.99835
1.99846
1.99857
1.99867
1.99875
1.99883
1.99889
1.99894
1.99897
1.99901
1.99903
1.99906
1.99908
1.99909
1.99911
1.99912
1.99914
1.99915
1.99917
1.99918
1.9992
1.99921
1.99924
1.99926
1.99928
2.00532
2.00526
2.00539
2.0054
2.00505
2.0048
2.00438
2.00379
2.00364
2.00381
2.00384
2.00358
2.00317
2.00263
2.00211
2.00156
2.00112
2.00084
2.00058
2.00053
2.00032
2.00019
1.99992
1.99979
1.99948
1.99936
1.99908
1.99889
1.99854
1.99832
1.99809
1.99795
1.99787
1.99785
1.99784
1.99787
1.99788
1.99791
1.99781
1.99781
1.99777
1.99776
1.99766
1.99753
1.99767
1.99759
1.99763
1.99761
1.99763
1.99756
1.99763
1.99756
1.99752
1.99747
1.99758
1.99761
1.9977
1.99775
1.99771
1.9977
1.99765
1.99765
1.99761
1.99757
1.99758
1.99761
1.99764
1.99769
1.99772
1.99777
1.99781
1.99788
1.99794
1.99805
1.99816
1.99829
1.99842
1.99855
1.99868
1.99879
1.99889
1.99898
1.99906
1.99911
1.99917
1.9992
1.99924
1.99927
1.9993
1.99932
1.99934
1.99935
1.99936
1.99938
1.99939
1.99941
1.99942
1.99944
1.99944
1.99949
2.0048
2.00436
2.00449
2.00453
2.00446
2.00421
2.00387
2.00363
2.00348
2.00331
2.00319
2.00303
2.00275
2.00233
2.00187
2.00133
2.00077
2.00038
1.99992
1.99973
1.99925
1.99903
1.99853
1.99813
1.99769
1.99736
1.99703
1.99697
1.99677
1.9968
1.99684
1.9971
1.9971
1.99721
1.99731
1.99767
1.9977
1.99787
1.99793
1.99796
1.99784
1.99783
1.99768
1.99768
1.99773
1.99771
1.9977
1.99779
1.99779
1.99783
1.99782
1.99778
1.99777
1.99776
1.9977
1.99772
1.9978
1.9979
1.99805
1.998
1.99788
1.99786
1.99775
1.99778
1.99774
1.99773
1.99777
1.99782
1.99787
1.99794
1.998
1.99805
1.99813
1.99822
1.99834
1.99848
1.99861
1.99875
1.99888
1.99901
1.99912
1.99921
1.99929
1.99935
1.9994
1.99944
1.99948
1.9995
1.99954
1.99956
1.99959
1.99961
1.99963
1.99965
1.99966
1.99968
1.99969
1.99971
1.99973
1.99974
2.00423
2.00392
2.00368
2.00373
2.00372
2.00372
2.00344
2.00321
2.00293
2.00278
2.00256
2.00243
2.00214
2.00187
2.00151
2.00113
2.00062
2.0002
1.99974
1.99938
1.99892
1.99865
1.99825
1.99767
1.99738
1.99684
1.99665
1.99644
1.99653
1.99653
1.99651
1.99703
1.99702
1.99758
1.99749
1.99766
1.99776
1.99788
1.99792
1.99792
1.9979
1.99792
1.99773
1.99784
1.9978
1.9978
1.99784
1.9979
1.9979
1.99795
1.99796
1.998
1.99801
1.99797
1.99794
1.99797
1.99813
1.99835
1.99847
1.99852
1.99852
1.99856
1.99851
1.99858
1.99856
1.99846
1.9985
1.99848
1.9985
1.99858
1.99865
1.99873
1.99879
1.9988
1.99885
1.99893
1.99902
1.99911
1.99922
1.99932
1.99942
1.99949
1.99955
1.99959
1.99962
1.99964
1.99966
1.99968
1.99971
1.99974
1.99977
1.99979
1.99982
1.99985
1.99987
1.9999
1.99992
1.99995
1.99996
1.99998
2.00365
2.0036
2.0032
2.00293
2.00293
2.00266
2.0027
2.00268
2.00246
2.00225
2.00202
2.00181
2.0016
2.00136
2.00108
2.00067
2.00023
1.99984
1.99947
1.99905
1.99885
1.9985
1.99831
1.99808
1.99789
1.99778
1.99761
1.99742
1.99723
1.99714
1.99716
1.99717
1.99724
1.99718
1.99733
1.99746
1.99758
1.99764
1.99769
1.99779
1.99793
1.99792
1.99798
1.9982
1.99821
1.99822
1.99829
1.99829
1.99836
1.99844
1.99857
1.99853
1.99854
1.99849
1.99848
1.99849
1.99862
1.99872
1.99876
1.99887
1.9989
1.99892
1.99894
1.99891
1.99892
1.99896
1.99903
1.99912
1.99926
1.99937
1.99949
1.99961
1.99968
1.99978
1.99985
1.99988
1.99997
1.99998
1.99991
1.99993
1.99988
1.99982
1.99983
1.99981
1.9998
1.99986
1.99989
1.99994
1.99998
2
2.00005
2.00003
2.00005
2.00003
2.00002
2.00003
2.00005
2.00007
2.00008
2.0001
2.00316
2.00312
2.00287
2.00277
2.00247
2.00222
2.00204
2.00193
2.00194
2.00191
2.00182
2.0016
2.00138
2.00117
2.00082
2.00053
2.00009
1.99974
1.99942
1.99913
1.99888
1.99872
1.99867
1.99862
1.99856
1.99855
1.99847
1.99842
1.99829
1.99815
1.99801
1.99789
1.99789
1.9979
1.99795
1.99809
1.99823
1.99841
1.99846
1.9985
1.99865
1.99857
1.99865
1.9988
1.99882
1.99886
1.99886
1.99891
1.99904
1.99921
1.99922
1.99926
1.99926
1.99921
1.99914
1.99916
1.99916
1.99919
1.99931
1.99936
1.99944
1.99945
1.99943
1.99943
1.9995
1.99956
1.9996
1.9997
1.99979
1.9999
2.00001
2.00011
2.0002
2.0003
2.00036
2.00041
2.00042
2.00048
2.00045
2.00047
2.00047
2.00044
2.00042
2.0004
2.00036
2.00035
2.00038
2.0004
2.00043
2.00047
2.00047
2.00044
2.00041
2.00039
2.00037
2.00037
2.00035
2.00034
2.00034
2.00037
2.00258
2.0024
2.00243
2.00255
2.00222
2.00187
2.00167
2.00108
2.0012
2.00147
2.00146
2.00152
2.00137
2.00116
2.00083
2.0006
2.00026
1.99988
1.99956
1.99933
1.99912
1.99899
1.99891
1.9988
1.99861
1.99859
1.99851
1.99854
1.99864
1.99869
1.9987
1.99868
1.99872
1.9988
1.99887
1.99896
1.99899
1.99908
1.99909
1.99915
1.99921
1.99917
1.99922
1.99929
1.99934
1.99941
1.99943
1.99941
1.99949
1.99962
1.99973
1.99974
1.99989
1.99988
1.99986
1.99986
1.99982
1.99974
1.99979
1.99988
1.99992
1.99994
1.99992
1.99992
1.99994
1.99999
2.00002
2.00002
2.00002
2.00007
2.00013
2.00015
2.00025
2.00033
2.00038
2.00043
2.00047
2.0005
2.00055
2.00056
2.00058
2.00056
2.00053
2.00052
2.00051
2.00053
2.00056
2.00058
2.00061
2.00062
2.00063
2.00063
2.00061
2.00061
2.00058
2.00055
2.00055
2.00053
2.00053
2.00052
2.00189
2.00151
2.00168
2.00188
2.00184
2.00172
2.00188
2.00148
2.00121
2.00101
2.0009
2.0009
2.001
2.00103
2.00079
2.00063
2.00044
2.00024
1.99994
1.99967
1.99951
1.99936
1.99922
1.99915
1.99913
1.99914
1.99917
1.99919
1.99921
1.99923
1.99927
1.99928
1.99936
1.99942
1.99947
1.99953
1.9996
1.99963
1.99963
1.99971
1.99971
1.99979
1.99981
1.99983
1.99983
1.99991
1.99995
1.99988
1.99991
2.00001
2.00007
2.00015
2.0002
2.00023
2.00025
2.00024
2.00015
2.00011
2.00012
2.0001
2.00011
2.00011
2.00009
2.00009
2.00009
2.00009
2.0001
2.0001
2.00013
2.00011
2.00009
2.00009
2.00013
2.00022
2.00024
2.00026
2.0003
2.00035
2.00041
2.00045
2.00047
2.00047
2.00045
2.00046
2.00045
2.00045
2.00046
2.00049
2.00053
2.00055
2.00057
2.00058
2.00058
2.00058
2.00057
2.00058
2.00056
2.00056
2.00055
2.00055
2.00132
2.00124
2.00126
2.0011
2.0011
2.00122
2.00145
2.00118
2.00096
2.00073
2.00064
2.00068
2.00075
2.00072
2.00069
2.00071
2.00064
2.00054
2.00031
2.00017
2.00005
1.99988
1.99977
1.99974
1.99969
1.99969
1.99969
1.99973
1.99979
1.99987
1.99993
1.99995
1.99999
2.00005
2.00004
2.00008
2.00011
2.0001
2.00012
2.00015
2.00019
2.00022
2.00026
2.00025
2.00018
2.00028
2.00024
2.00011
2.00013
2.00011
2.00015
2.00024
2.00027
2.0003
2.00028
2.00028
2.00024
2.00024
2.00021
2.00017
2.00018
2.00017
2.00014
2.0001
2.00011
2.0001
2.00007
2.00017
2.00013
2.0001
2.0001
2.0001
2.00006
2.00007
2.00005
2.00006
2.00007
2.00006
2.00011
2.00018
2.00023
2.00024
2.00024
2.00025
2.00027
2.00026
2.00028
2.00031
2.00035
2.00038
2.0004
2.0004
2.0004
2.0004
2.00041
2.00041
2.0004
2.00041
2.00041
2.00041
2.00083
2.00101
2.00113
2.00091
2.00064
2.00111
2.00073
2.00085
2.00066
2.00057
2.00042
2.0004
2.00034
2.00035
2.00039
2.00051
2.00048
2.00047
2.00043
2.00045
2.00043
2.00034
2.00028
2.00024
2.00016
2.00011
2.00012
2.00015
2.00019
2.00023
2.00024
2.00025
2.00028
2.00029
2.00027
2.00031
2.00032
2.00029
2.0003
2.00032
2.00033
2.00032
2.00035
2.00034
2.00033
2.00028
2.00023
2.00018
2.00022
2.00016
2.00017
2.00016
2.00017
2.0002
2.0002
2.00023
2.00019
2.00021
2.00016
2.00014
2.00015
2.00008
2.00008
2.00006
2.00005
2.00004
2.00003
2.00003
2.00003
2.00001
2.00001
1.99998
1.99998
1.99998
1.99995
1.99994
1.99995
1.99994
1.99995
1.99999
2.00003
2.00003
2.00005
2.00007
2.00009
2.00009
2.0001
2.00012
2.00016
2.0002
2.00023
2.00024
2.00025
2.00025
2.00025
2.00025
2.00026
2.00027
2.00027
2.00027
2.00018
2.00034
2.00017
2.00025
2.00008
2.00044
2.00018
2.00032
2.00022
2.00022
2.00017
2.00017
2.00016
2.00017
2.00036
2.00048
2.00051
2.00052
2.00054
2.0006
2.00056
2.0005
2.00046
2.00042
2.00033
2.00028
2.00024
2.00026
2.0003
2.00032
2.00034
2.00037
2.00035
2.00037
2.00037
2.00037
2.00038
2.00035
2.00037
2.00037
2.00036
2.00032
2.00031
2.00029
2.00026
2.00022
2.0002
2.00018
2.00019
2.00018
2.00018
2.00012
2.00011
2.00011
2.00012
2.00011
2.00005
2.00006
2.00002
2.00001
2.00001
1.99998
1.99997
1.99997
1.99994
1.99993
1.99993
1.99991
1.99992
1.99991
1.9999
1.99989
1.99989
1.99989
1.99988
1.99987
1.99987
1.9999
1.99992
1.99995
1.99999
1.99999
2
2.00001
2.00002
2.00003
2.00003
2.00004
2.00007
2.0001
2.00012
2.00013
2.00015
2.00016
2.00016
2.00016
2.00017
2.00018
2.00018
2.00018
2.0119
2.01258
2.01266
2.01213
2.01215
2.0112
2.01089
2.01083
2.01185
2.01311
2.01035
2.01082
2.01059
2.01134
2.0118
2.01146
2.01104
2.01049
2.01047
2.01198
2.00969
2.00991
2.00973
2.01076
2.01079
2.01127
2.01097
2.01072
2.01029
2.01086
2.00883
2.00878
2.00922
2.00977
2.0097
2.01025
2.01057
2.0107
2.01045
2.01055
2.00789
2.0079
2.00851
2.00879
2.00872
2.00917
2.00929
2.01003
2.01008
2.01051
2.0071
2.00733
2.00775
2.00802
2.00797
2.00837
2.00842
2.00899
2.00913
2.00992
2.00638
2.00674
2.00704
2.00732
2.00728
2.00768
2.00774
2.00815
2.00824
2.0091
2.00563
2.00604
2.0063
2.00662
2.00661
2.00696
2.00704
2.00736
2.00741
2.00816
2.00508
2.00543
2.00563
2.00595
2.00597
2.00629
2.00636
2.00664
2.00665
2.00722
2.00455
2.00492
2.00507
2.00539
2.00541
2.00566
2.00577
2.006
2.00602
2.00638
2.00396
2.00434
2.00447
2.00477
2.00486
2.00505
2.00511
2.00538
2.00542
2.00576
2.00342
2.00375
2.00392
2.00411
2.00426
2.00443
2.00448
2.00471
2.00476
2.00511
2.00301
2.00314
2.00345
2.00359
2.00365
2.00391
2.00395
2.00411
2.00416
2.00445
2.00268
2.00269
2.00289
2.00305
2.00308
2.00335
2.00337
2.00345
2.00349
2.00397
2.00228
2.00233
2.00238
2.00262
2.00259
2.00267
2.00296
2.00286
2.00282
2.00329
2.00185
2.002
2.002
2.00221
2.00221
2.00219
2.00232
2.00246
2.00237
2.00253
2.00145
2.00158
2.00158
2.00158
2.00165
2.00172
2.00171
2.00205
2.00186
2.00186
2.00101
2.00109
2.0012
2.0011
2.00123
2.0013
2.00136
2.00148
2.00131
2.00139
2.00069
2.00079
2.00082
2.0009
2.00111
2.00099
2.00109
2.00102
2.00093
2.00087
2.00008
2.00022
2.00013
2.00025
2.0003
2.00031
2.0003
2.00034
2.00034
2.0002
1.99585
1.99579
1.99549
1.99679
1.99851
2.00095
2.00518
2.00595
2.01384
2.01416
1.99872
1.99906
1.99974
2.00129
2.00311
2.00473
2.01192
2.01522
2.02613
2.02394
2.00188
2.00172
2.00284
2.00468
2.0082
2.00969
2.01499
2.01959
2.031
2.0264
2.00562
2.00522
2.00548
2.00726
2.01178
2.01597
2.02057
2.02418
2.0417
2.0359
2.00836
2.0085
2.00941
2.01003
2.01333
2.01878
2.02623
2.02888
2.0429
2.03873
2.00906
2.01039
2.01253
2.01443
2.01682
2.01847
2.02689
2.03234
2.05401
2.03575
2.01134
2.01141
2.01323
2.01582
2.02235
2.02458
2.0285
2.0325
2.05043
2.03715
2.01341
2.01361
2.0145
2.01609
2.02063
2.02653
2.03102
2.03408
2.05006
2.03099
2.0139
2.01486
2.01559
2.01666
2.02028
2.02482
2.02993
2.03401
2.04923
2.02079
2.01433
2.01449
2.01539
2.01681
2.02052
2.02503
2.02734
2.03041
2.04468
2.0148
1.9746
1.97286
1.97104
1.96896
1.96679
1.96437
1.96189
1.95941
1.9571
1.95657
1.97505
1.9734
1.9718
1.96988
1.96798
1.9658
1.96367
1.96161
1.95968
1.95945
1.97568
1.97397
1.9722
1.97044
1.96845
1.96652
1.9643
1.96253
1.96087
1.96192
1.97713
1.9759
1.97381
1.97238
1.97007
1.9687
1.96692
1.96554
1.96441
1.96579
1.97922
1.97748
1.97635
1.97464
1.97321
1.97144
1.96996
1.96918
1.96933
1.96962
1.98119
1.98065
1.97933
1.97806
1.97664
1.97554
1.97492
1.97445
1.97585
1.97781
1.98257
1.98267
1.98218
1.98111
1.98106
1.97927
1.97971
1.98065
1.9818
1.98237
1.98577
1.98586
1.98558
1.98516
1.98501
1.98509
1.98438
1.98682
1.99119
1.993
1.98796
1.98848
1.98893
1.98972
1.9898
1.99072
1.99155
1.99269
1.99762
1.99832
1.99196
1.99148
1.99169
1.99366
1.9943
1.9953
1.99748
2.00072
2.00922
2.00917
2.00001
2.00001
2.00001
2.00001
2.00001
2.00001
2.00001
2.00001
2.00001
2.00001
2
2
2
2
2
1.99999
1.99999
1.99999
1.99998
1.99998
1.99998
1.99997
1.99997
1.99996
1.99995
1.99995
1.99994
1.99993
1.99993
1.99991
1.99991
1.99989
1.99989
1.99987
1.99986
1.99985
1.99984
1.99982
1.99981
1.99978
1.99977
1.99974
1.99973
1.99969
1.99968
1.99964
1.99962
1.99958
1.99956
1.99951
1.99948
1.99942
1.9994
1.99933
1.9993
1.99922
1.99918
1.99909
1.99905
1.99895
1.9989
1.99878
1.99872
1.99858
1.99852
1.99836
1.99829
1.9981
1.99802
1.9978
1.99772
1.99746
1.99735
1.99707
1.99693
1.99663
1.99644
1.99612
1.99588
1.99552
1.99523
1.99482
1.99448
1.994
1.9936
1.99304
1.99258
1.9919
1.99135
1.99055
1.98986
1.98892
1.98805
1.9869
1.9858
1.98435
1.98293
1.98105
1.97914
1.9767
2.00001
2.00001
2.00001
2.00001
2.00001
2.00001
2.00001
2.00001
2.00001
2.00001
2.00001
2
2
2
2
1.99999
1.99999
1.99999
1.99998
1.99998
1.99998