/*--------------------------------*- C++ -*----------------------------------*\
  =========                 |
  \\      /  F ield         | OpenFOAM: The Open Source CFD Toolbox
   \\    /   O peration     | Website:  https://openfoam.org
    \\  /    A nd           | Version:  8
     \\/     M anipulation  |
\*---------------------------------------------------------------------------*/
FoamFile
{
    version     2.0;
    format      ascii;
    class       volScalarField;
    location    "0.999971";
    object      T;
}
// * * * * * * * * * * * * * * * * * * * * * * * * * * * * * * * * * * * * * //

dimensions      [0 0 0 1 0 0 0];

internalField   nonuniform List<scalar> 
6800
(
374.066
374.093
374.078
373.997
373.808
373.426
372.802
372.536
372.447
372.432
374.068
374.081
374.02
373.785
373.245
372.65
372.458
372.405
372.408
372.423
374.043
373.959
373.786
373.213
372.605
372.405
372.37
372.384
372.417
372.483
374.037
373.668
373.355
372.644
372.386
372.333
372.349
372.398
372.455
372.503
374.116
373.38
372.79
372.397
372.297
372.303
372.342
372.413
372.463
372.507
374.055
372.883
372.546
372.261
372.252
372.279
372.348
372.414
372.459
372.481
373.874
372.639
372.227
372.102
372.186
372.267
372.345
372.399
372.441
372.466
373.371
372.038
372.043
372.028
372.154
372.251
372.342
372.402
372.422
372.437
372.742
371.797
371.936
371.908
372.08
372.213
372.332
372.386
372.407
372.426
372.223
371.425
371.736
371.857
371.974
372.17
372.291
372.366
372.402
372.425
374.113
374.114
374.114
374.114
374.112
374.109
374.106
374.102
374.099
374.097
374.111
374.112
374.113
374.112
374.111
374.108
374.105
374.101
374.097
374.094
374.107
374.11
374.111
374.11
374.108
374.105
374.102
374.098
374.093
374.089
374.101
374.106
374.108
374.107
374.105
374.102
374.099
374.094
374.09
374.084
374.097
374.103
374.105
374.105
374.102
374.098
374.094
374.09
374.087
374.084
374.095
374.101
374.103
374.102
374.098
374.091
374.083
374.077
374.077
374.084
374.093
374.1
374.102
374.099
374.091
374.076
374.059
374.041
374.035
374.023
374.094
374.099
374.1
374.095
374.08
374.048
374.017
373.971
373.919
373.74
374.086
374.099
374.098
374.088
374.06
373.992
373.922
373.757
373.581
373.062
374.078
374.097
374.097
374.07
374
373.849
373.632
373.204
372.765
372.525
374.095
374.094
374.095
374.099
374.106
374.114
374.125
374.137
374.151
374.166
374.182
374.198
374.214
374.231
374.246
374.261
374.275
374.288
374.299
374.309
374.317
374.323
374.327
374.33
374.33
374.329
374.326
374.322
374.316
374.308
374.3
374.291
374.28
374.269
374.257
374.244
374.231
374.218
374.204
374.19
374.176
374.161
374.147
374.132
374.118
374.103
374.088
374.074
374.06
374.046
374.032
374.018
374.005
373.992
373.979
373.967
373.954
373.943
373.931
373.92
373.909
373.898
373.888
373.878
373.869
373.86
373.851
373.843
373.835
373.827
373.82
373.812
373.805
373.798
373.792
373.785
373.779
373.773
373.767
373.761
373.755
373.749
373.744
373.738
373.733
373.728
373.723
373.718
373.714
373.709
373.705
373.701
373.697
373.693
373.689
373.685
373.681
373.678
373.673
373.669
374.09
374.089
374.089
374.092
374.098
374.107
374.117
374.13
374.144
374.159
374.175
374.192
374.209
374.226
374.243
374.258
374.273
374.287
374.299
374.31
374.319
374.326
374.332
374.335
374.336
374.336
374.334
374.33
374.325
374.318
374.31
374.301
374.291
374.28
374.269
374.256
374.243
374.23
374.216
374.202
374.187
374.173
374.158
374.143
374.128
374.114
374.099
374.084
374.07
374.056
374.042
374.028
374.014
374.001
373.988
373.976
373.963
373.951
373.94
373.928
373.917
373.907
373.897
373.887
373.877
373.868
373.859
373.851
373.843
373.835
373.827
373.82
373.813
373.806
373.799
373.793
373.786
373.78
373.774
373.767
373.762
373.756
373.75
373.745
373.74
373.734
373.73
373.725
373.72
373.716
373.711
373.707
373.702
373.699
373.694
373.691
373.686
373.683
373.678
373.674
374.083
374.08
374.079
374.08
374.085
374.093
374.104
374.116
374.131
374.147
374.163
374.181
374.199
374.217
374.235
374.253
374.269
374.285
374.299
374.311
374.322
374.331
374.339
374.344
374.347
374.348
374.347
374.345
374.341
374.335
374.328
374.32
374.31
374.3
374.288
374.276
374.263
374.25
374.236
374.221
374.207
374.192
374.177
374.162
374.147
374.131
374.116
374.102
374.087
374.072
374.058
374.044
374.031
374.017
374.004
373.991
373.979
373.966
373.955
373.943
373.932
373.921
373.911
373.901
373.892
373.882
373.874
373.865
373.857
373.849
373.841
373.833
373.826
373.819
373.812
373.805
373.799
373.792
373.786
373.779
373.773
373.768
373.762
373.756
373.751
373.746
373.741
373.736
373.731
373.726
373.722
373.717
373.713
373.709
373.704
373.701
373.696
373.692
373.688
373.683
374.076
374.069
374.065
374.066
374.069
374.076
374.086
374.099
374.113
374.13
374.148
374.167
374.186
374.206
374.225
374.244
374.263
374.28
374.296
374.311
374.324
374.335
374.344
374.351
374.356
374.359
374.36
374.359
374.356
374.351
374.345
374.337
374.328
374.318
374.307
374.295
374.282
374.268
374.254
374.24
374.225
374.21
374.195
374.179
374.164
374.148
374.133
374.118
374.103
374.089
374.074
374.06
374.046
374.033
374.02
374.007
373.994
373.982
373.97
373.959
373.947
373.937
373.926
373.917
373.907
373.898
373.889
373.88
373.872
373.864
373.856
373.848
373.841
373.834
373.826
373.82
373.813
373.806
373.8
373.793
373.787
373.781
373.775
373.77
373.764
373.759
373.754
373.749
373.744
373.739
373.734
373.73
373.725
373.721
373.716
373.712
373.708
373.704
373.699
373.694
374.07
374.056
374.049
374.048
374.05
374.056
374.066
374.079
374.094
374.111
374.129
374.149
374.169
374.19
374.211
374.232
374.251
374.27
374.287
374.303
374.318
374.33
374.341
374.35
374.356
374.36
374.362
374.361
374.359
374.355
374.35
374.342
374.333
374.323
374.312
374.3
374.286
374.273
374.259
374.244
374.229
374.214
374.199
374.183
374.168
374.153
374.137
374.123
374.108
374.093
374.079
374.065
374.051
374.038
374.025
374.012
374
373.988
373.976
373.965
373.954
373.944
373.934
373.925
373.915
373.907
373.898
373.89
373.881
373.873
373.866
373.858
373.851
373.843
373.836
373.829
373.823
373.816
373.81
373.803
373.797
373.792
373.786
373.78
373.775
373.77
373.764
373.759
373.754
373.75
373.745
373.74
373.736
373.731
373.727
373.722
373.718
373.713
373.709
373.703
374.057
374.036
374.025
374.022
374.024
374.029
374.039
374.053
374.068
374.085
374.104
374.124
374.144
374.165
374.185
374.206
374.225
374.243
374.26
374.276
374.291
374.304
374.314
374.323
374.33
374.333
374.334
374.333
374.331
374.327
374.321
374.313
374.304
374.293
374.282
374.269
374.256
374.242
374.228
374.214
374.199
374.185
374.17
374.155
374.14
374.126
374.111
374.097
374.083
374.07
374.056
374.043
374.031
374.018
374.006
373.994
373.983
373.972
373.962
373.952
373.942
373.932
373.923
373.915
373.907
373.899
373.891
373.883
373.876
373.868
373.861
373.854
373.847
373.84
373.834
373.827
373.821
373.815
373.809
373.803
373.798
373.792
373.787
373.781
373.776
373.771
373.767
373.762
373.757
373.752
373.748
373.743
373.739
373.734
373.73
373.726
373.721
373.716
373.713
373.706
373.989
373.98
373.968
373.969
373.973
373.981
373.992
374.006
374.021
374.037
374.056
374.074
374.092
374.109
374.127
374.144
374.159
374.174
374.188
374.201
374.212
374.222
374.23
374.236
374.24
374.24
374.24
374.238
374.234
374.228
374.221
374.212
374.202
374.191
374.18
374.167
374.155
374.141
374.129
374.116
374.104
374.091
374.079
374.066
374.053
374.041
374.029
374.017
374.006
373.995
373.984
373.973
373.963
373.954
373.944
373.934
373.926
373.917
373.909
373.901
373.893
373.886
373.879
373.873
373.866
373.86
373.854
373.848
373.842
373.836
373.83
373.825
373.819
373.814
373.808
373.803
373.798
373.793
373.788
373.783
373.778
373.774
373.769
373.765
373.761
373.756
373.752
373.748
373.744
373.74
373.736
373.732
373.728
373.724
373.72
373.716
373.712
373.707
373.704
373.698
373.748
373.776
373.798
373.817
373.835
373.852
373.869
373.886
373.9
373.913
373.929
373.942
373.954
373.965
373.975
373.983
373.989
373.995
374.001
374.006
374.01
374.012
374.011
374.011
374.008
374.006
374.002
373.996
373.989
373.983
373.975
373.967
373.958
373.949
373.94
373.931
373.923
373.913
373.905
373.897
373.891
373.884
373.878
373.87
373.864
373.857
373.851
373.845
373.84
373.834
373.829
373.824
373.82
373.815
373.811
373.806
373.802
373.798
373.794
373.791
373.788
373.785
373.782
373.779
373.776
373.773
373.77
373.767
373.764
373.761
373.758
373.755
373.752
373.749
373.746
373.743
373.74
373.737
373.734
373.731
373.728
373.726
373.723
373.72
373.718
373.715
373.712
373.709
373.706
373.704
373.701
373.698
373.695
373.692
373.689
373.685
373.682
373.678
373.676
373.67
373.109
373.197
373.273
373.33
373.384
373.428
373.466
373.497
373.522
373.54
373.555
373.564
373.565
373.564
373.56
373.555
373.547
373.539
373.531
373.519
373.51
373.501
373.492
373.484
373.475
373.469
373.462
373.458
373.452
373.45
373.448
373.446
373.446
373.445
373.446
373.447
373.449
373.451
373.456
373.46
373.467
373.475
373.482
373.489
373.496
373.504
373.512
373.519
373.527
373.534
373.541
373.548
373.556
373.562
373.568
373.574
373.578
373.583
373.588
373.592
373.596
373.6
373.604
373.607
373.61
373.612
373.614
373.617
373.619
373.621
373.623
373.624
373.626
373.627
373.629
373.63
373.631
373.632
373.633
373.633
373.634
373.634
373.634
373.634
373.634
373.633
373.633
373.633
373.632
373.631
373.631
373.629
373.628
373.627
373.626
373.624
373.622
373.62
373.618
373.615
372.554
372.593
372.645
372.683
372.72
372.752
372.782
372.807
372.828
372.847
372.864
372.879
372.891
372.907
372.921
372.938
372.956
372.974
372.995
373.015
373.036
373.054
373.071
373.087
373.1
373.111
373.12
373.129
373.134
373.141
373.144
373.148
373.151
373.153
373.155
373.156
373.158
373.159
373.16
373.16
373.164
373.166
373.167
373.168
373.17
373.172
373.176
373.178
373.182
373.185
373.189
373.194
373.2
373.206
373.214
373.222
373.231
373.24
373.251
373.262
373.274
373.286
373.299
373.311
373.324
373.336
373.349
373.361
373.373
373.385
373.397
373.407
373.417
373.427
373.435
373.444
373.451
373.458
373.465
373.471
373.476
373.481
373.486
373.49
373.494
373.498
373.501
373.504
373.507
373.51
373.512
373.514
373.516
373.517
373.519
373.52
373.52
373.521
373.521
373.521
372.456
372.468
372.497
372.517
372.536
372.554
372.574
372.593
372.612
372.634
372.654
372.679
372.702
372.732
372.761
372.793
372.824
372.856
372.888
372.918
372.948
372.973
372.997
373.017
373.034
373.05
373.062
373.073
373.081
373.089
373.095
373.1
373.104
373.107
373.109
373.11
373.112
373.112
373.11
373.111
373.11
373.109
373.108
373.104
373.102
373.1
373.098
373.096
373.094
373.09
373.088
373.084
373.08
373.077
373.074
373.073
373.073
373.072
373.072
373.073
373.073
373.074
373.076
373.078
373.08
373.083
373.088
373.095
373.102
373.11
373.12
373.13
373.141
373.153
373.164
373.177
373.189
373.201
373.214
373.226
373.238
373.25
373.261
373.272
373.283
373.293
373.303
373.312
373.321
373.329
373.336
373.343
373.35
373.356
373.361
373.366
373.37
373.374
373.378
373.382
372.495
372.502
372.517
372.529
372.542
372.556
372.574
372.592
372.611
372.632
372.653
372.679
372.704
372.735
372.765
372.798
372.83
372.863
372.893
372.921
372.949
372.971
372.992
373.009
373.025
373.039
373.051
373.062
373.07
373.078
373.084
373.088
373.093
373.096
373.097
373.1
373.101
373.101
373.101
373.101
373.099
373.097
373.094
373.092
373.091
373.089
373.087
373.085
373.083
373.08
373.076
373.073
373.068
373.065
373.06
373.058
373.055
373.052
373.049
373.046
373.043
373.04
373.036
373.033
373.03
373.027
373.025
373.023
373.021
373.02
373.019
373.02
373.022
373.025
373.028
373.032
373.035
373.04
373.043
373.048
373.052
373.057
373.062
373.068
373.073
373.08
373.086
373.094
373.101
373.109
373.117
373.126
373.133
373.143
373.15
373.16
373.167
373.177
373.181
373.199
372.538
372.547
372.555
372.564
372.574
372.589
372.605
372.622
372.641
372.66
372.682
372.706
372.731
372.759
372.786
372.814
372.841
372.868
372.894
372.919
372.942
372.961
372.98
372.996
373.01
373.022
373.033
373.043
373.051
373.06
373.066
373.071
373.077
373.08
373.083
373.086
373.087
373.088
373.089
373.09
373.089
373.087
373.085
373.083
373.082
373.083
373.081
373.08
373.078
373.076
373.073
373.07
373.066
373.063
373.059
373.056
373.053
373.05
373.047
373.043
373.041
373.037
373.034
373.031
373.028
373.025
373.021
373.019
373.016
373.014
373.012
373.01
373.009
373.008
373.007
373.006
373.006
373.004
373.007
373.006
373.007
373.011
373.011
373.013
373.014
373.014
373.014
373.014
373.014
373.015
373.015
373.017
373.017
373.018
373.019
373.022
373.023
373.027
373.028
373.036
372.561
372.569
372.58
372.587
372.595
372.609
372.626
372.644
372.663
372.681
372.7
372.72
372.742
372.766
372.791
372.816
372.841
372.865
372.887
372.909
372.927
372.945
372.962
372.976
372.991
373.002
373.015
373.026
373.036
373.046
373.054
373.062
373.069
373.074
373.078
373.081
373.082
373.085
373.086
373.087
373.086
373.087
373.084
373.083
373.082
373.079
373.078
373.079
373.078
373.076
373.073
373.07
373.067
373.063
373.06
373.056
373.054
373.05
373.047
373.044
373.041
373.038
373.035
373.032
373.03
373.027
373.025
373.023
373.02
373.019
373.016
373.013
373.012
373.01
373.009
373.007
373.007
373.006
373.005
373.005
373.005
373.005
373.005
373.009
373.008
373.009
373.01
373.009
373.008
373.007
373.005
373.004
373.003
373.002
373.001
373
372.999
372.999
372.999
372.997
372.575
372.585
372.603
372.61
372.615
372.623
372.637
372.655
372.674
372.693
372.711
372.729
372.749
372.771
372.794
372.817
372.84
372.863
372.884
372.905
372.923
372.94
372.956
372.97
372.984
372.995
373.008
373.019
373.031
373.042
373.051
373.06
373.067
373.073
373.077
373.08
373.082
373.085
373.086
373.085
373.086
373.087
373.085
373.084
373.082
373.08
373.079
373.08
373.079
373.077
373.074
373.072
373.068
373.065
373.061
373.058
373.055
373.052
373.05
373.047
373.044
373.042
373.039
373.038
373.035
373.033
373.031
373.029
373.027
373.025
373.024
373.022
373.02
373.018
373.017
373.016
373.018
373.016
373.017
373.017
373.017
373.016
373.015
373.014
373.014
373.013
373.012
373.011
373.01
373.009
373.007
373.006
373.005
373.004
373.003
373.002
373.002
373
373
372.999
372.6
372.608
372.631
372.658
372.656
372.676
372.671
372.678
372.692
372.71
372.729
372.747
372.767
372.787
372.807
372.829
372.85
372.872
372.892
372.91
372.927
372.942
372.956
372.969
372.982
372.993
373.006
373.016
373.029
373.04
373.05
373.061
373.068
373.074
373.079
373.082
373.084
373.086
373.088
373.088
373.088
373.087
373.086
373.086
373.084
373.083
373.081
373.08
373.08
373.078
373.075
373.072
373.069
373.066
373.064
373.061
373.06
373.058
373.056
373.053
373.052
373.049
373.047
373.045
373.043
373.04
373.038
373.036
373.033
373.031
373.03
373.031
373.029
373.029
373.029
373.028
373.026
373.024
373.022
373.021
373.019
373.018
373.016
373.015
373.014
373.012
373.011
373.01
373.009
373.008
373.007
373.006
373.005
373.004
373.004
373.003
373.002
373.001
373.001
372.998
372.632
372.636
372.655
372.673
372.691
372.716
372.725
372.724
372.723
372.734
372.751
372.772
372.791
372.811
372.829
372.848
372.867
372.886
372.905
372.922
372.938
372.953
372.965
372.977
372.986
372.995
373.004
373.014
373.026
373.037
373.049
373.06
373.069
373.076
373.082
373.084
373.087
373.088
373.089
373.088
373.09
373.089
373.089
373.087
373.084
373.083
373.081
373.08
373.079
373.079
373.077
373.074
373.071
373.068
373.066
373.064
373.063
373.062
373.06
373.058
373.056
373.054
373.052
373.051
373.05
373.049
373.047
373.045
373.044
373.041
373.041
373.041
373.041
373.039
373.037
373.035
373.033
373.031
373.028
373.026
373.024
373.022
373.021
373.019
373.018
373.017
373.015
373.014
373.013
373.012
373.012
373.011
373.01
373.009
373.008
373.007
373.007
373.006
373.005
373.004
372.666
372.668
372.677
372.695
372.708
372.717
372.724
372.729
372.738
372.752
372.771
372.79
372.808
372.827
372.843
372.861
372.878
372.898
372.916
372.934
372.95
372.963
372.973
372.982
372.988
372.996
373.003
373.012
373.022
373.033
373.047
373.058
373.068
373.077
373.081
373.085
373.087
373.088
373.088
373.089
373.091
373.09
373.087
373.085
373.084
373.083
373.082
373.082
373.08
373.08
373.081
373.081
373.078
373.075
373.073
373.071
373.069
373.068
373.067
373.065
373.063
373.061
373.06
373.059
373.058
373.057
373.056
373.055
373.052
373.052
373.051
373.052
373.05
373.049
373.046
373.043
373.041
373.038
373.036
373.034
373.032
373.03
373.029
373.028
373.027
373.026
373.025
373.024
373.023
373.022
373.021
373.02
373.019
373.018
373.017
373.017
373.016
373.015
373.014
373.013
372.7
372.706
372.707
372.721
372.734
372.745
372.755
372.766
372.77
372.778
372.792
372.808
372.823
372.84
372.855
372.872
372.89
372.909
372.927
372.945
372.96
372.974
372.984
372.992
373
373.007
373.013
373.019
373.026
373.036
373.048
373.059
373.069
373.077
373.082
373.086
373.088
373.088
373.089
373.091
373.09
373.089
373.088
373.085
373.088
373.086
373.085
373.083
373.082
373.081
373.082
373.083
373.083
373.082
373.079
373.077
373.076
373.073
373.073
373.074
373.073
373.072
373.07
373.069
373.069
373.068
373.067
373.067
373.066
373.065
373.063
373.061
373.059
373.056
373.053
373.05
373.047
373.044
373.042
373.039
373.037
373.035
373.034
373.032
373.031
373.03
373.03
373.029
373.028
373.028
373.027
373.026
373.025
373.024
373.024
373.023
373.022
373.021
373.02
373.018
372.744
372.746
372.746
372.749
372.758
372.767
372.784
372.805
372.814
372.815
372.818
372.83
372.841
372.86
372.874
372.891
372.908
372.924
372.939
372.952
372.966
372.977
372.987
372.995
373.006
373.019
373.034
373.039
373.038
373.044
373.05
373.059
373.068
373.075
373.08
373.082
373.084
373.084
373.084
373.087
373.085
373.085
373.084
373.085
373.087
373.085
373.086
373.082
373.082
373.082
373.081
373.083
373.084
373.084
373.081
373.08
373.078
373.079
373.079
373.079
373.078
373.076
373.075
373.074
373.073
373.073
373.071
373.07
373.069
373.068
373.067
373.065
373.063
373.061
373.058
373.054
373.051
373.048
373.044
373.041
373.039
373.036
373.034
373.033
373.031
373.03
373.03
373.029
373.028
373.027
373.027
373.026
373.026
373.025
373.024
373.024
373.023
373.022
373.022
373.02
372.763
372.782
372.786
372.784
372.785
372.792
372.803
372.819
372.839
372.847
372.848
372.85
372.859
372.875
372.893
372.912
372.932
372.946
372.96
372.967
372.977
372.983
372.994
373
373.012
373.018
373.028
373.034
373.045
373.054
373.062
373.069
373.074
373.075
373.082
373.083
373.084
373.083
373.08
373.079
373.08
373.078
373.079
373.084
373.083
373.083
373.082
373.081
373.08
373.08
373.079
373.079
373.081
373.082
373.082
373.08
373.078
373.074
373.073
373.072
373.072
373.073
373.075
373.073
373.074
373.075
373.074
373.073
373.072
373.07
373.069
373.067
373.065
373.062
373.059
373.056
373.052
373.048
373.044
373.04
373.037
373.034
373.031
373.029
373.027
373.026
373.024
373.023
373.022
373.021
373.021
373.02
373.019
373.019
373.018
373.018
373.017
373.016
373.016
373.015
372.787
372.806
372.815
372.815
372.814
372.817
372.828
372.838
372.847
372.855
372.862
372.869
372.878
372.891
372.906
372.922
372.942
372.958
372.976
372.986
373.003
373.013
373.028
373.042
373.057
373.07
373.083
373.089
373.095
373.096
373.103
373.103
373.102
373.096
373.096
373.086
373.085
373.08
373.075
373.075
373.076
373.074
373.076
373.079
373.077
373.077
373.078
373.076
373.076
373.074
373.073
373.072
373.074
373.07
373.071
373.074
373.073
373.071
373.066
373.064
373.066
373.065
373.065
373.066
373.067
373.067
373.068
373.068
373.067
373.065
373.063
373.061
373.059
373.057
373.054
373.05
373.046
373.042
373.038
373.034
373.031
373.027
373.024
373.022
373.02
373.019
373.017
373.016
373.015
373.014
373.013
373.012
373.012
373.011
373.01
373.01
373.009
373.008
373.008
373.007
372.814
372.824
372.836
372.846
372.844
372.847
372.851
372.857
372.867
372.875
372.884
372.891
372.9
372.91
372.923
372.935
372.951
372.966
372.982
372.996
373.012
373.025
373.035
373.054
373.064
373.082
373.092
373.102
373.105
373.104
373.111
373.11
373.109
373.103
373.099
373.086
373.081
373.074
373.073
373.072
373.073
373.072
373.074
373.074
373.073
373.073
373.073
373.071
373.071
373.07
373.068
373.067
373.064
373.066
373.065
373.066
373.065
373.06
373.054
373.051
373.048
373.047
373.046
373.046
373.045
373.045
373.044
373.044
373.046
373.045
373.044
373.042
373.039
373.037
373.037
373.035
373.033
373.03
373.027
373.024
373.021
373.018
373.016
373.014
373.013
373.012
373.011
373.011
373.01
373.009
373.008
373.007
373.006
373.005
373.005
373.004
373.003
373.002
373.001
373.001
372.842
372.844
372.854
372.867
372.87
372.878
372.88
372.884
372.889
372.896
372.904
372.912
372.92
372.93
372.939
372.952
372.966
372.98
372.992
373.007
373.017
373.029
373.038
373.046
373.055
373.059
373.065
373.07
373.077
373.083
373.084
373.085
373.085
373.087
373.086
373.085
373.081
373.078
373.077
373.075
373.071
373.071
373.07
373.065
373.062
373.061
373.06
373.057
373.057
373.055
373.051
373.049
373.048
373.05
373.047
373.048
373.048
373.045
373.043
373.04
373.038
373.037
373.035
373.034
373.035
373.035
373.033
373.031
373.028
373.024
373.021
373.017
373.014
373.011
373.008
373.007
373.005
373.002
373.002
373.002
373.004
373.003
373.004
373.006
373.005
373.006
373.006
373.004
373.003
373.002
373
373
372.999
372.999
372.999
372.999
372.999
372.998
372.998
372.997
372.87
372.867
372.877
372.879
372.883
372.897
372.903
372.909
372.914
372.916
372.918
372.923
372.931
372.938
372.95
372.96
372.973
372.985
372.997
373.008
373.018
373.026
373.031
373.035
373.039
373.041
373.044
373.046
373.049
373.053
373.056
373.062
373.065
373.065
373.065
373.064
373.061
373.056
373.052
373.053
373.049
373.048
373.048
373.044
373.043
373.041
373.039
373.039
373.038
373.033
373.029
373.029
373.025
373.027
373.026
373.028
373.028
373.029
373.027
373.024
373.022
373.02
373.019
373.019
373.019
373.017
373.016
373.014
373.012
373.009
373.005
373.002
372.999
372.996
372.994
372.992
372.991
372.989
372.989
372.989
372.988
372.988
372.989
372.989
372.99
372.991
372.991
372.99
372.99
372.988
372.987
372.987
372.988
372.989
372.988
372.988
372.989
372.99
372.99
372.99
372.898
372.898
372.906
372.9
372.902
372.911
372.917
372.929
372.936
372.942
372.942
372.941
372.94
372.944
372.954
372.962
372.972
372.984
372.995
373.005
373.013
373.02
373.025
373.028
373.034
373.038
373.041
373.044
373.043
373.043
373.041
373.042
373.042
373.04
373.039
373.036
373.036
373.033
373.033
373.032
373.029
373.029
373.029
373.028
373.027
373.025
373.02
373.02
373.021
373.019
373.015
373.013
373.011
373.008
373.007
373.007
373.008
373.009
373.01
373.009
373.007
373.006
373.005
373.005
373.005
373.004
373.003
373.003
373.002
373.002
373
372.999
372.998
372.995
372.993
372.991
372.989
372.989
372.987
372.986
372.985
372.985
372.985
372.986
372.986
372.986
372.986
372.985
372.984
372.983
372.983
372.982
372.983
372.982
372.983
372.983
372.983
372.984
372.985
372.984
372.921
372.929
372.929
372.934
372.933
372.93
372.929
372.932
372.938
372.947
372.954
372.957
372.958
372.959
372.961
372.967
372.973
372.979
372.987
372.997
373.004
373.01
373.015
373.019
373.022
373.023
373.024
373.024
373.025
373.024
373.024
373.024
373.023
373.021
373.02
373.019
373.017
373.016
373.015
373.015
373.014
373.012
373.011
373.01
373.01
373.009
373.006
373.006
373.007
373.005
373.004
373.002
373
372.998
372.998
372.996
372.998
372.998
372.998
372.999
373
372.999
372.999
372.999
373
373
373
372.999
372.999
372.999
372.999
372.999
372.999
372.997
372.996
372.995
372.994
372.993
372.991
372.989
372.988
372.988
372.987
372.987
372.987
372.987
372.988
372.988
372.987
372.986
372.985
372.984
372.984
372.984
372.984
372.984
372.984
372.984
372.984
372.984
372.942
372.947
372.95
372.951
372.96
372.954
372.954
372.951
372.954
372.961
372.966
372.968
372.969
372.969
372.972
372.973
372.973
372.975
372.981
372.987
372.99
372.996
373.001
373.003
373.006
373.007
373.008
373.008
373.008
373.007
373.004
373.004
373.003
373.003
373.003
373.002
373.001
373.001
373
373.001
372.999
372.998
372.997
372.996
372.997
372.996
372.996
372.997
372.998
372.998
372.999
372.998
372.997
372.997
372.997
372.993
372.995
372.995
372.996
372.996
372.996
372.996
372.997
372.997
372.998
372.998
372.999
372.998
372.998
372.998
372.998
372.998
372.998
372.998
372.999
372.999
372.999
372.999
372.999
372.997
372.995
372.994
372.994
372.994
372.993
372.993
372.993
372.993
372.992
372.99
372.99
372.989
372.989
372.989
372.989
372.989
372.988
372.988
372.988
372.988
372.971
372.966
372.964
372.963
372.973
372.966
372.973
372.973
372.972
372.973
372.977
372.979
372.982
372.986
372.986
372.985
372.983
372.982
372.983
372.984
372.984
372.986
372.988
372.99
372.993
372.995
372.997
372.997
372.996
372.996
372.996
372.995
372.995
372.994
372.995
372.994
372.993
372.994
372.994
372.993
372.994
372.994
372.994
372.993
372.993
372.993
372.995
372.996
372.996
372.996
372.997
372.996
372.997
372.997
372.997
372.996
372.996
372.996
372.996
372.997
372.996
372.998
372.998
372.999
372.999
373
373
373
373
373
373
373.001
373.001
373.001
373.002
373.002
373.002
373.002
373.002
373.002
373
373
373
372.999
372.998
372.998
372.998
372.997
372.997
372.996
372.994
372.994
372.993
372.993
372.993
372.993
372.993
372.993
372.992
372.992
372.993
372.992
372.992
372.992
372.995
372.989
372.993
372.991
372.991
372.99
372.991
372.992
372.992
372.993
372.991
372.987
372.985
372.984
372.983
372.982
372.982
372.983
372.985
372.986
372.988
372.991
372.993
372.993
372.993
372.992
372.992
372.991
372.992
372.991
372.991
372.991
372.991
372.992
372.991
372.991
372.991
372.992
372.992
372.993
372.993
372.994
372.994
372.996
372.996
372.996
372.996
372.996
372.997
372.997
372.998
372.998
372.998
372.998
372.999
373
372.999
373
373.001
373.001
373.001
373.002
373.002
373.002
373.002
373.003
373.003
373.003
373.003
373.003
373.004
373.004
373.004
373.004
373.003
373.003
373.001
373.001
373
373
373
372.999
372.999
372.999
372.999
372.998
372.997
372.997
372.996
372.996
372.996
372.995
372.995
372.995
372.995
372.995
372.498
372.479
372.469
372.488
372.484
372.512
372.523
372.522
372.489
372.447
372.558
372.536
372.539
372.534
372.51
372.518
372.526
372.54
372.538
372.491
372.593
372.574
372.579
372.562
372.55
372.534
372.538
372.544
372.555
372.534
372.629
372.622
372.616
372.592
372.589
372.575
372.562
372.557
372.56
372.553
372.665
372.662
372.647
372.629
372.626
372.615
372.608
372.586
372.579
372.565
372.697
372.69
372.676
372.662
372.658
372.647
372.643
372.626
372.618
372.591
372.729
372.717
372.705
372.691
372.688
372.677
372.673
372.658
372.653
372.626
372.759
372.746
372.735
372.721
372.717
372.707
372.701
372.689
372.686
372.663
372.784
372.771
372.763
372.75
372.746
372.735
372.73
372.718
372.715
372.698
372.808
372.794
372.787
372.774
372.771
372.762
372.756
372.745
372.743
372.727
372.832
372.818
372.812
372.8
372.795
372.787
372.783
372.772
372.77
372.756
372.854
372.843
372.835
372.827
372.821
372.812
372.81
372.801
372.798
372.784
372.872
372.867
372.857
372.849
372.845
372.837
372.833
372.827
372.824
372.813
372.888
372.885
372.879
372.871
372.869
372.861
372.857
372.853
372.852
372.84
372.907
372.902
372.9
372.892
372.889
372.887
372.878
372.876
372.877
372.868
372.924
372.918
372.917
372.91
372.906
372.907
372.902
372.899
372.898
372.895
372.941
372.935
372.935
372.932
372.93
372.926
372.925
372.919
372.917
372.917
372.954
372.956
372.95
372.952
372.951
372.946
372.946
372.937
372.939
372.941
372.97
372.97
372.966
372.969
372.964
372.961
372.958
372.956
372.961
372.962
372.994
372.992
372.993
372.993
372.99
372.987
372.989
372.987
372.985
372.987
373.182
373.182
373.179
373.132
373.058
372.959
372.831
372.718
372.425
372.225
373.06
373.037
373.009
372.949
372.872
372.766
372.536
372.376
371.981
371.828
372.935
372.917
372.864
372.788
372.674
372.594
372.354
372.134
371.766
371.567
372.802
372.786
372.748
372.661
372.497
372.367
372.181
371.944
371.381
371.468
372.673
372.655
372.617
372.561
372.401
372.191
371.941
371.781
371.281
371.005
372.62
372.553
372.478
372.413
372.322
372.142
371.865
371.616
371.034
371.144
372.554
372.507
372.423
372.313
372.135
372.029
371.802
371.567
371.034
371.069
372.47
372.44
372.374
372.27
372.105
371.958
371.76
371.568
371.017
371.182
372.425
372.388
372.344
372.286
372.144
371.966
371.776
371.546
371.126
371.566
372.425
372.4
372.344
372.257
372.121
371.975
371.85
371.647
371.25
371.725
374.102
374.179
374.26
374.352
374.45
374.558
374.671
374.785
374.89
374.927
374.085
374.159
374.234
374.32
374.409
374.51
374.61
374.709
374.8
374.82
374.05
374.125
374.202
374.282
374.37
374.459
374.557
374.644
374.72
374.74
373.988
374.044
374.129
374.194
374.289
374.359
374.438
374.501
374.555
374.503
373.898
373.967
374.025
374.092
374.156
374.226
374.294
374.333
374.336
374.312
373.808
373.84
373.895
373.947
374.005
374.051
374.088
374.106
374.058
373.96
373.732
373.743
373.768
373.81
373.827
373.872
373.862
373.843
373.786
373.705
373.596
373.602
373.624
373.646
373.647
373.649
373.652
373.567
373.412
373.258
373.492
373.486
373.472
373.458
373.446
373.405
373.369
373.298
373.12
372.963
373.332
373.347
373.337
373.28
373.247
373.193
373.118
372.963
372.667
372.507
373
373
373
373
373
373
373
373
373
373
373
373.001
373.001
373.001
373.001
373.001
373.001
373.001
373.001
373.002
373.002
373.002
373.002
373.002
373.003
373.003
373.003
373.004
373.004
373.004
373.005
373.005
373.005
373.006
373.006
373.007
373.008
373.008
373.009
373.01
373.01
373.012
373.012
373.014
373.014
373.016
373.017
373.018
373.019
373.022
373.023
373.025
373.026
373.029
373.031
373.034
373.036
373.039
373.041
373.045
373.048
373.052
373.055
373.061
373.064
373.07
373.074
373.081
373.085
373.094
373.099
373.108
373.114
373.125
373.132
373.144
373.153
373.166
373.177
373.192
373.205
373.222
373.237
373.257
373.275
373.298
373.319
373.347
373.372
373.405
373.437
373.476
373.515
373.563
373.613
373.674
373.738
373.817
373.904
374.008
373
373
373
373
373
373
373
373
373
373
373
373.001
373.001
373.001
373.001
373.001
373.001
373.001
373.001
373.002
373.002
373.002
373.002
373.002
373.003
373.003
373.003
373.004
373.004
373.004
373.005
373.005
373.005
373.006
373.006