/*--------------------------------*- C++ -*----------------------------------*\
  =========                 |
  \\      /  F ield         | OpenFOAM: The Open Source CFD Toolbox
   \\    /   O peration     | Website:  https://openfoam.org
    \\  /    A nd           | Version:  8
     \\/     M anipulation  |
\*---------------------------------------------------------------------------*/
FoamFile
{
    version     2.0;
    format      ascii;
    class       volVectorField;
    location    "0.999971";
    object      U;
}
// * * * * * * * * * * * * * * * * * * * * * * * * * * * * * * * * * * * * * //

dimensions      [0 1 -1 0 0 0 0];

internalField   nonuniform List<vector> 
6800
(
(-14.06 9.21761 -6.9494e-15)
(1.61048 1.09729 0)
(19.8309 -0.399215 5.06416e-15)
(40.8422 -0.317928 -4.6381e-15)
(65.5206 1.22132 -2.13959e-19)
(88.228 2.13555 -1.29623e-19)
(96.8966 3.07652 -1.92329e-15)
(100.263 3.96364 1.75202e-15)
(101.282 4.45018 0)
(101.438 4.12013 -1.00393e-15)
(-14.8247 7.66054 9.93818e-15)
(15.6419 -1.80645 -3.1394e-15)
(38.2046 -0.866838 0)
(68.0563 0.576368 0)
(91.7532 3.20252 0)
(99.0027 4.23594 9.9053e-16)
(101.294 4.91411 -9.30515e-16)
(101.943 5.05177 2.03601e-15)
(101.865 5.04375 7.01503e-16)
(101.647 4.63223 -9.73757e-16)
(-14.8867 6.71931 -6.45058e-15)
(33.9383 -4.28618 -3.85024e-15)
(65.4595 1.47763 0)
(92.0794 3.0351 -2.40219e-15)
(100.164 4.88611 -1.03801e-15)
(102.231 5.29996 -3.32398e-19)
(102.604 5.52518 2.23753e-15)
(102.312 5.65727 -1.4072e-15)
(101.906 5.50479 2.04867e-15)
(101.03 5.6181 -1.46427e-15)
(-4.41556 7.6003 8.81817e-15)
(53.7757 -4.00875 -1.36027e-18)
(90.7258 5.67876 0)
(99.9578 4.43525 1.06446e-15)
(102.997 5.73354 -7.9606e-20)
(103.341 6.21121 1.2049e-15)
(103.042 6.27744 0)
(102.279 6.47958 1.70584e-15)
(101.508 6.42778 2.62822e-19)
(100.758 6.04059 0)
(16.4523 17.6393 4.41305e-15)
(79.9139 -1.90979 6.97741e-16)
(99.2571 8.10572 5.70659e-16)
(103.176 5.45424 1.04006e-15)
(104.114 6.88 -6.07912e-16)
(103.926 7.01591 4.42095e-16)
(103.184 7.27094 -9.41563e-16)
(102.192 7.15993 1.93787e-15)
(101.435 7.14644 -1.85033e-15)
(100.693 7.39391 -2.26713e-15)
(42.0581 23.6717 -3.37834e-15)
(90.8905 -4.80347 6.37192e-16)
(104.04 8.85422 -5.55992e-16)
(105.325 6.15313 6.1206e-16)
(104.988 7.47404 -1.31893e-15)
(104.451 7.71515 1.02993e-15)
(103.283 8.29565 0)
(102.243 8.54047 -9.2075e-16)
(101.439 8.36476 4.0904e-16)
(100.742 8.78859 3.68723e-16)
(66.5696 14.9546 0)
(100.336 -6.45768 6.06395e-16)
(106.952 9.14248 6.26724e-16)
(107.032 6.36219 1.72408e-19)
(105.62 8.94075 -4.78599e-16)
(104.717 8.60867 5.16085e-16)
(103.48 9.12669 6.15587e-16)
(102.48 9.23717 5.36769e-16)
(101.651 9.10627 -1.7539e-15)
(100.829 9.71261 1.43718e-15)
(79.6464 18.6461 4.49757e-16)
(106.741 -6.27183 -5.84018e-16)
(109.365 11.0786 -6.14674e-16)
(109.121 7.01999 -7.68531e-16)
(106.64 10.4574 1.547e-15)
(105.332 9.76032 -5.34922e-16)
(103.66 10.6613 -4.83954e-16)
(102.575 10.7294 5.28773e-16)
(101.658 10.356 -1.06273e-15)
(100.81 10.9043 -7.68739e-16)
(96.2772 18.7253 -1.9297e-16)
(114.306 -3.79248 1.51064e-16)
(111.749 12.6379 0)
(110.671 8.08458 2.78161e-16)
(107.609 12.2409 0)
(106.147 11.6653 -2.99071e-16)
(104.022 12.6055 3.25539e-16)
(102.649 12.5449 0)
(101.582 11.8803 -2.06889e-16)
(100.715 12.3047 4.06496e-16)
(103.547 26.6192 0)
(118.767 -1.29198 -1.4645e-16)
(114.136 17.7909 -5.37054e-17)
(111.904 11.7797 5.92995e-17)
(108.127 15.1924 2.259e-31)
(106.465 12.8507 -2.41284e-16)
(104.142 14.3575 1.43556e-16)
(102.717 14.0514 1.25039e-16)
(101.409 14.4327 1.04471e-16)
(100.585 13.8153 -7.091e-16)
(-2.97362 1.5172 0)
(-4.94508 1.13819 -3.16252e-16)
(-6.91645 0.927276 0)
(-8.52427 0.778663 0)
(-9.79928 0.692432 0)
(-10.8506 0.625074 1.78944e-16)
(-11.7344 0.56745 -1.75787e-16)
(-12.4761 0.510401 -1.72928e-16)
(-13.0829 0.450256 3.39381e-16)
(-13.5662 0.393898 8.41895e-21)
(-3.25584 4.01668 1.19739e-15)
(-4.98213 3.20834 4.59809e-16)
(-6.74697 2.64381 0)
(-8.1738 2.27284 5.53016e-16)
(-9.28751 1.99296 0)
(-10.1684 1.78718 -2.41053e-16)
(-10.8686 1.61141 2.33582e-16)
(-11.4084 1.43344 0)
(-11.7764 1.24229 -2.20628e-16)
(-11.9554 1.06176 7.27052e-16)
(-3.77923 6.34838 -2.41981e-15)
(-5.01593 5.19298 -1.91013e-15)
(-6.41009 4.23354 1.34914e-15)
(-7.4613 3.62662 -1.74382e-15)
(-8.21425 3.19148 -1.07728e-15)
(-8.74178 2.84501 9.94336e-16)
(-9.05051 2.54496 3.79435e-20)
(-9.16637 2.24369 -1.85136e-15)
(-9.03653 1.8629 3.89215e-15)
(-8.55514 1.50844 -1.61871e-15)
(-4.29513 8.26933 0)
(-5.07527 6.73718 2.05745e-15)
(-5.86847 5.55288 -1.44898e-15)
(-6.3876 4.73038 2.51262e-15)
(-6.5997 4.15624 -1.17594e-15)
(-6.56804 3.69872 1.14676e-15)
(-6.29665 3.26189 1.13901e-15)
(-5.77303 2.75523 1.13901e-15)
(-4.84903 2.12419 9.66825e-20)
(-3.17193 1.51375 -1.22901e-15)
(-4.86104 9.64729 2.07766e-19)
(-5.07917 7.83977 -2.29746e-15)
(-5.14271 6.4739 1.48709e-15)
(-4.97361 5.48157 -1.40275e-15)
(-4.42144 4.78034 1.33647e-15)
(-3.55056 4.23087 -2.66075e-15)
(-2.32776 3.71022 0)
(-0.920042 3.05239 -2.72632e-15)
(1.09335 2.03771 1.37049e-15)
(4.81386 1.04772 6.8992e-15)
(-5.4622 10.4106 4.48531e-15)
(-5.14806 8.38429 7.57933e-15)
(-4.43589 6.79967 -1.53919e-15)
(-3.28713 5.69816 -3.26454e-15)
(-1.62655 4.89336 8.04258e-15)
(0.567078 4.30711 -4.64145e-15)
(2.92769 3.835 0)
(6.07278 3.16892 -1.54168e-15)
(10.2123 1.67892 -1.26372e-19)
(18.4066 0.189429 -1.38831e-15)
(-6.26299 10.6503 1.00777e-14)
(-5.44552 8.2264 -3.57383e-19)
(-3.69841 6.53036 0)
(-1.12717 5.2347 4.04301e-15)
(2.39964 4.34731 7.60079e-15)
(6.18117 3.88038 -3.63705e-15)
(11.3843 3.40081 0)
(18.2574 2.92476 -7.0006e-15)
(25.6748 1.10659 1.37177e-14)
(40.2393 -0.0844449 0)
(-7.18904 10.5385 -8.19361e-15)
(-5.82069 7.52685 -9.26762e-15)
(-2.52158 5.51038 5.04633e-15)
(2.76276 3.95177 2.51888e-19)
(8.49362 3.19729 -8.80908e-15)
(16.1264 2.71174 0)
(25.8017 1.90726 -3.23199e-15)
(38.6776 2.1725 0)
(49.0569 0.511856 -3.65064e-15)
(68.5167 0.280438 2.97201e-15)
(-9.00032 10.401 4.87954e-15)
(-6.02983 6.13635 0)
(0.951095 3.61487 0)
(9.33018 2.19822 0)
(19.7711 1.59034 0)
(32.8474 1.57204 2.70796e-15)
(48.7041 1.12359 5.52958e-15)
(66.1831 1.33635 -2.60426e-15)
(79.9605 0.370203 -2.91377e-15)
(93.1848 1.34133 3.52653e-15)
(-10.6328 10.3208 -6.29627e-15)
(-4.66419 3.97718 0)
(8.21565 1.35603 -5.5496e-15)
(21.4179 0.392031 8.42288e-15)
(38.1985 0.717246 1.58163e-19)
(58.1938 1.23853 -3.22683e-15)
(79.0016 1.31771 2.18259e-15)
(92.1576 1.66442 -1.81868e-15)
(97.7661 2.38776 0)
(100.448 3.16008 -1.14443e-15)
(-14.1377 0.315162 -1.52178e-16)
(-14.6975 0.187224 0)
(-14.9611 0.0874363 0)
(-15.0381 0.00387659 0)
(-14.905 -0.087664 0)
(-14.5767 -0.168947 0)
(-14.0756 -0.242628 -4.03875e-18)
(-13.4142 -0.310254 1.26874e-16)
(-12.6022 -0.373477 -1.20813e-16)
(-11.659 -0.430981 0)
(-10.5792 -0.485891 3.78715e-18)
(-9.37781 -0.538872 3.74059e-18)
(-8.05629 -0.59083 3.69927e-18)
(-6.61204 -0.641818 3.64448e-18)
(-5.09055 -0.68376 3.60442e-18)
(-3.47154 -0.715918 0)
(-1.79376 -0.741159 -1.10232e-16)
(-0.0195617 -0.774197 3.49087e-18)
(1.8247 -0.797774 1.16208e-16)
(3.70344 -0.816869 3.52762e-18)
(5.63731 -0.829751 0)
(7.58113 -0.833902 3.53411e-18)
(9.53206 -0.832702 -1.09579e-16)
(11.4762 -0.826715 1.1671e-16)
(13.4028 -0.816495 3.54193e-18)
(15.3025 -0.802583 -1.10016e-16)
(17.1673 -0.785592 1.1381e-16)
(18.9903 -0.766085 3.56672e-18)
(20.7665 -0.744765 3.57798e-18)
(22.4921 -0.722179 -1.11308e-16)
(24.1645 -0.698836 1.18923e-16)
(25.7824 -0.675085 3.61811e-18)
(27.3451 -0.65125 3.63306e-18)
(28.8526 -0.627558 -1.1311e-16)
(30.3055 -0.604133 1.17277e-16)
(31.7044 -0.581123 -1.215e-16)
(33.0504 -0.558564 1.18375e-16)
(34.3448 -0.536571 0)
(35.5889 -0.515167 0)
(36.7841 -0.49443 1.20122e-16)
(37.932 -0.474436 -1.20731e-16)
(39.0344 -0.45513 -1.25133e-16)
(40.0929 -0.436562 1.21965e-16)
(41.1092 -0.418709 -1.22586e-16)
(42.0847 -0.401493 1.1937e-16)
(43.021 -0.384982 0)
(43.9196 -0.369126 -3.89005e-18)
(44.7821 -0.353961 0)
(45.6099 -0.339425 -3.92959e-18)
(46.4046 -0.325579 0)
(47.1676 -0.312365 0)
(47.9005 -0.299819 0)
(48.6047 -0.287915 -4.00824e-18)
(49.2818 -0.276608 0)
(49.9331 -0.265885 6.07049e-17)
(50.5598 -0.255612 -6.50627e-17)
(51.163 -0.245787 0)
(51.7436 -0.236413 -4.10443e-18)
(52.3027 -0.227462 0)
(52.8412 -0.218866 -4.14189e-18)
(53.3599 -0.210609 0)
(53.8596 -0.202675 0)
(54.3409 -0.195061 0)
(54.8046 -0.187772 -6.74287e-17)
(55.2515 -0.180796 6.77112e-17)
(55.6823 -0.174146 -4.24915e-18)
(56.0977 -0.167813 0)
(56.4985 -0.161796 0)
(56.8854 -0.156093 -4.2994e-18)
(57.2592 -0.150688 -6.90494e-17)
(57.6205 -0.145572 6.49755e-17)
(57.97 -0.140731 6.95576e-17)
(58.3083 -0.13615 -7.41707e-17)
(58.6361 -0.131812 0)
(58.9539 -0.127698 0)
(59.2622 -0.12379 0)
(59.5614 -0.12007 -4.42293e-18)
(59.852 -0.11652 3.5499e-17)
(60.1343 -0.113127 -3.5614e-17)
(60.4088 -0.109878 3.57259e-17)
(60.6756 -0.106763 -3.13578e-17)
(60.9353 -0.103773 0)
(61.1879 -0.100899 -3.59359e-17)
(61.4339 -0.0981407 7.17838e-17)
(61.6734 -0.0954915 -3.13688e-17)
(61.9068 -0.0929575 0)
(62.1342 -0.0905309 0)
(62.3562 -0.0882227 0)
(62.5725 -0.086024 0)
(62.7842 -0.0839439 4.4582e-18)
(62.9904 -0.0819829 0)
(63.1934 -0.080128 -1.78007e-17)
(63.3899 -0.0784114 2.30359e-22)
(63.5864 -0.0767543 1.33283e-17)
(63.7721 -0.0753129 0)
(63.9672 -0.073732 -8.87119e-18)
(64.1361 -0.0726959 4.43295e-18)
(64.343 -0.0708872 8.85827e-18)
(64.4727 -0.0706321 0)
(64.7404 -0.0665073 0)
(-12.2167 0.835176 6.37969e-18)
(-12.6291 0.489523 -1.16145e-17)
(-12.7247 0.225289 -7.75589e-16)
(-12.6523 -0.0569041 8.26616e-16)
(-12.388 -0.309895 0)
(-11.9515 -0.547533 0)
(-11.3529 -0.764793 1.79763e-17)
(-10.6084 -0.963347 0)
(-9.72759 -1.14675 -5.71401e-18)
(-8.75726 -1.31604 1.12306e-17)
(-7.6394 -1.48177 -5.52854e-18)
(-6.41876 -1.63712 -5.45183e-18)
(-5.08338 -1.77828 -5.38436e-18)
(-3.67235 -1.8905 -5.28437e-18)
(-2.21271 -1.98958 5.26841e-18)
(-0.619215 -2.10655 0)
(1.12536 -2.22458 6.70859e-16)
(2.87663 -2.31628 -6.67769e-16)
(4.7101 -2.38605 -5.28242e-18)
(6.57002 -2.43893 -5.27075e-18)
(8.46006 -2.47394 0)
(10.3626 -2.48749 5.26129e-18)
(12.2691 -2.48471 -6.79135e-16)
(14.1669 -2.46734 1.34381e-15)
(16.0455 -2.4371 -6.80843e-16)
(17.8955 -2.39548 -1.58679e-17)
(19.7089 -2.34439 0)
(21.4791 -2.28553 -5.31804e-18)
(23.2012 -2.22109 -5.3355e-18)
(24.872 -2.15273 6.90756e-16)
(26.4889 -2.08205 -6.93323e-16)
(28.0508 -2.0101 -3.50761e-16)
(29.5572 -1.93784 6.92487e-16)
(31.0083 -1.86605 -5.26756e-18)
(32.4051 -1.79522 -3.3218e-16)
(33.7485 -1.72587 5.11196e-18)
(35.0398 -1.65805 0)
(36.2803 -1.59215 0)
(37.4718 -1.52814 3.14319e-16)
(38.6155 -1.46628 -3.10677e-16)
(39.7136 -1.40676 -3.07289e-16)
(40.7675 -1.34929 6.13073e-16)
(41.779 -1.29408 -1.15692e-20)
(42.7499 -1.24103 -2.98552e-16)
(43.6816 -1.18987 4.62546e-18)
(44.5755 -1.14084 0)
(45.4332 -1.09375 2.9605e-16)
(46.2563 -1.04872 -2.98517e-16)
(47.046 -1.00552 -2.83064e-16)
(47.8038 -0.964388 2.85796e-16)
(48.5312 -0.92511 0)
(49.2296 -0.887828 -2.82576e-16)
(49.9006 -0.85248 2.8553e-16)
(50.5456 -0.818914 -2.79765e-16)
(51.1659 -0.787139 2.82853e-16)
(51.7627 -0.756683 0)
(52.337 -0.727557 -2.76171e-16)
(52.8896 -0.699792 5.54545e-16)
(53.4216 -0.673296 -2.74138e-16)
(53.9341 -0.647849 4.2688e-18)
(54.4276 -0.6234 0)
(54.9029 -0.599899 0)
(55.3606 -0.577334 0)
(55.8016 -0.555731 0)
(56.2264 -0.53505 0)
(56.6359 -0.515339 4.19816e-18)
(57.0307 -0.496565 0)
(57.4115 -0.478732 1.33751e-16)
(57.7791 -0.461839 -1.29314e-16)
(58.1342 -0.445834 -1.33227e-16)
(58.4775 -0.43069 4.15928e-18)
(58.8095 -0.416362 1.32764e-16)
(59.131 -0.402812 1.36689e-16)
(59.4424 -0.38998 -2.98502e-21)
(59.7443 -0.377817 -1.32156e-16)
(60.0371 -0.366258 0)
(60.3214 -0.355257 1.35919e-16)
(60.5975 -0.344758 -2.55407e-21)
(60.8657 -0.334721 -1.2327e-16)
(61.1265 -0.325107 -1.39549e-16)
(61.38 -0.315886 1.27105e-16)
(61.6267 -0.307038 -7.37281e-17)
(61.8667 -0.298538 5.7291e-17)
(62.1003 -0.290381 -7.35926e-17)
(62.3278 -0.282551 -4.08402e-18)
(62.5496 -0.275066 5.71444e-17)
(62.7657 -0.267903 8.15711e-18)
(62.9766 -0.261094 5.70569e-17)
(63.1823 -0.254616 -6.5163e-17)
(63.3836 -0.248486 -6.9187e-17)
(63.5797 -0.242727 6.50762e-17)
(63.7729 -0.23726 2.43872e-17)
(63.9599 -0.232246 -4.20357e-22)
(64.1473 -0.227347 -3.65362e-17)
(64.3241 -0.223192 8.1151e-18)
(64.5105 -0.218451 -8.10952e-18)
(64.6713 -0.215582 1.62124e-17)
(64.8694 -0.210086 -2.8353e-17)
(64.9939 -0.209211 8.17013e-18)
(65.2507 -0.199464 -1.01484e-17)
(-8.2435 1.11045 -1.78828e-15)
(-8.43615 0.619871 4.10358e-17)
(-8.21893 0.152376 4.26937e-17)
(-7.85897 -0.271091 1.75258e-15)
(-7.35993 -0.668272 -1.66472e-15)
(-6.73301 -1.03641 -1.61176e-15)
(-5.99516 -1.36764 1.59901e-15)
(-5.16078 -1.66072 2.40738e-17)
(-4.23944 -1.91468 1.52078e-15)
(-3.29829 -2.1699 -1.48591e-15)
(-2.12679 -2.44957 2.26665e-17)
(-0.886658 -2.69932 2.23558e-17)
(0.504776 -2.93103 1.45074e-15)
(1.96834 -3.13326 -1.40984e-15)
(3.62001 -3.34863 1.4448e-15)
(5.2639 -3.54163 6.17728e-19)
(6.97183 -3.70367 -1.39602e-15)
(8.70963 -3.8342 -1.10411e-17)
(10.4893 -3.938 0)
(12.2915 -4.01326 0)
(14.1085 -4.06155 0)
(15.9298 -4.0805 1.10001e-17)
(17.7458 -4.07317 -7.05091e-16)
(19.5461 -4.04185 7.28335e-16)
(21.3215 -3.98951 -2.21218e-17)
(23.0628 -3.91846 1.10893e-17)
(24.7633 -3.83222 7.34054e-16)
(26.4177 -3.73358 -7.14031e-16)
(28.0223 -3.62614 -6.94235e-16)
(29.5745 -3.51203 -1.1101e-17)
(31.0727 -3.39421 6.93006e-16)
(32.5165 -3.2745 6.80785e-16)
(33.906 -3.15464 -1.34942e-15)
(35.2421 -3.0359 6.59079e-16)
(36.526 -2.91895 6.698e-16)
(37.7591 -2.80474 -1.30131e-15)
(38.9426 -2.69311 6.32464e-16)
(40.0781 -2.5849 -6.44414e-16)
(41.167 -2.47981 6.37197e-16)
(42.2107 -2.37851 -1.91058e-17)
(43.2116 -2.28127 0)
(44.1714 -2.1874 0)
(45.0915 -2.09741 0)
(45.9742 -2.01104 0)
(46.8204 -1.92766 0)
(47.6318 -1.84791 0)
(48.4097 -1.77125 -1.80315e-17)
(49.1556 -1.69805 2.68745e-17)
(49.8708 -1.62773 5.52058e-16)
(50.5566 -1.56088 -5.66673e-16)
(51.2145 -1.49697 -5.63636e-16)
(51.8457 -1.43637 5.60842e-16)
(52.4518 -1.37898 -5.58175e-16)
(53.0341 -1.32449 5.55721e-16)
(53.5939 -1.27305 0)
(54.1325 -1.22358 0)
(54.6501 -1.17626 0)
(55.1478 -1.13121 0)
(55.6268 -1.08829 -1.70437e-17)
(56.0879 -1.04706 0)
(56.5318 -1.00745 2.71038e-16)
(56.9591 -0.969367 -2.70292e-16)
(57.3704 -0.9328 0)
(57.7664 -0.897816 0)
(58.1478 -0.864315 0)
(58.5153 -0.832418 0)
(58.8695 -0.802042 0)
(59.2111 -0.773211 2.49923e-16)
(59.5409 -0.745924 -7.26155e-21)
(59.8594 -0.720081 -5.47833e-16)
(60.1673 -0.695639 2.81747e-16)
(60.4651 -0.672521 0)
(60.7535 -0.650668 -1.65218e-17)
(61.0328 -0.62997 0)
(61.3037 -0.610354 2.63613e-16)
(61.5664 -0.591707 -2.6328e-16)
(61.8215 -0.573958 -1.64348e-17)
(62.0692 -0.55701 -1.1491e-16)
(62.3098 -0.540806 1.06587e-16)
(62.5437 -0.525282 2.45713e-17)
(62.7711 -0.510391 -1.47281e-16)
(62.9923 -0.496111 1.3897e-16)
(63.2075 -0.482398 2.45021e-17)
(63.4171 -0.46925 8.16045e-18)
(63.6212 -0.456639 0)
(63.8202 -0.444597 -8.14752e-18)
(64.0141 -0.433087 8.14151e-18)
(64.2035 -0.422159 1.38306e-16)
(64.3883 -0.411783 -1.46345e-16)
(64.5693 -0.401969 -6.4998e-17)
(64.7458 -0.39279 4.87191e-17)
(64.9199 -0.384048 -5.68016e-17)
(65.0884 -0.376118 8.11011e-17)
(65.2578 -0.368275 -8.10483e-18)
(65.4173 -0.361807 8.10096e-18)
(65.5866 -0.354125 -2.42862e-17)
(65.7316 -0.34987 1.61847e-17)
(65.9125 -0.341017 1.61739e-17)
(66.0254 -0.33956 -8.16512e-18)
(66.26 -0.327207 2.04226e-17)
(-2.02653 1.04167 -2.078e-15)
(-1.90503 0.439216 -3.32407e-17)
(-1.32481 -0.121333 1.94798e-15)
(-0.697314 -0.650962 0)
(0.0170338 -1.15006 -1.44944e-21)
(0.815065 -1.61186 1.72748e-15)
(1.70389 -2.02967 -2.58995e-17)
(2.68602 -2.40867 -1.66994e-15)
(3.76417 -2.75745 1.57807e-15)
(5.0804 -3.1319 -1.6314e-15)
(6.37553 -3.49283 -2.46747e-17)
(7.73017 -3.82922 1.5322e-15)
(9.16492 -4.14623 -3.09759e-15)
(10.6612 -4.43643 1.52001e-15)
(12.2396 -4.70091 -2.35562e-17)
(13.8556 -4.92956 -1.47634e-15)
(15.5148 -5.12719 1.46983e-15)
(17.1994 -5.28982 0)
(18.9045 -5.41658 -1.48882e-15)
(20.6172 -5.50731 1.48874e-15)
(22.3303 -5.56227 1.49144e-15)
(24.0338 -5.58027 -1.51775e-15)
(25.7187 -5.56329 0)
(27.3759 -5.51352 -2.35036e-17)
(28.9971 -5.43455 2.3156e-17)
(30.5751 -5.32988 2.26635e-17)
(32.1061 -5.20524 -2.22129e-17)
(33.5864 -5.06401 0)
(35.0142 -4.91203 -2.14094e-17)
(36.3884 -4.75178 0)
(37.7093 -4.58761 1.32617e-15)
(38.9779 -4.42161 -1.30651e-15)
(40.1951 -4.25618 0)
(41.3628 -4.09305 -1.25176e-15)
(42.4821 -3.93268 1.23641e-15)
(43.5551 -3.77663 1.94001e-17)
(44.5827 -3.6239 0)
(45.5664 -3.47637 1.89963e-17)
(46.5078 -3.3328 -4.04559e-22)
(47.4076 -3.19489 1.86481e-17)
(48.269 -3.06303 5.91735e-16)
(49.0936 -2.93556 -1.98369e-20)
(49.8826 -2.81388 -5.82764e-16)
(50.6389 -2.69729 -5.60595e-16)
(51.3628 -2.58445 5.74902e-16)
(52.0559 -2.4769 0)
(52.7194 -2.37336 1.775e-17)
(53.3549 -2.27474 -1.76525e-17)
(53.9634 -2.17975 1.75611e-17)
(54.5461 -2.08974 5.41724e-16)
(55.1044 -2.0035 -2.51164e-20)
(55.6393 -1.92188 -5.71567e-16)
(56.1524 -1.84468 0)
(56.6447 -1.77137 1.71827e-17)
(57.118 -1.70252 -5.47837e-16)
(57.573 -1.63584 5.4598e-16)
(58.0093 -1.57201 5.44192e-16)
(58.428 -1.5115 -5.42553e-16)
(58.8308 -1.45396 3.38111e-17)
(59.2183 -1.39862 0)
(59.591 -1.34547 0)
(59.9494 -1.2944 0)
(60.2941 -1.24536 -1.67359e-17)
(60.6256 -1.19851 -5.17672e-16)
(60.9447 -1.15363 5.33283e-16)
(61.2519 -1.11099 -1.66321e-17)
(61.548 -1.07037 5.31235e-16)
(61.8333 -1.03187 -1.04405e-15)
(62.1087 -0.995488 7.77598e-16)
(62.3748 -0.961036 -6.8494e-21)
(62.632 -0.928472 -2.80397e-16)
(62.8807 -0.897677 2.47052e-16)
(63.1216 -0.868579 -2.30277e-16)
(63.355 -0.841007 2.62832e-16)
(63.5813 -0.814876 -5.25034e-16)
(63.8008 -0.790015 5.43732e-21)
(64.0138 -0.766352 1.63758e-17)
(64.2206 -0.743739 2.28953e-16)
(64.4215 -0.722123 3.67329e-23)
(64.6168 -0.701408 -3.26444e-17)
(64.8066 -0.681543 3.28189e-23)
(64.9912 -0.662511 0)
(65.1708 -0.644247 2.27926e-16)
(65.3458 -0.626757 -1.46414e-16)
(65.5162 -0.61 -1.46304e-16)
(65.6824 -0.594032 1.62442e-17)
(65.8445 -0.578793 -3.24662e-17)
(66.0031 -0.564358 -1.62223e-17)
(66.1578 -0.550682 1.29696e-16)
(66.3097 -0.537765 -1.29616e-16)
(66.4579 -0.525756 1.29539e-16)
(66.6046 -0.514284 -2.10372e-16)
(66.7464 -0.503999 -3.2347e-17)
(66.89 -0.493757 1.45474e-16)
(67.0247 -0.485468 -3.23137e-17)
(67.1691 -0.47539 -9.68745e-17)
(67.2918 -0.470193 3.22792e-17)
(67.4473 -0.458812 -1.31233e-22)
(67.5434 -0.457236 -1.63262e-17)
(67.7459 -0.442295 -4.11569e-17)
(6.75297 0.554222 -9.51588e-15)
(7.46609 -0.0524107 4.96934e-15)
(8.42632 -0.653491 2.34681e-15)
(9.41511 -1.23911 -2.13659e-15)
(10.4076 -1.79089 -3.2187e-17)
(11.4375 -2.32518 2.00142e-15)
(12.5145 -2.81962 -3.7927e-15)
(13.6478 -3.28279 1.83566e-15)
(14.8325 -3.73101 0)
(16.1238 -4.17105 0)
(17.4601 -4.56796 0)
(18.8425 -4.948 2.6371e-17)
(20.2808 -5.31504 2.60158e-17)
(21.7603 -5.65445 2.572e-17)
(23.2811 -5.96485 2.54881e-17)
(24.8293 -6.22933 -1.62177e-15)
(26.3955 -6.45049 2.45269e-17)
(27.9741 -6.63527 1.6251e-15)
(29.5557 -6.77426 2.43781e-17)
(31.1297 -6.87012 2.38039e-17)
(32.6882 -6.92326 2.3275e-17)
(34.2215 -6.93149 0)
(35.7218 -6.89683 1.45219e-15)
(37.1803 -6.82236 -1.38081e-15)
(38.5924 -6.71375 2.15352e-17)
(39.9534 -6.57343 -1.51812e-21)
(41.2629 -6.41022 -1.31405e-15)
(42.518 -6.22702 1.31527e-15)
(43.7204 -6.03219 2.02695e-17)
(44.8699 -5.82775 2.00068e-17)
(45.9689 -5.62014 -1.24509e-15)
(47.0194 -5.41123 1.94602e-17)
(48.0231 -5.20406 2.47313e-15)
(48.9827 -5.00079 -1.22383e-15)
(49.8994 -4.80103 -1.19306e-15)
(50.7757 -4.60767 -7.11722e-21)
(51.6121 -4.4176 1.20917e-15)
(52.41 -4.23506 0)
(53.1707 -4.05627 -1.83115e-17)
(53.8938 -3.88563 1.81798e-17)
(54.5845 -3.7233 1.15566e-15)
(55.2435 -3.5658 -1.13042e-15)
(55.8719 -3.41658 0)
(56.4738 -3.27378 -3.81704e-22)
(57.0482 -3.13494 0)
(57.5966 -3.00346 1.75477e-17)
(58.1201 -2.87646 0)
(58.6207 -2.75608 -1.09514e-15)
(59.0985 -2.63953 1.10778e-15)
(59.5551 -2.52979 1.72383e-17)
(59.9915 -2.42414 5.66665e-16)
(60.4083 -2.3245 -5.30419e-16)
(60.8074 -2.23041 1.70514e-17)
(61.1892 -2.14093 -1.69967e-17)
(61.5565 -2.0578 1.69446e-17)
(61.9092 -1.976 0)
(62.2455 -1.89748 1.68499e-17)
(62.5671 -1.82403 0)
(62.8764 -1.75447 -1.67659e-17)
(63.1738 -1.68731 5.51979e-16)
(63.4592 -1.62273 -1.06817e-15)
(63.7332 -1.56069 5.4963e-16)
(63.996 -1.50112 1.66222e-17)
(64.2485 -1.44442 5.30896e-16)
(64.4911 -1.39 -5.29962e-16)
(64.7244 -1.33852 -4.95976e-16)
(64.9489 -1.28941 5.282e-16)
(65.1652 -1.24298 -5.1089e-16)
(65.3738 -1.19921 5.43068e-16)
(65.5753 -1.15775 1.64335e-17)
(65.77 -1.11858 -5.08755e-16)
(65.9583 -1.08155 1.06542e-15)
(66.1406 -1.04657 -5.23891e-16)
(66.3172 -1.0134 0)
(66.4883 -0.981977 1.63351e-17)
(66.6543 -0.952043 0)
(66.8152 -0.923562 1.63024e-17)
(66.9715 -0.896309 1.62873e-17)
(67.1231 -0.870274 1.62728e-17)
(67.2705 -0.845314 1.6259e-17)
(67.4136 -0.821394 -2.43685e-16)
(67.5528 -0.798517 2.59733e-16)
(67.6883 -0.776582 -2.43314e-16)
(67.8203 -0.755615 1.62134e-17)
(67.9489 -0.735556 1.62021e-17)
(68.0746 -0.716498 3.81733e-21)
(68.1972 -0.69835 2.75007e-16)
(68.3174 -0.681215 -1.13164e-16)
(68.4349 -0.665028 1.45411e-16)
(68.5507 -0.649776 0)
(68.6637 -0.635712 1.61376e-17)
(68.7763 -0.622227 1.61278e-17)
(68.885 -0.610312 1.61194e-17)
(68.9965 -0.598427 0)
(69.1003 -0.588869 1.6102e-17)
(69.2136 -0.577138 0)
(69.3086 -0.571564 1.60849e-17)
(69.4321 -0.558641 -3.21474e-17)
(69.5076 -0.557245 3.26664e-17)
(69.6696 -0.540468 4.15427e-17)
(20.2822 -0.226228 0)
(21.2998 -0.823518 4.10868e-17)
(22.2056 -1.39272 -4.94578e-15)
(23.1889 -1.96404 9.17029e-15)
(24.1662 -2.50984 3.53885e-17)
(25.1951 -3.08231 -4.24283e-15)
(26.2629 -3.61659 4.00024e-15)
(27.3765 -4.12087 -3.84147e-15)
(28.5093 -4.61369 3.70358e-15)
(29.7294 -5.11902 1.41721e-18)
(30.9885 -5.55917 1.43054e-18)
(32.2748 -5.97728 -6.71346e-15)
(33.6098 -6.38846 -1.42242e-18)
(34.9796 -6.76796 6.32551e-15)
(36.3768 -7.11002 -3.09717e-15)
(37.7828 -7.40207 -2.3655e-17)
(39.1885 -7.64191 -2.20794e-21)
(40.5985 -7.84064 -2.27008e-17)
(41.9982 -7.98103 -2.22966e-21)
(43.3736 -8.07168 -2.2002e-21)
(44.7189 -8.11361 -2.14513e-21)
(46.0245 -8.10317 0)
(47.2838 -8.04336 -2.02262e-21)
(48.4884 -7.93635 -2.0655e-17)
(49.6404 -7.79193 -1.3463e-15)
(50.7342 -7.61209 1.26961e-15)
(51.7746 -7.40965 -1.27544e-15)
(52.759 -7.18464 1.26151e-15)
(53.6936 -6.94987 1.20972e-15)
(54.5787 -6.70473 -2.49222e-15)
(55.4185 -6.4587 1.22487e-15)
(56.2163 -6.21213 -1.897e-17)
(56.9735 -5.96874 -1.88087e-17)
(57.6948 -5.73143 1.17548e-15)
(58.3797 -5.49768 -1.18501e-15)
(59.0324 -5.27346 0)
(59.6514 -5.05059 1.16836e-15)
(60.2389 -4.83897 -1.16074e-15)
(60.7953 -4.62805 1.80244e-17)
(61.3178 -4.42964 -1.792e-17)
(61.8153 -4.24223 1.78201e-17)
(62.2875 -4.05876 -1.77274e-17)
(62.7342 -3.88737 1.76381e-17)
(63.1628 -3.7232 -1.7554e-17)
(63.5687 -3.56192 1.74732e-17)
(63.9545 -3.41102 -1.13079e-15)
(64.3208 -3.26433 1.12614e-15)
(64.6701 -3.12655 -1.72563e-17)
(65.0015 -2.9918 1.71911e-17)
(65.3169 -2.86637 1.09629e-15)
(65.6173 -2.74436 -1.10973e-15)
(65.902 -2.63026 1.70181e-17)
(66.1738 -2.52275 -1.69677e-17)
(66.432 -2.42025 1.69197e-17)
(66.6814 -2.32714 -1.68743e-17)
(66.9207 -2.23273 -1.06037e-15)
(67.1452 -2.14127 -1.67493e-17)
(67.358 -2.05699 1.67928e-17)
(67.5637 -1.97851 5.34938e-16)
(67.7616 -1.90267 1.92963e-20)
(67.9505 -1.82942 5.3271e-16)
(68.1309 -1.75887 -1.60039e-22)
(68.3029 -1.69095 0)
(68.4675 -1.62667 -3.31092e-17)
(68.625 -1.56467 0)
(68.7759 -1.50654 5.27981e-16)
(68.921 -1.45086 -5.27174e-16)
(69.06 -1.39845 -3.28988e-17)
(69.194 -1.34918 0)
(69.3234 -1.30247 -5.08506e-16)
(69.4482 -1.25841 -1.63695e-17)
(69.5687 -1.21672 5.07231e-16)
(69.6853 -1.17738 -1.63429e-17)
(69.798 -1.14001 -5.06053e-16)
(69.9071 -1.10466 5.05523e-16)
(70.0128 -1.07091 5.37576e-16)
(70.1151 -1.03886 -5.3706e-16)
(70.2142 -1.00812 -5.04028e-16)
(70.3104 -0.978827 5.19827e-16)
(70.4036 -0.95071 0)
(70.4941 -0.923806 2.75682e-16)
(70.5821 -0.898156 -2.43055e-16)
(70.6678 -0.873588 -2.4286e-16)
(70.7513 -0.850164 5.33887e-16)
(70.8328 -0.827795 -2.58665e-16)
(70.9126 -0.806627 1.61546e-17)
(70.9906 -0.786523 2.74435e-16)
(71.0674 -0.767631 -2.41983e-16)
(71.1428 -0.749846 -2.5794e-16)
(71.2176 -0.733165 2.41657e-16)
(71.2909 -0.717943 0)
(71.365 -0.703294 0)
(71.4363 -0.690576 0)
(71.5112 -0.678033 -1.60683e-17)
(71.5805 -0.667656 1.606e-17)
(71.6578 -0.655145 1.6048e-17)
(71.7219 -0.649746 0)
(71.8083 -0.636458 -1.60278e-17)
(71.8607 -0.635537 7.51461e-23)
(71.9758 -0.618116 4.19965e-17)
(41.0413 -0.43885 -2.2411e-17)
(41.3004 -1.20128 -3.05849e-17)
(41.4566 -1.90139 0)
(41.7843 -2.52266 -3.55528e-21)
(42.1591 -3.078 3.56166e-15)
(42.7099 -3.67745 5.54317e-17)
(43.3675 -4.23244 -3.38842e-15)
(44.1338 -4.78634 0)
(44.9285 -5.32504 -3.24423e-15)
(45.8757 -5.90843 3.14014e-15)
(46.8777 -6.38729 2.39791e-17)
(47.9103 -6.84208 -2.34746e-17)
(49.0068 -7.28992 2.92274e-15)
(50.1394 -7.69698 2.3824e-17)
(51.3109 -8.06695 -2.0985e-17)
(52.479 -8.37768 2.30408e-17)
(53.6549 -8.62945 -2.04096e-17)
(54.8363 -8.84317 -5.44556e-15)
(55.997 -8.98067 2.6898e-15)
(57.1171 -9.0599 2.64049e-15)
(58.192 -9.08411 8.95057e-19)
(59.2115 -9.04887 -2.60854e-15)
(60.1723 -8.96014 -2.02031e-17)
(61.064 -8.81915 2.00307e-17)
(61.8972 -8.64048 1.98711e-17)
(62.6633 -8.42158 -2.54335e-15)
(63.3781 -8.18298 3.73644e-15)
(64.0362 -7.91859 1.86172e-19)
(64.6518 -7.64909 -1.19494e-15)
(65.2239 -7.36763 0)
(65.7599 -7.08921 1.17824e-15)
(66.2644 -6.81092 -2.41586e-15)
(66.7372 -6.53733 2.41876e-15)
(67.1863 -6.27306 -2.40334e-15)
(67.6071 -6.01071 1.16652e-15)
(68.0078 -5.76374 1.84057e-17)
(68.3825 -5.51227 -1.83019e-17)
(68.7359 -5.28025 0)
(69.0654 -5.03712 -1.17675e-15)
(69.3636 -4.81634 1.15273e-15)
(69.6481 -4.61065 -8.27074e-22)
(69.9146 -4.40483 0)
(70.1611 -4.21837 -1.13639e-15)
(70.4016 -4.03922 1.14903e-15)
(70.6243 -3.8594 -1.7601e-17)
(70.8337 -3.69414 1.13926e-15)
(71.0299 -3.53138 -1.75026e-17)
(71.2173 -3.38108 -1.11289e-15)
(71.3926 -3.2311 -4.75802e-22)
(71.5584 -3.09447 1.10487e-15)
(71.715 -2.95805 -1.08409e-15)
(71.8603 -2.83214 1.08073e-15)
(71.9983 -2.71364 -1.09474e-15)
(72.1267 -2.60261 1.09168e-15)
(72.2538 -2.50262 -1.08874e-15)
(72.3764 -2.40238 -1.10293e-15)
(72.4851 -2.30342 1.08327e-15)
(72.5848 -2.20969 -1.68854e-17)
(72.6834 -2.12229 1.68454e-17)
(72.7789 -2.03859 -1.68069e-17)
(72.8682 -1.9589 0)
(72.9518 -1.88252 -2.0861e-22)
(73.0293 -1.80876 1.06871e-15)
(73.1025 -1.73972 -1.59987e-15)
(73.1713 -1.67237 1.06451e-15)
(73.2362 -1.61012 -1.66174e-17)
(73.2982 -1.54982 -1.04402e-15)
(73.3564 -1.49367 5.45928e-16)
(73.4124 -1.44097 5.28491e-16)
(73.4661 -1.39084 -5.44152e-16)
(73.5177 -1.34366 0)
(73.567 -1.29901 -5.26084e-16)
(73.6145 -1.25694 5.25367e-16)
(73.66 -1.21689 -1.03391e-22)
(73.7039 -1.17907 0)
(73.7461 -1.14282 -1.63548e-17)
(73.7866 -1.10853 0)
(73.8258 -1.0755 -1.63167e-17)
(73.8634 -1.04418 1.62985e-17)
(73.8998 -1.01402 0)
(73.9348 -0.985238 -1.62639e-17)
(73.9688 -0.957928 -6.52416e-23)
(74.002 -0.931787 -2.75921e-16)
(74.0345 -0.906962 2.2701e-16)
(74.0662 -0.883317 -1.61994e-17)
(74.0976 -0.861064 -1.61842e-17)
(74.1286 -0.840003 -3.23391e-17)
(74.1597 -0.820335 -1.61549e-17)
(74.1907 -0.80191 -2.74393e-16)
(74.2223 -0.784746 3.41303e-21)
(74.2539 -0.769306 2.57807e-16)
(74.287 -0.754355 -1.28786e-16)
(74.3191 -0.74177 1.12601e-16)
(74.3552 -0.729449 1.60708e-17)
(74.3882 -0.719548 -3.2119e-17)
(74.4267 -0.706945 -1.60443e-17)
(74.4586 -0.702086 -1.60341e-17)
(74.5048 -0.689355 4.80525e-17)
(74.5334 -0.689106 -4.97923e-17)
(74.5977 -0.672402 -4.2367e-17)
(68.0345 0.271598 2.02106e-15)
(66.8035 -0.375976 -2.99097e-15)
(65.7238 -1.21005 2.32823e-17)
(64.9995 -2.13229 2.32891e-17)
(64.3826 -2.82302 -2.99766e-15)
(64.071 -3.66875 2.93408e-15)
(63.9531 -4.61609 3.84894e-15)
(64.0187 -5.04217 -1.66212e-17)
(64.1925 -5.64965 2.21994e-17)
(64.6341 -6.33009 -2.06236e-17)
(65.1975 -6.86629 -2.08845e-17)
(65.8003 -7.39811 -2.79841e-15)
(66.4998 -7.92346 0)
(67.2312 -8.37906 -4.25071e-17)
(68.0313 -8.77941 -2.69731e-15)
(68.8096 -9.11376 -4.28873e-17)
(69.6544 -9.40593 -1.06596e-18)
(70.5157 -9.64303 2.61699e-15)
(71.3385 -9.78744 -4.05344e-17)
(72.1048 -9.8631 0)
(72.8043 -9.86728 -3.99261e-17)
(73.424 -9.79769 0)
(73.9766 -9.66974 -2.54704e-15)
(74.4468 -9.48451 -2.0303e-17)
(74.866 -9.26501 2.48435e-15)
(75.2142 -9.00038 1.94863e-17)
(75.5283 -8.72508 -2.50375e-15)
(75.7908 -8.41981 4.94887e-15)
(76.0304 -8.1199 -3.81862e-17)
(76.2399 -7.80493 -2.45487e-15)
(76.4294 -7.50044 2.46461e-15)
(76.6055 -7.19598 -2.45463e-15)
(76.7617 -6.8983 0)
(76.9131 -6.61367 1.76478e-21)
(77.0452 -6.3279 0)
(77.1751 -6.06565 -3.74782e-17)
(77.2866 -5.78949 -1.17632e-15)
(77.3954 -5.54804 1.17168e-15)
(77.4876 -5.27317 0)
(77.5443 -5.031 1.20068e-15)
(77.6067 -4.81039 -2.37422e-15)
(77.66 -4.58307 1.19223e-15)
(77.6944 -4.38611 -3.65661e-17)
(77.7428 -4.19945 -1.82216e-17)
(77.7785 -4.00692 -1.81582e-17)
(77.8095 -3.83768 -1.80957e-17)
(77.8355 -3.66441 0)
(77.8651 -3.51234 0)
(77.8911 -3.35278 1.10816e-15)
(77.9157 -3.21538 -2.27828e-15)
(77.9398 -3.07091 1.09921e-15)
(77.9565 -2.93923 0)
(77.9684 -2.81293 1.12626e-15)
(77.978 -2.69173 -1.13989e-15)
(77.9897 -2.59916 0)
(77.9962 -2.48429 -1.74162e-17)
(78.0002 -2.34958 0)
(78.0018 -2.27761 -9.08863e-16)
(78.0015 -2.19657 1.8643e-15)
(77.996 -2.10786 -1.11763e-15)
(77.9858 -2.02159 0)
(77.9739 -1.93901 1.05969e-15)
(77.9579 -1.85931 -1.0908e-15)
(77.9416 -1.78646 2.27007e-22)
(77.923 -1.71431 0)
(77.9034 -1.64972 1.69073e-17)
(77.884 -1.58502 -1.11313e-15)
(77.8626 -1.52656 1.07691e-15)
(77.8421 -1.47212 -1.67886e-17)
(77.822 -1.41993 0)
(77.8019 -1.37083 -1.67181e-17)
(77.7817 -1.3244 5.50622e-16)
(77.7618 -1.28103 -5.49594e-16)
(77.742 -1.2397 -5.48578e-16)
(77.7223 -1.20097 1.06204e-15)
(77.7027 -1.16366 -1.06021e-15)
(77.6831 -1.1287 1.05843e-15)
(77.6636 -1.09473 -5.2835e-16)
(77.644 -1.06288 -1.00488e-22)
(77.6249 -1.03201 0)
(77.6055 -1.00273 -5.2586e-16)
(77.5866 -0.975141 1.03372e-15)
(77.5683 -0.948564 -1.04859e-15)
(77.5504 -0.923458 5.39923e-16)
(77.5332 -0.899668 -2.4508e-16)
(77.5168 -0.877505 2.61059e-16)
(77.5015 -0.856643 1.62949e-17)
(77.4875 -0.837419 2.60364e-16)
(77.4749 -0.819441 -5.03812e-16)