/*--------------------------------*- C++ -*----------------------------------*\
  =========                 |
  \\      /  F ield         | OpenFOAM: The Open Source CFD Toolbox
   \\    /   O peration     | Website:  https://openfoam.org
    \\  /    A nd           | Version:  8
     \\/     M anipulation  |
\*---------------------------------------------------------------------------*/
FoamFile
{
    version     2.0;
    format      ascii;
    class       volScalarField;
    location    "4.9999766073";
    object      alphat;
}
// * * * * * * * * * * * * * * * * * * * * * * * * * * * * * * * * * * * * * //

dimensions      [1 -1 -1 0 0 0 0];

internalField   nonuniform List<scalar> 
6800
(
0.00548057
0.0121627
0.0182766
0.0203555
0.0230374
0.0267013
0.0258386
0.0221413
0.0133807
0.0100686
0.0037359
0.0124535
0.0191601
0.0209508
0.0253475
0.0264402
0.0190261
0.0119445
0.00888424
0.00819905
0.00454449
0.0151258
0.0195232
0.022609
0.0263672
0.0179701
0.0111103
0.00869685
0.00795524
0.00721151
0.0050864
0.0171388
0.020772
0.0240743
0.0201163
0.0128092
0.0105901
0.00903641
0.00734074
0.0066056
0.00545682
0.0180458
0.0210056
0.0234206
0.015548
0.0116219
0.00840214
0.00712634
0.00635893
0.00577609
0.00586011
0.0197188
0.0225382
0.0213509
0.013786
0.00935667
0.00846221
0.0076228
0.00644232
0.00570766
0.00615563
0.0213448
0.0237254
0.017764
0.0109891
0.00934222
0.00745121
0.0060369
0.00539484
0.00513234
0.00657407
0.0255147
0.0256359
0.0138956
0.0111518
0.00834635
0.00706894
0.00646262
0.00571887
0.00524618
0.00687743
0.0281206
0.0226343
0.0142291
0.00977325
0.00799663
0.00676878
0.00552747
0.00503568
0.00480857
0.00735846
0.0348304
0.0241901
0.012441
0.00938496
0.00750071
0.00639354
0.00579861
0.00527123
0.00497793
0.034672
0.147878
0.204558
0.220357
0.224538
0.225104
0.227261
0.230661
0.23447
0.236119
0.0332797
0.1426
0.197841
0.213885
0.216558
0.215125
0.215086
0.216411
0.218117
0.219566
0.030768
0.131267
0.183998
0.201437
0.202337
0.199506
0.197607
0.195912
0.193671
0.193843
0.0277858
0.118283
0.167807
0.184332
0.183587
0.180066
0.174472
0.170269
0.164057
0.154582
0.0246554
0.105469
0.150824
0.161268
0.157641
0.150779
0.141306
0.130876
0.119936
0.0928005
0.0219345
0.0941178
0.128245
0.12964
0.121005
0.111576
0.0952307
0.0708178
0.057314
0.0410873
0.0196037
0.0799772
0.0997072
0.089215
0.0779271
0.0547287
0.0390645
0.0329565
0.0325049
0.0284206
0.0184426
0.0629848
0.0563031
0.0454558
0.0306934
0.0273316
0.0273561
0.0271449
0.0273325
0.025596
0.0157772
0.0319636
0.0235765
0.0229707
0.0226561
0.0239975
0.0258936
0.0265887
0.025987
0.023482
0.0114147
0.0140835
0.0165297
0.0199426
0.0221187
0.0244882
0.027008
0.0253426
0.0252827
0.0158823
0.237223
0.237861
0.236399
0.234487
0.232666
0.231067
0.22968
0.228517
0.227577
0.226812
0.22618
0.225624
0.225124
0.224668
0.22424
0.223837
0.223472
0.223128
0.222804
0.222499
0.222213
0.221949
0.22171
0.221496
0.221309
0.221147
0.221007
0.220884
0.220775
0.220674
0.220578
0.220484
0.220389
0.220287
0.220174
0.220047
0.219903
0.21974
0.219557
0.219354
0.219133
0.218901
0.21866
0.218415
0.21817
0.217929
0.217696
0.217472
0.217259
0.21706
0.216874
0.216702
0.216543
0.216396
0.216259
0.216131
0.216011
0.215895
0.215784
0.215674
0.215566
0.215458
0.215349
0.215238
0.215127
0.215014
0.214901
0.214787
0.214672
0.214558
0.214444
0.21433
0.214217
0.214104
0.213993
0.213881
0.213769
0.213658
0.213546
0.213433
0.213319
0.213205
0.213089
0.212973
0.212855
0.21274
0.21262
0.212508
0.212387
0.212284
0.212163
0.212076
0.211951
0.211894
0.211764
0.211743
0.211602
0.211634
0.211395
0.211755
0.220925
0.221547
0.220709
0.219335
0.217996
0.216857
0.215942
0.215257
0.214751
0.214386
0.214125
0.213885
0.21368
0.213505
0.213334
0.213183
0.213056
0.212949
0.212858
0.212782
0.212722
0.212679
0.212655
0.212652
0.212668
0.212701
0.21275
0.212809
0.212874
0.21294
0.213011
0.213084
0.213151
0.213205
0.213241
0.213255
0.213245
0.213209
0.213146
0.213059
0.212954
0.212836
0.212709
0.212575
0.212438
0.212302
0.21217
0.212045
0.211928
0.211822
0.211727
0.211643
0.211568
0.211504
0.211447
0.211395
0.211348
0.211302
0.211258
0.211214
0.211168
0.211121
0.211071
0.211018
0.210964
0.210908
0.21085
0.210792
0.210732
0.210672
0.210612
0.210553
0.210493
0.210433
0.210373
0.210312
0.21025
0.210187
0.210122
0.210055
0.209986
0.209916
0.209843
0.209769
0.209692
0.209617
0.209537
0.209464
0.209382
0.209317
0.209233
0.209185
0.209096
0.209078
0.208981
0.209
0.208891
0.208971
0.208741
0.209174
0.197217
0.196506
0.195305
0.193896
0.1927
0.19188
0.1914
0.191206
0.191197
0.191319
0.191529
0.191837
0.192195
0.192631
0.193139
0.193661
0.19418
0.194694
0.195198
0.195694
0.196185
0.196675
0.197164
0.197653
0.198141
0.198624
0.199098
0.19956
0.200006
0.200433
0.200868
0.201283
0.201669
0.202017
0.202326
0.202596
0.202825
0.203013
0.203162
0.203278
0.203361
0.203415
0.20345
0.203473
0.203488
0.203501
0.203515
0.203533
0.203556
0.203587
0.203624
0.203668
0.203718
0.203773
0.203829
0.203883
0.203934
0.203984
0.204033
0.20408
0.20412
0.204154
0.204187
0.204217
0.204245
0.204272
0.204297
0.204321
0.204345
0.204369
0.204393
0.204416
0.204438
0.204458
0.204477
0.204492
0.204505
0.204514
0.20452
0.204522
0.20452
0.204516
0.204506
0.204495
0.204479
0.204465
0.204445
0.204434
0.20441
0.204407
0.20438
0.204393
0.204358
0.204403
0.204358
0.204441
0.204377
0.204529
0.204322
0.204872
0.156139
0.157184
0.158693
0.159529
0.160494
0.161641
0.162926
0.16425
0.165576
0.166863
0.168101
0.16929
0.170435
0.171505
0.172526
0.173511
0.174461
0.175381
0.176274
0.177149
0.17801
0.17886
0.179701
0.180534
0.181356
0.182163
0.182952
0.183718
0.184461
0.18516
0.185788
0.186352
0.186872
0.187349
0.187782
0.188175
0.188526
0.188837
0.18911
0.189352
0.189567
0.189763
0.189944
0.190116
0.190285
0.190454
0.190627
0.190805
0.19099
0.191181
0.19138
0.191584
0.191793
0.192004
0.19222
0.192442
0.192665
0.192888
0.193109
0.193329
0.193555
0.193781
0.194004
0.194224
0.194437
0.194646
0.194847
0.195046
0.195244
0.195437
0.195625
0.195807
0.195981
0.196147
0.196305
0.196455
0.196596
0.196729
0.196854
0.196971
0.19708
0.197182
0.197277
0.197368
0.19745
0.197533
0.197605
0.197684
0.197746
0.19783
0.197884
0.197984
0.198027
0.198156
0.198185
0.198351
0.198357
0.1986
0.198416
0.199121
0.0926528
0.0947559
0.0969963
0.0999006
0.103161
0.106717
0.110278
0.113542
0.116602
0.119457
0.122145
0.124681
0.127085
0.12939
0.131594
0.133704
0.135743
0.137694
0.139558
0.141348
0.143077
0.144757
0.146406
0.148028
0.14962
0.151177
0.152688
0.154159
0.155571
0.15695
0.158296
0.159554
0.160744
0.161873
0.162965
0.164007
0.164973
0.165867
0.166694
0.167468
0.168194
0.168888
0.169553
0.170196
0.170822
0.171438
0.172046
0.172648
0.173245
0.173836
0.17442
0.174996
0.175562
0.176117
0.176661
0.177193
0.177713
0.178222
0.17872
0.179204
0.179675
0.180133
0.180581
0.181017
0.181442
0.181856
0.182263
0.182653
0.183026
0.183385
0.18373
0.184063
0.184384
0.184693
0.184991
0.185278
0.185553
0.185818
0.186072
0.186317
0.186552
0.186779
0.186996
0.18721
0.187412
0.187617
0.187807
0.188009
0.188189
0.188395
0.188565
0.188788
0.188944
0.189197
0.18934
0.189636
0.189747
0.190133
0.190018
0.190924
0.0422339
0.0446891
0.0470739
0.0498633
0.0523409
0.0547445
0.0573262
0.0600325
0.0629681
0.065943
0.0690096
0.0720831
0.0751585
0.0782881
0.0813302
0.0842252
0.0870971
0.0898932
0.0925136
0.0949662
0.09729
0.0995605
0.101867
0.104178
0.10648
0.108756
0.110994
0.113207
0.115343
0.117463
0.119544
0.121373
0.123243
0.124983
0.126826
0.128633
0.130275
0.131825
0.133293
0.134704
0.136043
0.137352
0.138601
0.139821
0.141016
0.142197
0.143364
0.144519
0.14566
0.146783
0.147888
0.148972
0.150034
0.151075
0.152093
0.153089
0.154062
0.155014
0.155944
0.156854
0.15774
0.158607
0.15945
0.160265
0.161059
0.161838
0.162596
0.163335
0.164056
0.164758
0.165441
0.166103
0.166744
0.167365
0.167964
0.168543
0.169102
0.169644
0.170166
0.170673
0.171162
0.171639
0.172099
0.172552
0.172986
0.173421
0.173833
0.174256
0.174649
0.17507
0.175442
0.175874
0.176222
0.176674
0.176996
0.177487
0.177762
0.178343
0.178349
0.179503
0.0291816
0.0300408
0.0308498
0.0316926
0.0325822
0.0334329
0.0343251
0.0351695
0.036031
0.0370024
0.0380138
0.0389135
0.0403858
0.0413824
0.0427374
0.0435994
0.0447034
0.046056
0.0472672
0.0485043
0.0500334
0.0519088
0.0541133
0.0563171
0.0585676
0.0608446
0.0631799
0.0655447
0.0679218
0.0703393
0.0727589
0.0751485
0.0774823
0.0797804
0.0820417
0.0842734
0.0864377
0.088548
0.0906005
0.0925851
0.0944227
0.0962813
0.0979258
0.0996545
0.101395
0.10317
0.104944
0.106715
0.108475
0.110219
0.11194
0.113639
0.115309
0.116953
0.118564
0.120148
0.121696
0.123218
0.124702
0.126158
0.127565
0.128955
0.130267
0.131532
0.132805
0.134068
0.13528
0.136462
0.137612
0.138737
0.13983
0.14089
0.141919
0.142919
0.14389
0.144835
0.145752
0.146646
0.147513
0.14836
0.149181
0.149985
0.150764
0.151531
0.152272
0.153009
0.153715
0.154432
0.155108
0.155817
0.156466
0.157179
0.157791
0.158517
0.159082
0.15983
0.160323
0.161177
0.161362
0.162813
0.025948
0.0261657
0.0262973
0.0263669
0.0264011
0.0263904
0.0263337
0.0262342
0.0260805
0.0258705
0.0256367
0.0253593
0.0250037
0.0245713
0.0242599
0.0240007
0.0239849
0.0238307
0.0237789
0.0235802
0.0236542
0.0237701
0.0242041
0.0245587
0.0249177
0.0254456
0.0262219
0.0270524
0.0279964
0.0290343
0.0301599
0.0313796
0.0326503
0.0339995
0.035401
0.0368746
0.038345
0.0399392
0.0414833
0.0432173
0.0450848
0.047104
0.0491728
0.051318
0.0535356
0.0558255
0.0581603
0.060542
0.062937
0.0653317
0.0677094
0.0700654
0.0723857
0.0746766
0.0769185
0.0791346
0.0812877
0.0834299
0.0854868
0.0874739
0.0893691
0.091216
0.0930154
0.0947864
0.0965143
0.0982251
0.0999026
0.101553
0.103177
0.104798
0.106347
0.107855
0.109345
0.110807
0.112232
0.113628
0.114986
0.116318
0.117611
0.118879
0.120107
0.121313
0.122479
0.123629
0.12474
0.125847
0.126907
0.127984
0.128998
0.130053
0.131038
0.132075
0.132965
0.134015
0.134866
0.135902
0.136622
0.137871
0.13832
0.140113
0.0231826
0.0227819
0.0223292
0.0219103
0.0214551
0.0209506
0.0203884
0.0198235
0.0192316
0.0186497
0.0180691
0.0174832
0.0169436
0.0163738
0.0157524
0.0151412
0.0144895
0.0139135
0.0134547
0.0130369
0.0127149
0.0124312
0.0122259
0.0120504
0.0119409
0.011831
0.0118212
0.0117697
0.0118761
0.0118565
0.0119504
0.0121053
0.0122959
0.0125394
0.0128135
0.0131217
0.0134137
0.0138273
0.0142123
0.0146153
0.0152748
0.0158283
0.0164489
0.0171959
0.0180558
0.019052
0.0201298
0.0212876
0.022521
0.0238622
0.0252893
0.0268099
0.0284041
0.0300775
0.0318153
0.0336177
0.0354807
0.0373882
0.0393617
0.0414445
0.0435922
0.0458164
0.0480448
0.0503
0.0525424
0.0547909
0.0570127
0.0592245
0.0613951
0.0635463
0.0656476
0.0677162
0.0697252
0.0717031
0.0736183
0.0755046
0.0773288
0.0791276
0.0808404
0.0825179
0.0841147
0.0856934
0.0872079
0.0887313
0.0901853
0.0916714
0.0930738
0.0945393
0.0958978
0.0973555
0.0986724
0.100139
0.101399
0.102873
0.104096
0.105669
0.106725
0.108507
0.109328
0.111447
0.0154494
0.0148953
0.0142616
0.0135603
0.0128828
0.0123066
0.0118093
0.0113791
0.0109974
0.010656
0.0103408
0.0100475
0.00976666
0.00949895
0.00923886
0.00898913
0.0087539
0.00853105
0.00832792
0.00814135
0.00797741
0.00783114
0.0077053
0.0075941
0.00749751
0.00741448
0.00733782
0.00727425
0.00722017
0.00716896
0.00711698
0.00708707
0.00704805
0.00705493
0.00703082
0.00703618
0.00708248
0.00704453
0.00705335
0.00709962
0.00716117
0.00723011
0.00732739
0.00741102
0.00747649
0.00759511
0.00768048
0.00808111
0.00792028
0.0081456
0.00837034
0.00866358
0.00897738
0.0093553
0.00974597
0.0102126
0.0106928
0.0112636
0.0118501
0.012542
0.0132589
0.0140962
0.0149641
0.0159589
0.0169827
0.0181345
0.0193086
0.0206088
0.0219201
0.0233519
0.0247814
0.0263244
0.0278493
0.0294818
0.0310806
0.0327842
0.0344376
0.0361963
0.0379166
0.0397649
0.0415522
0.0434662
0.0452737
0.0472069
0.0490026
0.0509465
0.0527161
0.0546667
0.0563971
0.0583545
0.0600306
0.0619986
0.0635959
0.0655838
0.0670702
0.0691144
0.0704579
0.0725821
0.0735054
0.0764473
0.00822674
0.00825829
0.00821969
0.00814005
0.00803046
0.0079041
0.00777058
0.00763648
0.00750471
0.00737708
0.00725342
0.0071339
0.00701794
0.0069058
0.00679751
0.00669369
0.00659484
0.00650167
0.00641444
0.0063337
0.00625923
0.00619135
0.00612904
0.00607291
0.00602085
0.00597452
0.00593074
0.00589186
0.00585456
0.00582151
0.00578896
0.00576063
0.0057315
0.00570808
0.00568255
0.00566288
0.0056454
0.00562496
0.00561106
0.00559804
0.00558645
0.00557583
0.00556708
0.00555919
0.00555389
0.00554741
0.00554679
0.00554302
0.00554209
0.00554273
0.00555167
0.00556128
0.00558076
0.00560353
0.0056133
0.00565119
0.00566985
0.00572101
0.00574981
0.00582293
0.00586636
0.00596941
0.00603412
0.00617329
0.0062694
0.00645635
0.00658979
0.00682746
0.00700346
0.00730387
0.00753166
0.00790498
0.00819346
0.00865004
0.00900743
0.00955597
0.00998955
0.0106384
0.0111544
0.0119172
0.0125248
0.0134179
0.0141267
0.0151656
0.0159786
0.0171744
0.0180926
0.0194469
0.0204585
0.0219641
0.0230521
0.0247016
0.0258399
0.0276328
0.0287971
0.0307302
0.0319038
0.0339753
0.034962
0.0379477
0.00678146
0.00672309
0.00663522
0.00654338
0.00645346
0.00636846
0.00629076
0.00622024
0.00615669
0.00609837
0.00604421
0.00599246
0.00594251
0.00589344
0.00584535
0.00579806
0.00575196
0.00570713
0.00566391
0.00562235
0.00558257
0.00554456
0.0055082
0.00547355
0.00544038
0.00540885
0.0053787
0.0053503
0.00532308
0.00529789
0.00527377
0.0052518
0.00523067
0.00521161
0.00519384
0.00517795
0.0051624
0.00514874
0.00513574
0.00512371
0.0051121
0.00510114
0.00509043
0.00508064
0.00507118
0.00506309
0.0050527
0.00504494
0.00503477
0.00502869
0.00501906
0.00501284
0.00500351
0.00499832
0.0049904
0.00498689
0.00497863
0.00497734
0.00496925
0.00496874
0.00496442
0.00496165
0.00496267
0.00496247
0.00496113
0.00497193
0.00496567
0.00498072
0.00499233
0.00500897
0.00502079
0.00504843
0.00506643
0.00510458
0.00512867
0.00517541
0.00520597
0.00526581
0.00530489
0.00538364
0.00543634
0.00553906
0.00560633
0.00574596
0.00584165
0.00602006
0.00615269
0.00638136
0.00655488
0.00683552
0.00704991
0.00740804
0.00768015
0.00812639
0.00844294
0.00903254
0.00938381
0.0100979
0.0106371
0.0115877
0.00591213
0.00589231
0.0058656
0.00583374
0.00579961
0.00576447
0.00572965
0.00569484
0.00566056
0.00562599
0.00559168
0.00555696
0.00552266
0.00548825
0.00545466
0.00542133
0.00538906
0.0053572
0.00532639
0.005296
0.00526659
0.00523761
0.00520959
0.00518215
0.00515577
0.00513021
0.00510586
0.00508255
0.00506054
0.00503965
0.00501999
0.00500141
0.00498386
0.0049672
0.00495127
0.00493601
0.00492123
0.00490696
0.00489298
0.00487943
0.0048661
0.0048532
0.00484049
0.00482829
0.00481622
0.00480486
0.0047935
0.00478309
0.00477249
0.00476294
0.00475311
0.00474424
0.00473511
0.0047267
0.0047181
0.00471002
0.00470174
0.00469391
0.00468586
0.00467823
0.00467047
0.00466315
0.00465554
0.00464873
0.00464014
0.00463393
0.00462449
0.00461883
0.00461013
0.00460705
0.00459933
0.00459858
0.00459182
0.00459293
0.00458735
0.00458947
0.00458565
0.004588
0.00458653
0.00458926
0.00459056
0.004594
0.00459918
0.00460175
0.00461594
0.00464347
0.00465296
0.00465958
0.00467331
0.00467552
0.00469452
0.00472447
0.00473675
0.00477583
0.00479965
0.00485159
0.00488321
0.00495109
0.00501
0.00511142
0.00536074
0.00535325
0.00533993
0.00532017
0.00529622
0.00526931
0.00524171
0.00521365
0.00518644
0.00515938
0.00513327
0.00510699
0.00508127
0.00505493
0.00502885
0.00500191
0.00497524
0.00494785
0.00492113
0.00489412
0.00486836
0.00484284
0.00481905
0.00479584
0.00477457
0.00475398
0.00473528
0.00471714
0.00470068
0.00468456
0.00466985
0.00465526
0.00464182
0.00462831
0.00461572
0.00460296
0.00459097
0.0045788
0.0045673
0.00455575
0.00454478
0.00453396
0.00452365
0.00451371
0.00450424
0.00449524
0.0044868
0.00447872
0.00447136
0.00446407
0.00445769
0.00445099
0.00444535
0.00443902
0.00443384
0.00442765
0.00442264
0.00441652
0.00441145
0.00440546
0.0044002
0.00439453
0.00438918
0.00438399
0.00437877
0.00437421
0.00436921
0.00436514
0.00436055
0.00435696
0.00435297
0.00434988
0.00434647
0.00434406
0.0043409
0.00433943
0.00433605
0.00433557
0.0043318
0.00433226
0.00432853
0.00432904
0.00432543
0.0043253
0.00432231
0.004323
0.00432243
0.0043225
0.00432553
0.00432741
0.0043307
0.00432939
0.00433251
0.00432956
0.00433343
0.00433003
0.00433482
0.00433072
0.00433344
0.00433443
0.00494193
0.00494128
0.00493422
0.00492292
0.00490881
0.00489191
0.00487364
0.0048536
0.004833
0.0048112
0.00478936
0.00476672
0.00474447
0.00472177
0.00469987
0.00467784
0.00465696
0.00463616
0.00461674
0.00459746
0.00457965
0.00456191
0.00454562
0.00452927
0.00451431
0.00449918
0.00448543
0.0044714
0.00445876
0.00444578
0.00443421
0.00442225
0.00441173
0.00440076
0.00439125
0.00438121
0.00437265
0.00436349
0.00435579
0.0043474
0.00434045
0.00433271
0.00432636
0.00431913
0.00431325
0.00430641
0.00430089
0.00429433
0.0042891
0.00428277
0.00427783
0.00427171
0.00426708
0.00426121
0.00425695
0.00425137
0.00424753
0.00424229
0.00423886
0.00423398
0.00423093
0.00422642
0.00422367
0.0042195
0.00421697
0.00421308
0.0042107
0.00420701
0.00420473
0.00420116
0.00419897
0.00419545
0.00419336
0.00418987
0.00418789
0.00418444
0.00418255
0.00417918
0.00417736
0.00417411
0.00417237
0.00416922
0.00416758
0.00416449
0.00416301
0.00415989
0.00415881
0.00415542
0.00415496
0.00415126
0.00415121
0.00414753
0.00414717
0.00414404
0.00414298
0.00414068
0.00414075
0.00413866
0.00412558
0.0041434
0.00463635
0.00463806
0.00463506
0.00462867
0.00462002
0.00460894
0.0045967
0.0045829
0.00456875
0.00455365
0.00453872
0.00452313
0.00450799
0.0044923
0.00447723
0.0044617
0.00444697
0.00443189
0.00441783
0.00440355
0.00439048
0.00437724
0.00436529
0.00435313
0.00434223
0.00433096
0.00432089
0.00431026
0.00430077
0.00429057
0.0042815
0.00427165
0.00426298
0.0042535
0.00424531
0.00423631
0.00422873
0.0042203
0.00421342
0.00420565
0.00419948
0.00419235
0.00418686
0.0041803
0.00417538
0.00416927
0.00416479
0.00415902
0.00415487
0.00414937
0.00414546
0.00414018
0.00413648
0.00413142
0.00412794
0.00412311
0.00411988
0.00411529
0.00411233
0.00410798
0.00410531
0.00410116
0.00409877
0.00409475
0.00409263
0.00408865
0.00408677
0.00408279
0.00408107
0.00407709
0.00407546
0.00407151
0.0040699
0.00406602
0.00406442
0.00406063
0.00405907
0.00405535
0.0040539
0.00405022
0.00404893
0.00404525
0.0040442
0.00404045
0.00403972
0.0040359
0.00403542
0.00403172
0.00403121
0.00402795
0.00402714
0.00402432
0.00402326
0.00402074
0.00401959
0.00401714
0.00401444
0.00401251
0.00402296
0.00399928
0.00442096
0.00442373
0.00442304
0.00441959
0.00441445
0.00440728
0.00439922
0.00438968
0.00437976
0.00436875
0.00435774
0.00434591
0.0043344
0.00432227
0.00431071
0.00429867
0.0042874
0.00427572
0.00426494
0.00425376
0.00424356
0.00423293
0.00422333
0.00421326
0.00420428
0.00419477
0.00418641
0.00417747
0.00416973
0.00416135
0.00415422
0.00414639
0.00413984
0.00413251
0.0041265
0.00411961
0.00411408
0.00410758
0.00410247
0.0040963
0.00409156
0.00408569
0.00408128
0.00407567
0.00407157
0.00406619
0.00406238
0.00405724
0.0040537
0.00404878
0.0040455
0.00404078
0.00403774
0.00403321
0.00403039
0.00402602
0.00402341
0.00401917
0.00401673
0.0040126
0.00401032
0.00400626
0.00400412
0.00400013
0.00399812
0.00399417
0.00399229
0.00398839
0.00398662
0.00398278
0.00398111
0.00397735
0.00397577
0.00397209
0.00397061
0.00396702
0.00396565
0.00396213
0.00396088
0.00395744
0.00395631
0.00395295
0.00395192
0.00394866
0.0039477
0.00394455
0.00394363
0.00394061
0.0039397
0.0039368
0.00393591
0.00393311
0.00393219
0.00392952
0.0039285
0.00392602
0.00392487
0.0039226
0.00392169
0.00391799
0.00426657
0.00426952
0.00427027
0.00426867
0.00426572
0.00426101
0.00425557
0.00424877
0.00424165
0.00423346
0.00422528
0.00421627
0.00420753
0.00419812
0.0041892
0.00417973
0.00417092
0.00416163
0.00415313
0.00414417
0.00413609
0.00412753
0.00411991
0.00411175
0.00410457
0.0040968
0.00409004
0.00408262
0.00407627
0.0040692
0.00406324
0.00405652
0.00405098
0.0040446
0.00403947
0.00403345
0.00402872
0.00402303
0.00401869
0.00401332
0.00400933
0.00400423
0.00400056
0.00399571
0.00399233
0.00398769
0.00398456
0.0039801
0.0039772
0.00397289
0.00397019
0.003966
0.00396347
0.00395937
0.00395699
0.00395295
0.00395069
0.00394669
0.00394453
0.00394057
0.0039385
0.00393458
0.00393259
0.0039287
0.0039268
0.00392295
0.00392115
0.00391735
0.00391564
0.00391192
0.00391031
0.00390665
0.00390516
0.00390158
0.0039002
0.00389671
0.00389545
0.00389205
0.0038909
0.00388759
0.00388655
0.00388334
0.00388239
0.00387928
0.00387839
0.0038754
0.00387456
0.00387166
0.00387086
0.00386804
0.00386728
0.00386452
0.00386375
0.0038611
0.00386023
0.00385775
0.00385676
0.00385446
0.00385354
0.00385005
0.00415383
0.00415666
0.00415821
0.00415764
0.00415598
0.00415273
0.00414891
0.00414384
0.00413851
0.00413218
0.00412588
0.00411876
0.00411192
0.00410439
0.00409731
0.00408963
0.00408256
0.00407493
0.00406802
0.00406057
0.00405391
0.00404672
0.00404038
0.00403348
0.00402749
0.0040209
0.00401526
0.00400898
0.0040037
0.00399772
0.00399278
0.00398706
0.00398245
0.00397698
0.00397267
0.00396744
0.00396341
0.0039584
0.00395463
0.00394983
0.00394631
0.00394169
0.0039384
0.00393395
0.00393088
0.00392659
0.00392373
0.00391958
0.0039169
0.00391287
0.00391038
0.00390645
0.00390413
0.00390028
0.00389811
0.00389434
0.00389231
0.0038886
0.00388669
0.00388304
0.00388124
0.00387766
0.00387595
0.00387243
0.0038708
0.00386734
0.0038658
0.00386239
0.00386094
0.00385758
0.00385621
0.0038529
0.00385162
0.00384836
0.00384716
0.00384395
0.00384282
0.00383968
0.00383861
0.00383554
0.00383453
0.00383152
0.00383057
0.00382761
0.00382673
0.0038238
0.00382301
0.0038201
0.00381936
0.00381651
0.00381577
0.00381301
0.00381222
0.00380958
0.00380869
0.00380629
0.00380523
0.00380312
0.00380167
0.00379913
0.00406896
0.00407193
0.00407385
0.00407388
0.00407303
0.00407074
0.004068
0.00406409
0.00406
0.00405493
0.00404994
0.00404412
0.00403858
0.00403234
0.00402654
0.00402012
0.00401427
0.00400784
0.00400209
0.00399578
0.00399022
0.0039841
0.00397877
0.00397287
0.00396781
0.00396214
0.00395737
0.00395194
0.00394744
0.00394224
0.00393803
0.00393304
0.0039291
0.00392432
0.00392062
0.00391603
0.00391257
0.00390815
0.00390491
0.00390065
0.00389761
0.0038935
0.00389063
0.00388666
0.00388396
0.00388011
0.00387755
0.00387381
0.00387139
0.00386774
0.00386545
0.00386186
0.0038597
0.00385615
0.00385412
0.00385061
0.00384869
0.00384522
0.00384341
0.00383998
0.00383827
0.00383488
0.00383325
0.00382994
0.00382836
0.00382512
0.00382359
0.00382044
0.00381896
0.00381588
0.00381446
0.00381143
0.00381009
0.00380711
0.00380585
0.00380291
0.00380171
0.00379883
0.00379769
0.00379487
0.00379377
0.00379101
0.00378997
0.00378724
0.00378629
0.00378355
0.00378271
0.00377993
0.0037792
0.00377642
0.00377572
0.00377303
0.00377224
0.00376969
0.00376879
0.00376648
0.00376544
0.00376326
0.00376195
0.00375943
0.00400443
0.00400741
0.00400953
0.00400994
0.00400964
0.00400799
0.00400601
0.0040029
0.0039997
0.00399554
0.00399151
0.00398667
0.00398215
0.0039769
0.00397212
0.00396667
0.00396181
0.00395632
0.0039515
0.00394606
0.00394136
0.00393604
0.00393152
0.00392635
0.00392203
0.00391703
0.00391292
0.0039081
0.00390422
0.00389957
0.00389591
0.00389143
0.00388797
0.00388365
0.0038804
0.00387622
0.00387316
0.00386912
0.00386624
0.00386233
0.00385961
0.00385582
0.00385325
0.00384958
0.00384714
0.00384358
0.00384125
0.0038378
0.00383558
0.00383222
0.00383011
0.00382681
0.00382481
0.00382157
0.00381967
0.00381647
0.00381467
0.0038115
0.0038098
0.00380666
0.00380504
0.00380193
0.00380037
0.00379732
0.00379578
0.00379282
0.00379128
0.00378842
0.00378686
0.00378411
0.00378254
0.00377988
0.00377831
0.00377573
0.00377419
0.00377168
0.00377016
0.00376773
0.00376622
0.00376388
0.00376237
0.00376012
0.00375862
0.00375645
0.003755
0.0037528
0.00375155
0.00374915
0.0037482
0.00374563
0.00374475
0.00374242
0.00374112
0.00373948
0.00373724
0.00373606
0.00373419
0.00373233
0.00373081
0.00372874
0.0039562
0.00395902
0.00396115
0.00396172
0.00396173
0.0039605
0.00395902
0.00395648
0.00395391
0.0039504
0.00394708
0.00394293
0.00393912
0.00393457
0.00393051
0.00392575
0.00392158
0.00391674
0.00391259
0.00390776
0.00390371
0.00389895
0.00389503
0.00389039
0.00388663
0.00388212
0.00387854
0.00387416
0.00387077
0.00386653
0.00386331
0.0038592
0.00385616
0.00385217
0.0038493
0.00384542
0.00384271
0.00383893
0.00383638
0.0038327
0.00383029
0.00382669
0.00382441
0.0038209
0.00381874
0.0038153
0.00381325
0.00380988
0.00380793
0.00380463
0.00380277
0.00379954
0.00379776
0.00379458
0.00379287
0.00378975
0.00378811
0.00378504
0.00378345
0.00378042
0.0037789
0.00377589
0.00377445
0.00377143
0.00377009
0.00376706
0.00376581
0.00376277
0.00376159
0.00375858
0.00375743
0.00375449
0.00375332
0.0037505
0.00374928
0.00374659
0.00374535
0.00374274
0.00374153
0.00373894
0.00373784
0.00373519
0.00373428
0.0037315
0.0037308
0.00372793
0.00372731
0.00372457
0.00372372
0.00372143
0.00372011
0.00371831
0.00371667
0.00371526
0.0037131
0.00371175
0.00370869
0.00370695
0.00371636
0.0036954
0.00391933
0.003922
0.00392409
0.00392476
0.00392497
0.00392402
0.00392288
0.00392071
0.00391856
0.00391551
0.00391266
0.00390901
0.0039057
0.00390167
0.00389811
0.00389385
0.00389019
0.00388584
0.00388216
0.0038778
0.00387418
0.00386986
0.00386635
0.0038621
0.00385873
0.00385457
0.00385135
0.00384729
0.00384423
0.00384027
0.00383736
0.00383351
0.00383076
0.003827
0.0038244
0.00382073
0.00381828
0.00381469
0.00381237
0.00380886
0.00380668
0.00380322
0.00380117
0.00379777
0.00379584
0.00379249
0.00379067
0.00378736
0.00378565
0.00378237
0.00378077
0.00377751
0.00377601
0.00377277
0.00377137
0.00376814
0.00376683
0.0037636
0.00376238
0.00375915
0.00375801
0.00375478
0.00375372
0.00375049
0.0037495
0.00374627
0.00374535
0.00374211
0.00374126
0.00373802
0.00373725
0.00373401
0.00373331
0.00373006
0.00372945
0.00372619
0.00372567
0.0037224
0.00372196
0.0037187
0.00371833
0.00371508
0.00371477
0.00371155
0.00371129
0.00370806
0.00370791
0.00370462
0.00370459
0.00370125
0.00370133
0.00369791
0.00369811
0.00369478
0.00369478
0.00369133
0.00369154
0.00368725
0.00369633
0.00367511
0.00389119
0.00389369
0.00389567
0.00389634
0.00389663
0.00389583
0.00389488
0.00389296
0.00389106
0.00388832
0.00388577
0.00388245
0.00387947
0.00387578
0.00387254
0.00386864
0.00386529
0.00386128
0.00385791
0.00385388
0.00385055
0.00384655
0.00384331
0.00383937
0.00383624
0.00383238
0.00382939
0.00382561
0.00382275
0.00381906
0.00381635
0.00381274
0.00381017
0.00380664
0.0038042
0.00380074
0.00379843
0.00379505
0.00379286
0.00378954
0.00378747
0.0037842
0.00378224
0.00377902
0.00377716
0.00377399
0.00377222
0.00376908
0.00376742
0.0037643
0.00376274
0.00375963
0.00375817
0.00375506
0.0037537
0.00375058
0.00374931
0.00374618
0.003745
0.00374187
0.00374075
0.00373764
0.00373656
0.00373348
0.00373242
0.00372939
0.00372834
0.00372535
0.00372433
0.00372136
0.0037204
0.00371742
0.00371655
0.00371352
0.0037128
0.00370968
0.00370911
0.00370592
0.00370548
0.00370226
0.00370191
0.00369869
0.0036984
0.00369521
0.00369494
0.0036918
0.00369156
0.0036884
0.00368831
0.003685
0.00368516
0.00368165
0.00368199
0.00367857
0.00367857
0.00367528
0.00367674
0.0036723
0.0036711
0.00366833
0.00386827
0.0038706
0.00387248
0.00387313
0.00387348
0.00387276
0.00387194
0.00387018
0.00386848
0.00386594
0.00386362
0.00386054
0.0038578
0.00385437
0.0038514
0.00384776
0.00384466
0.00384092
0.00383781
0.00383404
0.00383096
0.00382721
0.0038242
0.0038205
0.0038176
0.00381397
0.00381117
0.00380762
0.00380495
0.00380146
0.00379892
0.00379551
0.00379309
0.00378974
0.00378744
0.00378415
0.00378196
0.00377873
0.00377665
0.00377347
0.00377149
0.00376835
0.00376646
0.00376338
0.00376156
0.00375852
0.00375679
0.00375378
0.00375212
0.00374914
0.00374756
0.0037446
0.00374309
0.00374014
0.00373872
0.00373576
0.00373442
0.00373145
0.00373019
0.00372722
0.00372602
0.00372305
0.00372189
0.00371896
0.0037178
0.00371494
0.00371377
0.00371098
0.00370979
0.00370707
0.00370588
0.0037032
0.00370206
0.00369938
0.00369833
0.00369561
0.00369466
0.00369193
0.00369105
0.00368833
0.00368749
0.00368482
0.00368399
0.00368138
0.00368058
0.00367795
0.00367731
0.00367448
0.0036742
0.00367103
0.00367103
0.00366787
0.00366761
0.00366494
0.00366402
0.00366202
0.00366214
0.00366015
0.00364862
0.00366381
0.00384951
0.00385167
0.00385347
0.00385409
0.00385448
0.00385384
0.00385315
0.00385153
0.00385002
0.00384766
0.00384556
0.00384269
0.00384021
0.00383699
0.00383427
0.00383085
0.00382802
0.00382449
0.00382161
0.00381804
0.00381519
0.00381162
0.00380882
0.00380528
0.00380255
0.00379906
0.00379643
0.00379299
0.00379046
0.00378707
0.00378464
0.00378131
0.00377898
0.00377569
0.00377347
0.00377023
0.00376811
0.00376491
0.00376289
0.00375973
0.0037578
0.00375468
0.00375284
0.00374975
0.00374799
0.00374494
0.00374324
0.00374023
0.0037386
0.00373563
0.00373405
0.00373112
0.0037296
0.00372669
0.00372523
0.00372235
0.00372094
0.00371808
0.00371673
0.00371387
0.00371258
0.00370971
0.00370851
0.00370561
0.0037045
0.00370155
0.00370055
0.00369757
0.00369665
0.00369366
0.00369279
0.00368984
0.00368896
0.0036861
0.0036852
0.00368243
0.00368152
0.0036788
0.00367794
0.00367521
0.00367447
0.00367166
0.00367111
0.00366814
0.00366784
0.0036647
0.00366457
0.00366142
0.00366121
0.00365835
0.00365783
0.0036553
0.00365455
0.00365226
0.00365141
0.00364919
0.003647
0.00364512
0.00365458
0.0036336
0.00383594
0.0038379
0.00383956
0.00384009
0.00384046
0.00383983
0.0038392
0.00383765
0.00383624
0.00383399
0.00383201
0.00382925
0.00382689
0.00382377
0.00382116
0.00381781
0.00381506
0.00381158
0.00380876
0.0038052
0.00380239
0.00379879
0.00379601
0.00379241
0.00378968
0.00378611
0.00378344
0.00377991
0.00377734
0.00377385
0.00377138
0.00376795
0.00376559
0.00376221
0.00375996
0.00375664
0.0037545
0.00375124
0.00374921
0.003746
0.00374408
0.00374091
0.00373907
0.00373594
0.00373418
0.0037311
0.00372942
0.00372638
0.00372479
0.00372178
0.00372027
0.0037173
0.00371587
0.00371293
0.00371157
0.00370865
0.00370737
0.00370447
0.00370327
0.00370036
0.00369924