/*--------------------------------*- C++ -*----------------------------------*\
  =========                 |
  \\      /  F ield         | OpenFOAM: The Open Source CFD Toolbox
   \\    /   O peration     | Website:  https://openfoam.org
    \\  /    A nd           | Version:  8
     \\/     M anipulation  |
\*---------------------------------------------------------------------------*/
FoamFile
{
    version     2.0;
    format      ascii;
    class       volScalarField;
    location    "4.9999766073";
    object      epsilon;
}
// * * * * * * * * * * * * * * * * * * * * * * * * * * * * * * * * * * * * * //

dimensions      [0 2 -3 0 0 0 0];

internalField   nonuniform List<scalar> 
6800
(
416.03
790.407
761.21
663.452
537.881
384.419
241.42
123.142
63.3905
34.934
281.135
691.797
654.618
570.162
398.603
235.477
117.047
58.4805
29.9196
17.2548
344.819
627.372
589.125
457.443
270.648
134.561
65.7293
31.7673
16.4928
9.84366
384.97
545.263
494.843
347.192
174.878
79.414
33.8007
17.0963
9.95388
6.77538
413.704
496.046
449.271
269.351
113.036
44.6088
21.2375
11.9374
7.58722
5.56871
441.33
478.5
402.581
179.962
66.4097
28.7556
14.3845
8.56775
5.8178
4.55079
461.979
472.238
351.561
128.543
49.4473
21.171
11.4756
7.3309
5.20164
4.21746
487.866
482.637
291.531
95.5611
31.9565
15.0674
8.79417
5.9104
4.43604
3.7742
507.762
503.047
246.464
71.4546
27.0316
13.3153
8.00194
5.5016
4.21947
3.6461
536.793
525.139
202.87
53.9136
19.4425
10.4496
6.64806
4.79511
3.83935
3.3985
2595.72
1272.43
994.419
915.745
910.629
964.254
1039.77
1115.5
1164.84
1187.69
2491.76
1220.87
979.809
929.463
971.125
1084.12
1234.39
1395.29
1538.22
1619.53
2304.58
1150.1
959.353
959.563
1087.97
1303.09
1560.21
1799.65
1995.75
2088.86
2082.24
1075.89
946.814
1041.43
1299.63
1645
1949.59
2116.98
2195.44
2175.77
1848.46
1033.73
1009.49
1273.17
1730.72
2109.25
2225.64
2203.83
2059.88
1799.68
1645.89
1076.83
1282.33
1842.31
2291.38
2311.75
2188.43
1838.95
1572.81
1035.6
1472.15
1313.56
1956.22
2478.21
2349.31
2002.04
1481
985.23
774.846
507.929
1386.99
1854.04
2494.91
2244.8
1548.46
1031.99
767.58
559.693
466.393
307.909
1191.23
2046.67
1725
1153.36
860.583
665.967
524.522
398.268
328.422
187.978
860.976
1240.55
1030.54
814.085
649.473
522.358
393.298
279.37
162.851
77.1721
1187.46
1108.59
1029.13
958.577
898.31
847.161
802.148
762.729
728.459
698.161
671.041
646.498
624.016
603.21
583.786
565.536
548.289
531.933
516.376
501.551
487.401
473.888
460.975
448.632
436.827
425.527
414.697
404.301
394.306
384.675
375.378
366.383
357.666
349.201
340.972
332.96
325.152
317.537
310.108
302.863
295.799
288.921
282.231
275.735
269.436
263.339
257.444
251.75
246.256
240.96
235.854
230.931
226.184
221.602
217.176
212.898
208.757
204.745
200.853
197.075
193.404
189.833
186.358
182.974
179.679
176.468
173.341
170.294
167.325
164.432
161.614
158.867
156.19
153.581
151.037
148.555
146.134
143.77
141.462
139.207
137.004
134.85
132.745
130.685
128.672
126.701
124.776
122.89
121.053
119.247
117.499
115.767
114.116
112.441
110.907
109.254
107.896
106.161
105.165
102.856
1637.69
1520.01
1398.14
1290.68
1198.74
1121.18
1054.78
997.997
948.388
904.544
865.316
829.968
797.662
767.822
740.031
714.001
689.506
666.38
644.481
623.707
603.966
585.193
567.323
550.303
534.076
518.586
503.779
489.6
476.001
462.932
450.341
438.19
426.452
415.097
404.104
393.45
383.121
373.102
363.384
353.962
344.83
335.99
327.441
319.184
311.216
303.538
296.144
289.029
282.186
275.605
269.277
263.19
257.331
251.687
246.246
240.997
235.928
231.027
226.284
221.69
217.236
212.914
208.719
204.645
200.686
196.839
193.101
189.466
185.933
182.497
179.156
175.906
172.743
169.666
166.671
163.753
160.912
158.143
155.443
152.81
150.242
147.736
145.29
142.903
140.573
138.296
136.077
133.906
131.795
129.723
127.722
125.74
123.856
121.945
120.199
118.317
116.775
114.804
113.678
111.049
2102.02
1991.43
1839.1
1702.78
1585.02
1484.37
1397.61
1322.34
1255.89
1196.49
1142.82
1093.68
1048.4
1006.44
967.35
930.763
896.374
863.955
833.313
804.309
776.82
750.753
726.013
702.512
680.16
658.866
638.544
619.111
600.496
582.621
565.368
548.74
532.716
517.257
502.334
487.916
473.978
460.499
447.465
434.868
422.703
410.97
399.664
388.787
378.33
368.29
358.653
349.408
340.54
332.032
323.867
316.027
308.492
301.243
294.268
287.552
281.076
274.822
268.778
262.93
257.268
251.783
246.467
241.313
236.316
231.468
226.765
222.201
217.772
213.47
209.293
205.236
201.294
197.462
193.738
190.115
186.59
183.16
179.82
176.566
173.397
170.309
167.3
164.366
161.508
158.72
156.007
153.356
150.784
148.263
145.833
143.428
141.148
138.835
136.731
134.458
132.607
130.234
128.888
125.718
2186.3
2119.92
1981.97
1852
1737.85
1637.64
1549.54
1471.77
1402.37
1339.64
1282.38
1229.66
1180.78
1135.21
1092.53
1052.41
1014.6
978.891
945.106
913.117
882.8
854.062
826.784
800.858
776.176
752.624
730.101
708.518
687.776
667.869
648.814
630.466
612.747
595.596
578.975
562.855
547.213
532.038
517.324
503.074
489.291
475.983
463.15
450.793
438.905
427.478
416.495
405.944
395.804
386.057
376.682
367.659
358.965
350.583
342.489
334.663
327.092
319.764
312.668
305.793
299.13
292.67
286.406
280.329
274.433
268.711
263.16
257.766
252.524
247.429
242.48
237.671
232.998
228.454
224.036
219.738
215.555
211.484
207.519
203.658
199.898
196.234
192.665
189.187
185.8
182.497
179.286
176.15
173.11
170.129
167.261
164.418
161.732
158.998
156.526
153.841
151.668
148.87
147.297
143.527
1727.35
1637.54
1548.22
1471.65
1407.31
1351.55
1301.87
1256.21
1213.92
1174.21
1136.69
1101.08
1067.12
1034.76
1003.82
974.281
945.986
918.87
892.903
868.1
844.453
821.92
800.35
779.661
759.77
740.581
722.028
704.041
686.588
669.583
653.001
636.823
621.043
605.645
590.617
575.935
561.586
547.568
533.896
520.582
507.655
495.123
483.012
471.322
460.048
449.182
438.709
428.614
418.881
409.489
400.419
391.653
383.17
374.953
366.986
359.253
351.74
344.437
337.334
330.425
323.701
317.158
310.789
304.591
298.558
292.687
286.968
281.409
276.006
270.748
265.629
260.641
255.778
251.036
246.408
241.892
237.482
233.176
228.972
224.865
220.855
216.937
213.113
209.377
205.735
202.174
198.709
195.316
192.029
188.793
185.686
182.591
179.68
176.693
174.009
171.063
168.707
165.631
163.925
159.748
939.965
854.054
789.612
745.127
713.808
690.754
674.059
661.099
651.851
644.459
638.485
633.366
628.528
623.866
619.104
614.317
609.355
604.049
598.562
592.975
587.501
581.902
575.858
569.638
563.288
556.799
550.175
543.438
536.557
529.588
522.507
515.266
507.863
500.366
492.79
485.088
477.279
469.389
461.479
453.573
445.772
438.038
430.503
423.104
415.849
408.732
401.758
394.93
388.247
381.703
375.292
369.006
362.838
356.78
350.827
344.974
339.218
333.556
327.988
322.512
317.131
311.842
306.648
301.547
296.538
291.619
286.793
282.053
277.398
272.827
268.339
263.934
259.609
255.363
251.194
247.1
243.08
239.134
235.26
231.457
227.728
224.067
220.481
216.963
213.521
210.143
206.848
203.607
200.464
197.352
194.369
191.372
188.567
185.655
183.063
180.174
177.891
174.867
173.214
169.04
475.016
437.568
405.283
378.854
357.19
338.922
323.761
310.596
299.578
289.915
281.816
274.76
268.325
263.051
258.309
254.252
251.07
248.577
246.439
244.974
244.785
245.112
246.004
248.289
251.273
254.723
258.442
262.298
266.199
270.097
273.88
277.435
280.698
283.658
286.297
288.558
290.449
291.943
293.146
293.983
294.664
294.886
295.25
295.026
294.505
293.696
292.724
291.608
290.364
288.996
287.51
285.907
284.192
282.367
280.44
278.413
276.3
274.1
271.828
269.489
267.095
264.648
262.157
259.614
257.032
254.416
251.769
249.092
246.394
243.67
240.933
238.192
235.44
232.682
229.919
227.157
224.396
221.642
218.898
216.167
213.453
210.757
208.087
205.438
202.826
200.233
197.688
195.157
192.694
190.225
187.859
185.446
183.199
180.821
178.726
176.339
174.476
171.958
170.606
167.021
288.397
265.038
243.833
225.034
208.214
193.038
179.194
166.731
155.226
144.821
135.108
126.221
118.504
111.452
105.179
99.6392
94.8998
90.6383
87.0229
83.9305
81.3963
79.4655
77.9914
77.1804
76.8766
77.0047
77.4089
78.2513
79.5511
81.2381
83.2178
85.4412
87.8513
90.4366
93.1348
95.9091
98.7495
101.603
104.512
107.462
110.515
113.623
116.91
120.376
123.992
127.735
131.564
135.433
139.297
143.108
146.824
150.411
153.837
157.083
160.126
162.959
165.57
167.959
170.131
172.071
173.802
175.298
176.552
177.572
178.389
179.016
179.469
179.773
179.915
179.891
179.803
179.614
179.28
178.847
178.314
177.696
176.993
176.22
175.376
174.474
173.515
172.507
171.456
170.361
169.237
168.073
166.893
165.677
164.462
163.205
161.979
160.685
159.471
158.136
156.961
155.561
154.477
152.951
152.143
149.844
174.388
158.485
143.381
129.586
117.016
105.599
95.2585
85.9511
77.5724
70.0856
63.3214
57.3635
51.8851
47.1918
43.1367
39.6115
36.5495
33.8608
31.5396
29.5164
27.7767
26.2882
25.0119
23.9411
23.03
22.2874
21.6754
21.1992
20.8404
20.6007
20.4865
20.4216
20.4931
20.6407
20.9254
21.272
21.7245
22.2559
22.8252
23.5396
24.2894
25.2073
26.1363
27.1496
28.2967
29.6274
31.129
32.8058
34.6139
36.5709
38.6544
40.8791
43.2103
45.6614
48.1927
50.8213
53.5021
56.2581
59.0373
61.8715
64.7049
67.574
70.4686
73.3922
76.295
79.1833
82.0094
84.7842
87.4626
90.0587
92.5289
94.9009
97.1283
99.2434
101.204
103.048
104.736
106.312
107.736
109.052
110.226
111.3
112.225
113.056
113.758
114.386
114.898
115.361
115.717
116.045
116.276
116.492
116.615
116.754
116.743
116.737
116.702
116.515
116.485
116.14
70.5879
63.4233
56.695
50.6921
45.3982
40.7596
36.6991
33.1524
30.0375
27.299
24.8691
22.711
20.7813
19.0534
17.5046
16.1158
14.8723
13.7603
12.7701
11.891
11.1144
10.431
9.8311
9.30516
8.84392
8.43996
8.08519
7.77315
7.49767
7.25702
7.04363
6.84777
6.67794
6.52297
6.38717
6.27745
6.17198
6.10297
6.04116
5.98384
5.96296
5.97261
6.0015
6.05232
6.14139
6.23714
6.37214
6.5002
6.6926
6.81683
7.03153
7.32312
7.64735
8.04968
8.47668
8.98749
9.51792
10.1427
10.7855
11.5348
12.3049
13.1934
14.1045
15.1447
16.2051
17.4002
18.6072
19.9493
21.2894
22.7609
24.2132
25.79
27.3294
28.9859
30.5874
32.2994
33.9396
35.6855
37.3426
39.1046
40.7589
42.5218
44.1719
45.9457
47.5759
49.3394
50.9232
52.6591
54.1736
55.8684
57.29
58.9383
60.2402
61.8401
62.9991
64.5371
65.5227
67.0129
67.8338
69.3536
20.4455
19.8381
19.0071
18.038
16.9961
15.9341
14.8896
13.8874
12.9411
12.0569
11.2357
10.476
9.77463
9.12845
8.53406
7.98872
7.48963
7.03426
6.61987
6.24383
5.90308
5.59488
5.31585
5.06342
4.83419
4.6262
4.43612
4.26277
4.10314
3.95663
3.82059
3.69473
3.57692
3.46713
3.36387
3.2678
3.17667
3.09307
3.01335
2.94069
2.87234
2.81069
2.75225
2.70045
2.65121
2.60928
2.56964
2.53726
2.50625
2.48259
2.46133
2.44894
2.44015
2.44016
2.44648
2.45757
2.47428
2.50538
2.53348
2.58692
2.6285
2.70923
2.76661
2.88107
2.95834
3.11109
3.2162
3.41179
3.54771
3.78892
3.95879
4.25065
4.45974
4.80837
5.06277
5.47543
5.78166
6.26592
6.62926
7.1927
7.61787
8.26905
8.75969
9.50777
10.0664
10.9199
11.5476
12.5113
13.2052
14.2791
15.03
16.2107
17.0035
18.286
19.1012
20.4731
21.2996
22.7455
23.4189
25.4273
11.4304
10.8612
10.2733
9.68583
9.11534
8.572
8.06208
7.58755
7.14856
6.74286
6.36777
6.0201
5.69703
5.39613
5.11556
4.85395
4.61031
4.38384
4.1739
3.97978
3.8008
3.63609
3.48479
3.34589
3.21842
3.10133
2.9936
2.89428
2.80238
2.71713
2.63754
2.5631
2.49281
2.42657
2.36337
2.30352
2.24606
2.19152
2.139
2.08944
2.04158
1.99658
1.95284
1.91195
1.87198
1.83502
1.79867
1.76521
1.73192
1.70172
1.67144
1.6446
1.61743
1.5935
1.56901
1.54764
1.52587
1.50668
1.4875
1.47078
1.4539
1.4406
1.42689
1.41719
1.4082
1.40256
1.39994
1.39661
1.39618
1.40129
1.40827
1.4248
1.43697
1.46301
1.47956
1.51394
1.53431
1.57597
1.59979
1.64807
1.67546
1.73124
1.76424
1.83115
1.87327
1.95679
2.00871
2.12114
2.18987
2.33846
2.4271
2.62174
2.73545
2.98582
3.13806
3.4353
3.61573
3.97055
4.25392
4.73497
6.98557
6.72106
6.44295
6.15824
5.87468
5.59747
5.33007
5.07426
4.83138
4.60181
4.38607
4.18391
3.99537
3.81976
3.65674
3.50527
3.36474
3.23398
3.11234
2.9987
2.89254
2.7929
2.69941
2.61128
2.5283
2.44984
2.37579
2.30564
2.23936
2.17653
2.11715
2.06088
2.00773
1.95738
1.90981
1.86473
1.82208
1.78161
1.74319
1.70662
1.67175
1.63845
1.60653
1.57592
1.54644
1.51808
1.49065
1.46422
1.43855
1.41385
1.38976
1.36664
1.344
1.32235
1.30109
1.28081
1.26082
1.24182
1.22301
1.2052
1.18743
1.17075
1.15394
1.13842
1.12269
1.10838
1.0937
1.0806
1.06693
1.05494
1.04228
1.03151
1.01995
1.01038
0.999906
0.991443
0.982042
0.9745
0.966128
0.959362
0.951996
0.945998
0.939713
0.934548
0.929839
0.924753
0.923868
0.923473
0.92279
0.92716
0.927794
0.931718
0.936605
0.947211
0.954116
0.971813
0.98286
1.00605
1.03157
1.07096
4.72266
4.58824
4.44393
4.29241
4.13789
3.98361
3.83228
3.68533
3.544
3.40852
3.2793
3.15602
3.03892
2.92763
2.82245
2.72308
2.6298
2.54218
2.46034
2.38364
2.312
2.24465
2.18143
2.12155
2.06492
2.01085
1.95939
1.91
1.86286
1.81756
1.77436
1.7329
1.6935
1.65577
1.62003
1.58585
1.55353
1.52259
1.4933
1.46517
1.43846
1.41265
1.38804
1.36411
1.34118
1.31877
1.2972
1.27605
1.25565
1.23562
1.21628
1.19729
1.17898
1.16099
1.14367
1.12667
1.11028
1.09422
1.0787
1.06351
1.04877
1.03436
1.0203
1.00657
0.993119
0.980005
0.967148
0.954641
0.942388
0.930483
0.91887
0.907548
0.896651
0.885889
0.875762
0.865549
0.856158
0.846459
0.837695
0.828395
0.820074
0.811134
0.803063
0.794297
0.786407
0.777705
0.769624
0.761468
0.753645
0.745701
0.738203
0.730847
0.723648
0.716492
0.709751
0.702505
0.697871
0.690409
0.686743
0.681081
3.53331
3.45623
3.37243
3.28318
3.19092
3.09741
3.00431
2.91243
2.82277
2.73564
2.65166
2.57081
2.49348
2.41942
2.34885
2.28139
2.21722
2.15586
2.09751
2.04169
1.98864
1.93787
1.88966
1.84352
1.79976
1.75785
1.71811
1.67997
1.64379
1.60895
1.57584
1.54383
1.51335
1.48376
1.45554
1.42804
1.40179
1.37612
1.35163
1.32763
1.30474
1.28225
1.26085
1.23977
1.21973
1.19994
1.18117
1.16255
1.14492
1.12736
1.11076
1.09414
1.07845
1.06266
1.04779
1.03273
1.01859
1.0042
0.990743
0.976957
0.964131
0.950912
0.938686
0.925999
0.914348
0.902163
0.891066
0.879352
0.86879
0.857516
0.84747
0.836604
0.827056
0.816568
0.807499
0.797364
0.788755
0.778949
0.770778
0.761277
0.75352
0.744304
0.736936
0.727976
0.720978
0.712246
0.705595
0.697075
0.690756
0.682438
0.67643
0.668303
0.662605
0.654604
0.649242
0.641345
0.636237
0.628471
0.624986
0.613249
2.87444
2.82299
2.76705
2.7071
2.64466
2.58078
2.51657
2.45254
2.38947
2.32751
2.26723
2.20856
2.1519
2.09705
2.04434
1.99348
1.94476
1.89782
1.85293
1.80968
1.76834
1.72847
1.69038
1.65361
1.6185
1.58458
1.55225
1.52099
1.49122
1.46241
1.43499
1.40838
1.38304
1.35834
1.33479
1.31173
1.28971
1.26804
1.24734
1.22687
1.20733
1.18795
1.16948
1.1511
1.13362
1.11619
1.09967
1.08312
1.0675
1.05178
1.03698
1.02203
1.00799
0.993719
0.980377
0.966731
0.954029
0.94095
0.92884
0.916285
0.904733
0.892663
0.881642
0.870028
0.859516
0.848328
0.838302
0.827514
0.817951
0.807536
0.798411
0.788344
0.779636
0.769893
0.761583
0.752144
0.744218
0.735062
0.727511
0.718616
0.711435
0.702778
0.695957
0.687515
0.681039
0.672801
0.666645
0.658598
0.652744
0.644867
0.639308
0.631574
0.626298
0.618654
0.613643
0.606125
0.601487
0.594054
0.589078
0.580731
2.48979
2.45079
2.40877
2.36385
2.3171
2.26912
2.22072
2.17215
2.12401
2.07637
2.02972
1.98398
1.93954
1.89621
1.85432
1.8136
1.77436
1.73629
1.69968
1.66417
1.63007
1.597
1.56527
1.53447
1.50494
1.47622
1.4487
1.42188
1.39619
1.37108
1.34704
1.32349
1.30094
1.27881
1.25764
1.23681
1.21691
1.19726
1.17851
1.15995
1.14227
1.1247
1.10799
1.09132
1.0755
1.05965
1.04464
1.02954
1.01528
1.00085
0.987285
0.973484
0.96056
0.947336
0.935011
0.922322
0.91056
0.898368
0.887138
0.875408
0.864681
0.853382
0.843133
0.832235
0.822442
0.811919
0.80256
0.792386
0.783443
0.773595
0.76505
0.755506
0.747343
0.738083
0.730288
0.721291
0.713852
0.705098
0.698005
0.689475
0.682718
0.674393
0.667964
0.659823
0.653714
0.645742
0.639944
0.632123
0.626629
0.618943
0.613744
0.606175
0.601274
0.593807
0.589158
0.581794
0.577558
0.570153
0.566913
0.556187
2.25463
2.22201
2.18726
2.15034
2.11205
2.07275
2.03306
1.99312
1.95342
1.91396
1.87518
1.83696
1.79966
1.76311
1.7276
1.69291
1.65933
1.62657
1.59494
1.56411
1.53439
1.50542
1.47754
1.45034
1.4242
1.39868
1.37416
1.35018
1.32715
1.30459
1.28293
1.26165
1.24124
1.22113
1.20186
1.18281
1.16458
1.14651
1.12924
1.11208
1.09571
1.07937
1.06383
1.04827
1.0335
1.01865
1.0046
0.990414
0.977032
0.963455
0.9507
0.937691
0.925523
0.913041
0.901426
0.889435
0.878341
0.866807
0.856204
0.845093
0.834955
0.824236
0.814537
0.804183
0.794899
0.784883
0.775996
0.766295
0.757788
0.748379
0.740237
0.731102
0.723313
0.714433
0.706986
0.698346
0.691231
0.682814
0.676023
0.667812
0.661339
0.653317
0.647154
0.639307
0.633447
0.625757
0.620195
0.612646
0.607375
0.599954
0.594967
0.587655
0.582953
0.575739
0.571275
0.564155
0.560092
0.552931
0.549802
0.539477
2.10281
2.07367
2.04295
2.01057
1.97715
1.94294
1.90843
1.87367
1.83908
1.80461
1.77064
1.73706
1.70419
1.67185
1.64037
1.60949
1.57953
1.5502
1.52181
1.49404
1.46722
1.44098
1.41566
1.39088
1.36699
1.34358
1.32104
1.29892
1.27764
1.25671
1.2366
1.21678
1.19775
1.17896
1.16094
1.1431
1.12601
1.10905
1.09283
1.07667
1.06126
1.04585
1.03118
1.01647
1.0025
0.988426
0.975104
0.961627
0.948912
0.935988
0.923843
0.911433
0.899824
0.887893
0.876789
0.865303
0.854677
0.843608
0.833433
0.822753
0.813008
0.802691
0.793355
0.783378
0.774433
0.764773
0.756203
0.746839
0.73863
0.729542
0.721682
0.712853
0.70533
0.696743
0.689545
0.681185
0.674303
0.666154
0.659581
0.651628
0.645355
0.637584
0.631605
0.623999
0.61831
0.610854
0.605449
0.598128
0.593003
0.585802
0.580952
0.57386
0.569271
0.562258
0.557969
0.551092
0.547059
0.540405
0.535966
0.528425
1.99957
1.97246
1.94414
1.91448
1.88403
1.85293
1.8216
1.79005
1.75865
1.72733
1.69644
1.66584
1.63586
1.6063
1.57746
1.54912
1.52156
1.49453
1.46831
1.44261
1.41773
1.39334
1.36977
1.34665
1.32433
1.30242
1.28129
1.26051
1.2405
1.22078
1.2018
1.18307
1.16506
1.14725
1.13015
1.11319
1.09693
1.08076
1.06528
1.04985
1.03511
1.02037
1.00632
0.992209
0.978804
0.96529
0.95249
0.939531
0.927299
0.914857
0.903159
0.891199
0.880007
0.868496
0.857779
0.846687
0.836421
0.825719
0.81588
0.805543
0.796109
0.786113
0.777066
0.767389
0.758712
0.749334
0.741013
0.731915
0.723937
0.715102
0.707456
0.698867
0.691544
0.683186
0.676175
0.668033
0.661327
0.653387
0.646979
0.639227
0.633108
0.625531
0.619697
0.612279
0.606725
0.599452
0.594174
0.587029
0.582023
0.574995
0.570256
0.563333
0.558846
0.552
0.547806
0.541094
0.537146
0.530655
0.526301
0.518947
1.92573
1.89987
1.87304
1.84512
1.81659
1.78752
1.75831
1.7289
1.69964
1.67045
1.64164
1.61308
1.58507
1.55742
1.53042
1.50384
1.47798
1.45256
1.42789
1.40366
1.38019
1.35713
1.33483
1.31292
1.29174
1.27091
1.25081
1.23101
1.21192
1.19309
1.17496
1.15703
1.13979
1.12271
1.1063
1.09
1.07438
1.05882
1.04393
1.02906
1.01485
1.00061
0.987047
0.973411
0.960447
0.947368
0.93497
0.922412
0.910549
0.898477
0.887118
0.875502
0.86462
0.853429
0.843
0.832207
0.822208
0.811787
0.802197
0.792125
0.782925
0.77318
0.764353
0.754915
0.746445
0.737295
0.729168
0.720289
0.712492
0.703867
0.696391
0.688003
0.680838
0.672673
0.66581
0.657852
0.651284
0.643521
0.637241
0.629658
0.62366
0.616245
0.610522
0.60326
0.597809
0.590685
0.585504
0.578502
0.573587
0.566694
0.56204
0.555249
0.55084
0.544124
0.54
0.533418
0.529538
0.523174
0.518898
0.51168
1.87083
1.84577
1.81993
1.79319
1.76597
1.73831
1.71056
1.68264
1.6549
1.62721
1.5999
1.5728
1.54622
1.51996
1.4943
1.46902
1.4444
1.42018
1.39665
1.37352
1.35109
1.32903
1.30768
1.28668
1.26637
1.24637
1.22705
1.208
1.18963
1.17148
1.15399
1.13669
1.12003
1.10352
1.08764
1.07187
1.05673
1.04165
1.0272
1.01276
0.998959
0.985125
0.971933
0.958664
0.946044
0.933305
0.921225
0.908982
0.897411
0.885633
0.874544
0.863202
0.852569
0.841635
0.831435
0.820884
0.811096
0.800904
0.791507
0.781652
0.772631
0.763091
0.754429
0.745185
0.736869
0.727901
0.719921
0.711212
0.703554
0.695089
0.687743
0.679509
0.672464
0.664448
0.657694
0.649883
0.643415
0.635793
0.629606
0.622159
0.616248
0.608962
0.603324
0.596183
0.590815
0.583806
0.578701
0.571815
0.566965
0.560191
0.555593
0.548919
0.544565
0.537958
0.533889
0.527411
0.523584
0.517305
0.513095
0.505985
1.82944
1.80487
1.77967
1.75372
1.72741
1.70073
1.67401
1.64717
1.62051
1.59392
1.56769
1.54166
1.51612
1.49088
1.46622
1.4419
1.41821
1.39488
1.37221
1.3499
1.32826
1.30696
1.28634
1.26602
1.24637
1.22701
1.20829
1.18982
1.172
1.15438
1.13739
1.12057
1.10437
1.0883
1.07285
1.05748
1.04272
1.02801
1.01391
0.999815
0.986338
0.972818
0.959922
0.946944
0.934597
0.922127
0.910297
0.898304
0.886964
0.875419
0.864544
0.853418
0.842984
0.832253
0.822237
0.811876
0.80226
0.792246
0.78301
0.773324
0.764452
0.755072
0.746549
0.737458
0.72927
0.720451
0.712585
0.704024
0.696468
0.688149
0.680893
0.672804
0.665836
0.657964
0.651278
0.64361
0.637198
0.62972
0.623577
0.616275
0.610399
0.603255
0.597645
0.590646
0.585294
0.578435
0.573326
0.566603
0.561726
0.555131
0.550482
0.544003
0.539582
0.533187
0.52899
0.522724
0.518839
0.512679
0.508478
0.501516
1.79733
1.77307
1.7483
1.72289
1.69723
1.67126
1.64529
1.61923
1.59338
1.56759
1.54218
1.51696
1.49222
1.46776
1.44386
1.42028
1.39731
1.37467
1.35268
1.33101
1.31
1.2893
1.26925
1.24949
1.23036
1.2115
1.19328
1.17527
1.15789
1.1407
1.12412
1.10769
1.09186
1.07615
1.06104
1.04599
1.03155
1.01714
1.00333
0.989504
0.976289
0.963022
0.950367
0.937621
0.925495
0.91324
0.901613
0.889819
0.878666
0.867305
0.856601
0.845647
0.835371
0.824799
0.814931
0.804717
0.795239
0.785362
0.776257
0.766694
0.757947
0.748681
0.740278
0.731291
0.723217
0.714495
0.706737
0.698265
0.690812
0.682577
0.675418
0.667408
0.660531
0.652737
0.646132
0.638543
0.632202
0.624805
0.618724
0.611504
0.605681
0.598621
0.593056
0.58614
0.580833
0.574043
0.568993
0.56232
0.557512
0.55096
0.546371
0.539944
0.535568
0.529234
0.525094
0.51885
0.514854
0.508745
0.505988
0.496649
1.77235
1.74824
1.72373
1.6987
1.67349
1.64803
1.62263
1.59716
1.57192
1.54676
1.52198
1.49739
1.47328
1.44943
1.42614
1.40315
1.38075
1.35867
1.33721
1.31607
1.29555
1.27533
1.25573
1.23641
1.21771
1.19925
1.1814
1.16376
1.14673
1.12987
1.1136
1.09747
1.08193
1.06649
1.05164
1.03685
1.02264
1.00845
0.994858
0.981243
0.968223
0.955145
0.942667
0.930095
0.918131
0.906035
0.894556
0.882909
0.871892
0.860666
0.850087
0.83926
0.829099
0.818645
0.808883
0.798781
0.789401
0.77963
0.770615
0.761155
0.752491
0.743323
0.734996
0.726104
0.718101
0.70947
0.701778
0.693395
0.686003
0.677855
0.670752
0.662826
0.656003
0.648289
0.641736
0.634223
0.627931
0.620607
0.614573
0.607423
0.601644
0.594652
0.589128
0.582277
0.577008
0.570282
0.565266
0.558654
0.553878
0.547386
0.542826
0.536458
0.532109
0.525835
0.521716
0.515535
0.511556
0.505494
0.502779
0.493535
1.75372
1.72963
1.70524
1.68042
1.6555
1.63038
1.60537
1.58031
1.55551
1.53081
1.50649
1.48236
1.45871
1.43532
1.41247
1.38991
1.36793
1.34626
1.32519
1.30441
1.28425
1.26436
1.24509
1.22607
1.20766
1.18947
1.17188
1.15449
1.13769
1.12104
1.10499
1.08905
1.0737
1.05843
1.04375
1.02912
1.01507
1.00103
0.987572
0.97409
0.961201
0.948246
0.93589
0.923431
0.911581
0.89959
0.88822
0.876669
0.865756
0.854621
0.844141
0.833399
0.823334
0.812962
0.80329
0.793268
0.783973
0.774281
0.765346
0.755964
0.747374
0.738285
0.730026
0.721212
0.713274
0.704718
0.697089
0.688777
0.681448
0.673366
0.666325
0.658463
0.6517
0.644045
0.637554
0.630093
0.623867
0.616588
0.610623
0.60351
0.597804
0.590842
0.585392
0.578569
0.573368
0.56668
0.561713
0.555157
0.550412
0.54398
0.539456
0.533135
0.528829
0.522591
0.518501
0.512382
0.508589
0.502564
0.498469
0.491698
1.7399
1.71575
1.69137
1.66665
1.64189
1.61698
1.5922
1.56742
1.5429
1.51849
1.49446
1.47063
1.44726
1.42415
1.40156
1.37925
1.3575
1.33605
1.31518
1.2946
1.27461
1.25489
1.23577
1.21689
1.1986
1.18053
1.16306
1.14577
1.12908
1.11253
1.09657
1.08073
1.06549
1.05032
1.03574
1.0212
1.00725
0.993312
0.979964
0.966586
0.953805
0.940948
0.928695
0.91633
0.904582
0.892684
0.881417
0.86996
0.859152
0.848111
0.83774
0.827092
0.817136
0.806857
0.797298
0.787367
0.778186
0.768582
0.759761
0.750464
0.741989
0.732981
0.724838
0.7161
0.708277
0.699793
0.692278
0.684033
0.676815
0.668795
0.661866
0.654057
0.647409
0.639797
0.633422
0.625995
0.619888
0.612634
0.606788
0.599695
0.594105
0.58716
0.581822
0.575014
0.569923
0.56324
0.558392
0.55182
0.547213
0.540742
0.536372
0.529992
0.52585
0.519535
0.515656
0.509463
0.505811
0.499822
0.495785
0.489
1.72891
1.70468
1.68027
1.65559
1.63089
1.60608
1.5814
1.55671
1.53227
1.50792
1.48393
1.46012
1.43675
1.41363
1.391
1.36867
1.34688
1.3254
1.3045
1.28392
1.2639
1.24413
1.22496
1.20604
1.18774
1.16968
1.15225
1.13502
1.11842
1.102
1.08618
1.07051
1.05544
1.04047
1.0261
1.01179
0.998067
0.984359
0.971246
0.958104
0.945558
0.932949
0.920943
0.908831
0.897327
0.885676
0.874642
0.86342
0.852829
0.842009
0.831837
0.821393
0.811619
0.801528
0.792133
0.782374
0.773341
0.763894
0.755207
0.746055
0.7377
0.728823
0.720788
0.712172
0.704444
0.696074
0.688643
0.680504
0.673361
0.665441
0.658578
0.650864
0.644272
0.636752
0.630426
0.623088
0.617022
0.609853
0.604043
0.597031
0.591474
0.584605
0.579298
0.57256
0.567498
0.560881
0.556058
0.549553
0.544965
0.538559
0.534208
0.527888
0.523766
0.517503
0.51365
0.507503
0.503875
0.49791
0.493924
0.487176
1.72044
1.69582
1.67094
1.64592
1.62078
1.59538
1.57004
1.54462
1.51946
1.4944
1.46979
1.44541
1.4216
1.39812
1.3753
1.35284
1.33108
1.30968
1.28901
1.26868
1.24908
1.22986
1.21133
1.19311
1.17553
1.15821
1.14149
1.12498
1.10905
1.09327
1.07807
1.06296
1.04843
1.03395
1.02003
1.00613
0.992789
0.979431
0.966637
0.953788
0.941508
0.929137
0.917344
0.905425
0.894094
0.882601
0.871709
0.86062
0.850147
0.839439
0.829366
0.819019
0.80933
0.799323
0.790001
0.780316
0.771347
0.761966
0.753336
0.744242
0.735937
0.727114
0.719123
0.710555
0.702868
0.694541
0.687146
0.679049
0.671936
0.664057
0.657216
0.649545
0.642968
0.635494
0.629173
0.621885
0.615816
0.608701
0.602881
0.595926
0.590353
0.583543
0.578216
0.571539
0.566452
0.559901
0.555043
0.548614
0.543976
0.537662
0.533238
0.527031
0.522819
0.51669
0.512689
0.506675
0.502967
0.497053
0.493039
0.486358
1.69563
1.66972
1.64413
1.61844
1.59318
1.56814
1.54357
1.51926
1.49545
1.47194
1.44896
1.42629
1.40419
1.3824
1.36119
1.34028
1.31995
1.29991
1.28044
1.26124
1.24261
1.22421
1.20638
1.18875
1.17168
1.15478
1.13844
1.12223
1.10657
1.09102
1.07601
1.06108
1.04669
1.03234
1.01853
1.00473
0.991479
0.9782
0.965477
0.952691
0.94047
0.928151
0.916407
0.904531
0.893241
0.881786
0.870928
0.859872
0.849428
0.838749
0.828702
0.81838
0.808713
0.798729
0.789427
0.779762
0.77081
0.761447
0.752833
0.743753
0.735465
0.726653
0.718678
0.710119
0.702447
0.694127
0.686747
0.678655
0.671557
0.66368
0.656854
0.649185
0.64262
0.63515
0.628838
0.621556
0.615491
0.608387
0.602565
0.595625
0.590046
0.583254
0.577918
0.571258
0.566166
0.559623
0.554773
0.548339
0.543716
0.537396
0.532981
0.526777
0.522566
0.516448
0.512463
0.506435
0.50259
0.496685
0.494043
0.485085
2.93722
3.13627
3.22785
3.55913
3.75112
4.25386
4.94847
6.0762
8.6
20.6338
2.63065
2.75283
2.819
3.01168
3.20662
3.50096
3.88534
4.54535
5.44681
11.8236
2.44738
2.51401
2.54699
2.67383
2.75881
3.00811
3.18588
3.66915
4.0641
7.16359
2.33251
2.36969
2.38593
2.46104
2.50495
2.65828
2.75916
3.0695
3.28592
4.81144
2.23732
2.25848
2.26751
2.3136
2.3385
2.42979
2.48793
2.67471
2.80101
3.58313
2.16542
2.17437
2.17845
2.20508
2.21944
2.27453
2.30824
2.41839
2.49181
2.90279
2.10869
2.10966
2.10965
2.12281
2.13011
2.16243
2.18182
2.24701
2.28931
2.51124
2.0648
2.05958
2.05657
2.06014
2.06239
2.07919
2.08939
2.12691
2.1508
2.27435
2.02995
2.02102
2.01389
2.01076
2.00971
2.01608
2.02014
2.03973
2.0523
2.12259
2.00193
1.9908
1.97994
1.97371
1.96721
1.96665
1.96662
1.97436
1.97967
2.02001
1.97928
1.96698
1.95288
1.94435
1.93402
1.92928
1.92362
1.92383
1.92438
1.94577
1.96201
1.94713
1.93231
1.92022
1.90863
1.89938
1.89107
1.88543
1.88078
1.89047
1.94786
1.93171
1.91519
1.9019
1.88734
1.87711
1.86408
1.85742
1.84516
1.84891
1.93614
1.91996
1.90109
1.88772
1.87018
1.8595
1.84305
1.83491
1.81732
1.81677
1.92676
1.91104
1.88992
1.87674
1.85672
1.84566
1.8266
1.81728
1.79837
1.79187
1.91967
1.90419
1.88159
1.86816
1.84679
1.83474
1.8145
1.80332
1.78432
1.77342
1.91473
1.89822
1.87583
1.8608
1.83991
1.82568
1.80605
1.79214
1.77362
1.75984
1.91126
1.89298
1.87151
1.85452
1.83447
1.8182
1.79915
1.78322
1.76485
1.74909
1.9094
1.89001
1.86874
1.85057
1.83058
1.81313
1.79395
1.77685
1.75813
1.74119
1.90027
1.87849
1.85639
1.83596
1.81498
1.79548
1.77519
1.7563
1.7364
1.71787
3.02019
3.31611
3.85095
4.69082
6.19545
9.34532
18.5773
71.1086
468.006
796.5
3.02396
3.31372
3.88825
4.74345
6.36075
9.88588
20.6215
76.2655
487.509
776.713
3.02453
3.3078
3.89177
4.81092
6.43783
9.8574
20.2903
77.2879
505.427
763.086
3.03143
3.31505
3.90427
4.91825
6.79872
10.7563
23.3562
84.2268
521.863
735.345
3.02677
3.30718
3.89222
4.91991
6.78918
10.7605
22.8593
86.661
532.317
714.74
3.07106
3.3732
3.9911
5.14162
7.3522
12.2163
27.6966
95.9724
547.71
679.156
3.07263
3.38016
3.99659
5.15343
7.38792
12.2879
27.4196
101.675
544.001
649.083
3.16158
3.50492
4.20435
5.55239
8.23803
14.4248
33.6173
113.732
560.634
615.898
3.18641
3.53991
4.25806
5.63467
8.33706
14.8326
36.1464
134.723
556.36
589.179
3.34013
3.75433
4.64444
6.36504
9.82819
18.3284
45.4999
164.176
542.677
557.508
3.16076
3.33705
3.89733
4.65279
7.4383
10.1772
11.9214
88.037
401.122
962.019
3.18571
3.36684
3.91074
4.51808
5.34299
10.9696
14.3352
69.2316
364.676
923.304
3.15252
3.38897
3.91352
4.42691
5.24028
9.51507
14.992
67.9047
373.817
932.187
3.12331
3.40874
3.93954
4.44567
5.42827
8.75468
15.5503
66.7631
383.785
959.808
3.10907
3.40293
3.90273
4.52416
5.64883
8.59439
16.2248
65.7345
388.784
950.988
3.0893
3.38962
3.86701
4.57776
5.81331
8.65677
16.7405
65.6451
407.991
921.282
3.06892
3.3746
3.84561
4.60137
5.91263
8.75618
17.0019
65.3064
409.292
880.231
3.04418
3.35422
3.83035
4.62018
5.98655
8.846
17.4243
67.5328
424.207
858.622
3.01447
3.324
3.81959
4.61683
6.05584
9.05159
17.5827
66.4256
433.218
832.562
3.00291