/*--------------------------------*- C++ -*----------------------------------*\
  =========                 |
  \\      /  F ield         | OpenFOAM: The Open Source CFD Toolbox
   \\    /   O peration     | Website:  https://openfoam.org
    \\  /    A nd           | Version:  8
     \\/     M anipulation  |
\*---------------------------------------------------------------------------*/
FoamFile
{
    version     2.0;
    format      ascii;
    class       volScalarField;
    location    "4.9999766073";
    object      k;
}
// * * * * * * * * * * * * * * * * * * * * * * * * * * * * * * * * * * * * * //

dimensions      [0 2 -2 0 0 0 0];

internalField   nonuniform List<scalar> 
6800
(
6.55251
13.4537
16.1833
15.9425
15.2683
13.8939
10.8299
7.15921
3.99285
2.57112
4.44748
12.7362
15.3659
14.9923
13.7855
10.8203
6.47061
3.62364
2.23519
1.63056
5.43435
13.3681
14.7143
13.9498
11.5857
6.74326
3.70539
2.27891
1.57035
1.15502
6.0775
13.2678
13.9111
12.5415
8.13481
4.3738
2.59428
1.70419
1.17194
0.917137
6.52882
12.9874
13.3315
10.8964
5.75023
3.1227
1.83181
1.26468
0.952332
0.777527
6.99148
13.3367
13.0742
8.50515
4.15075
2.2498
1.51305
1.10817
0.839408
0.698728
7.33481
13.7875
12.538
6.55752
3.19811
1.92911
1.26823
0.912277
0.726358
0.63787
7.79267
15.2426
11.8705
5.00129
2.59025
1.53839
1.08143
0.847562
0.690649
0.610088
8.13397
16.3398
10.2573
4.37679
2.23042
1.41564
1.00947
0.756275
0.632078
0.574096
8.65267
18.5827
9.62156
3.55519
1.85373
1.21462
0.89427
0.723164
0.616875
0.563933
41.1487
59.5044
61.8722
61.6247
62.0317
63.9105
66.6805
69.5775
71.68
72.6288
39.4993
57.2376
60.4001
61.167
62.9114
66.2488
70.6816
75.3743
79.447
81.7842
36.5272
53.3029
57.6391
60.3156
64.3672
69.9472
76.1692
81.4489
85.2738
87.2716
32.9972
48.9406
54.6857
60.1105
67.0129
74.6646
80.0073
82.3552
82.3166
79.5383
29.2881
45.3013
53.5345
62.1672
71.661
77.3662
76.9303
73.6679
68.1739
56.0474
26.069
43.6786
55.6382
67.0489
72.2393
69.6714
62.6224
49.4998
41.1793
28.2895
23.309
44.4708
60.5927
64.508
58.6969
45.4072
32.9934
24.7155
21.766
16.477
21.9455
46.8863
51.4202
43.8218
29.9062
23.0378
19.8762
16.9056
15.4842
12.1734
18.812
35.094
27.6674
22.3298
19.155
17.3408
15.9844
14.1124
12.6679
9.10893
13.6036
18.1366
17.9068
17.4805
16.4414
15.5125
14.1338
11.5376
8.79734
4.79946
72.7859
70.4157
67.6319
65.004
62.6793
60.6565
58.8431
57.2315
55.814
54.5474
53.4015
52.3501
51.3737
50.4579
49.5907
48.7648
47.9756
47.2177
46.4877
45.7836
45.1036
44.4471
43.8133
43.2015
42.6109
42.0403
41.4883
40.9532
40.4334
39.927
39.4326
38.9487
38.474
38.0069
37.5466
37.092
36.6424
36.1972
35.7563
35.3197
34.8878
34.4615
34.0414
33.6286
33.2236
32.8275
32.4405
32.0633
31.6961
31.339
30.992
30.6548
30.3269
30.008
29.6975
29.3948
29.0994
28.8107
28.5282
28.2514
27.98
27.7134
27.4516
27.1943
26.9412
26.6924
26.4478
26.2073
25.9709
25.7385
25.5101
25.2857
25.0651
24.8483
24.6351
24.4255
24.2193
24.0163
23.8165
23.6196
23.4257
23.2346
23.0462
22.8604
22.6773
22.4968
22.3189
22.1437
21.9713
21.8014
21.6348
21.4703
21.3103
21.1504
20.9992
20.8409
20.7041
20.5385
20.4302
20.2219
82.4892
79.5755
76.1689
72.951
70.0861
67.6005
65.427
63.5382
61.864
60.3639
59.003
57.7516
56.5881
55.4959
54.4595
53.4733
52.5317
51.6296
50.7627
49.9284
49.1244
48.3496
47.6025
46.8821
46.1869
45.5153
44.8655
44.2352
43.6228
43.026
42.4437
41.8739
41.3155
40.7666
40.2264
39.6937
39.1681
38.6492
38.1369
37.6314
37.1336
36.6445
36.1645
35.6943
35.2347
34.7862
34.3492
33.9241
33.5109
33.1097
32.72
32.3416
31.974
31.6167
31.2689
30.9301
30.5996
30.2768
29.9612
29.6524
29.3498
29.0531
28.762
28.4763
28.1958
27.9205
27.6503
27.385
27.1245
26.8689
26.618
26.3716
26.1298
25.8922
25.6589
25.4297
25.2043
24.9827
24.7647
24.5502
24.339
24.1311
23.9263
23.7246
23.526
23.3305
23.1381
22.9487
22.7626
22.5795
22.4
22.223
22.051
21.8793
21.717
21.5472
21.4007
21.2233
21.1073
20.8834
88.2983
85.782
82.178
78.7833
75.7716
73.1669
70.9047
68.9313
67.1734
65.5844
64.1301
62.7852
61.5277
60.351
59.2445
58.1908
57.1813
56.2113
55.2761
54.374
53.5032
52.6628
51.8516
51.0681
50.3105
49.5765
48.8637
48.1697
47.4925
46.8299
46.1809
45.5433
44.9161
44.2975
43.687
43.084
42.488
41.8989
41.3168
40.7426
40.1769
39.6206
39.0752
38.5419
38.0215
37.5148
37.022
36.5434
36.0788
35.628
35.1905
34.7657
34.3529
33.9516
33.5608
33.18
32.8083
32.4452
32.0903
31.7429
31.4022
31.0683
30.7409
30.42
30.1054
29.7969
29.4944
29.1978
28.9069
28.6217
28.3419
28.0673
27.7979
27.5334
27.2737
27.0185
26.7677
26.521
26.2784
26.0397
25.8048
25.5737
25.3461
25.1222
24.9018
24.685
24.4718
24.2623
24.0566
23.8543
23.6564
23.4612
23.2719
23.0829
22.9047
22.7181
22.5576
22.3632
22.2359
21.9903
80.1268
79.1583
76.9008
74.5276
72.4088
70.5374
68.8831
67.402
66.0563
64.8105
63.6434
62.5399
61.4898
60.4792
59.5067
58.5694
57.6639
56.7884
55.941
55.1217
54.3298
53.565
52.8258
52.1106
51.4174
50.7434
50.0859
49.4427
48.8116
48.1906
47.5783
46.9716
46.3711
45.7755
45.1843
44.5972
44.0141
43.4352
42.8612
42.2938
41.734
41.1838
40.6441
40.1165
39.6016
39.1
38.612
38.1376
37.6766
37.2284
36.7927
36.3687
35.9558
35.5531
35.16
34.776
34.4003
34.0325
33.672
33.3187
32.9728
32.6338
32.3013
31.9747
31.6541
31.3391
31.0297
30.7256
30.4269
30.1333
29.8448
29.561
29.2819
29.0072
28.7369
28.4707
28.2085
27.9503
27.6958
27.4451
27.198
26.9545
26.7146
26.4784
26.2458
26.0169
25.7916
25.5701
25.3524
25.1384
24.929
24.7224
24.5222
24.322
24.1338
23.9359
23.7666
23.5607
23.4249
23.1642
54.8648
54.0186
53.1381
52.5741
52.2415
52.0683
51.9456
51.7739
51.5747
51.3397
51.0763
50.7877
50.4769
50.1531
49.8155
49.4678
49.1136
48.7506
48.3803
48.0079
47.6375
47.2722
46.9121
46.5571
46.2054
45.8543
45.5016
45.1467
44.7871
44.4243
44.0581
43.6811
43.297
42.9065
42.5134
42.1155
41.7097
41.2973
40.8799
40.4606
40.0415
39.6258
39.215
38.8109
38.4145
38.0264
37.6471
37.2765
36.9145
36.5606
36.2141
35.8746
35.5413
35.2137
34.8913
34.5736
34.2604
33.9514
33.6463
33.3451
33.0473
32.7533
32.463
32.1764
31.8935
31.6143
31.3388
31.067
30.7987
30.5338
30.2722
30.0137
29.7583
29.5058
29.2561
29.0091
28.7648
28.5232
28.2841
28.0477
27.8139
27.5829
27.3546
27.1292
26.9067
26.6873
26.471
26.258
26.0485
25.8422
25.6402
25.4406
25.2473
25.0533
24.8716
24.6794
24.5159
24.3161
24.1832
23.9299
27.3252
26.7911
26.4368
26.4294
26.5013
26.6603
26.9487
27.3099
27.7722
28.2581
28.7724
29.2871
29.7901
30.2903
30.7543
31.175
31.5732
31.9355
32.2497
32.521
32.7638
32.9852
33.1909
33.3832
33.5611
33.7216
33.8633
33.9888
34.0899
34.1774
34.2474
34.2684
34.2822
34.2675
34.2568
34.2293
34.1686
34.0859
33.9852
33.8707
33.7446
33.611
33.4719
33.3288
33.1828
33.035
32.8862
32.7366
32.5863
32.4349
32.2822
32.1278
31.9716
31.8133
31.6529
31.4904
31.3256
31.1589
30.9903
30.8201
30.648
30.4748
30.3001
30.1237
29.9464
29.7687
29.5903
29.4114
29.232
29.0521
28.8718
28.691
28.5098
28.3282
28.1462
27.964
27.7816
27.5992
27.4168
27.2348
27.0531
26.8722
26.6919
26.5128
26.3348
26.1583
25.9833
25.8102
25.639
25.4698
25.3034
25.1384
24.978
24.8162
24.6647
24.5032
24.3663
24.1977
24.0834
23.8683
16.1464
15.7223
15.332
15.0236
14.7901
14.5929
14.4511
14.3265
14.2407
14.1962
14.1859
14.1715
14.2666
14.2985
14.3988
14.4283
14.5179
14.6623
14.7896
14.9371
15.1646
15.4564
15.8097
16.203
16.6224
17.0583
17.5089
17.9661
18.4244
18.8861
19.3422
19.7844
20.2071
20.6124
20.9995
21.3671
21.7105
22.0304
22.3301
22.6056
22.8553
23.0879
23.2986
23.4945
23.6778
23.8513
24.0158
24.1715
24.318
24.4548
24.5817
24.6983
24.8045
24.9004
24.9857
25.061
25.1261
25.1818
25.2279
25.2654
25.2927
25.3134
25.3219
25.3208
25.3163
25.3066
25.2881
25.263
25.2314
25.1939
25.1505
25.1016
25.0471
24.9877
24.9231
24.8541
24.7807
24.7036
24.6226
24.5386
24.4515
24.3619
24.2699
24.1762
24.0806
23.984
23.886
23.7878
23.6889
23.5903
23.4919
23.3936
23.2966
23.1981
23.1043
23.0034
22.9168
22.8113
22.7345
22.5952
11.8623
11.4186
10.9788
10.5601
10.1636
9.7836
9.41558
9.06458
8.72017
8.38847
8.06526
7.75291
7.4591
7.17072
6.92154
6.70056
6.53698
6.36782
6.23265
6.09518
6.01179
5.95453
5.9526
5.96474
5.99631
6.06452
6.17245
6.30343
6.4655
6.65371
6.86359
7.09391
7.33748
7.59694
7.86674
8.14754
8.43055
8.72745
9.02103
9.33672
9.67087
10.0231
10.388
10.7684
11.1626
11.5696
11.9848
12.4063
12.8285
13.248
13.6609
14.0653
14.4583
14.8395
15.2058
15.5592
15.8954
16.2192
16.5238
16.8098
17.0762
17.3259
17.5585
17.776
17.9786
18.1691
18.3468
18.5134
18.6682
18.8131
18.947
19.0709
19.1843
19.2888
19.3835
19.4699
19.5472
19.6171
19.6785
19.7333
19.7804
19.8216
19.8559
19.8852
19.9082
19.9275
19.9408
19.9521
19.9575
19.9622
19.9622
19.9608
19.9521
19.9467
19.9354
19.9224
19.9055
19.8972
19.8768
19.8535
8.71752
8.23795
7.75669
7.30402
6.86778
6.4466
6.03977
5.6568
5.29293
4.95413
4.63494
4.33925
4.06253
3.80863
3.57146
3.35529
3.15281
2.97364
2.82215
2.68737
2.57453
2.47647
2.39556
2.32682
2.27171
2.22445
2.19278
2.16382
2.15511
2.1409
2.1434
2.15382
2.17451
2.20383
2.2431
2.28864
2.33845
2.40309
2.4673
2.54089
2.63864
2.73631
2.84038
2.95994
3.09647
3.25469
3.42923
3.62021
3.82488
4.04692
4.28323
4.53528
4.79947
5.077
5.36442
5.6627
5.96899
6.28321
6.60427
6.93754
7.27616
7.62311
7.97177
8.32424
8.67442
9.02424
9.36826
9.70848
10.0397
10.3646
10.6781
10.9832
11.2751
11.5577
11.8262
12.0854
12.3303
12.5664
12.7865
12.9972
13.1928
13.3808
13.5545
13.7229
13.8778
14.0303
14.1688
14.3086
14.4333
14.5632
14.6759
14.7983
14.899
15.0158
15.1041
15.2174
15.2911
15.4058
15.462
15.588
4.5272
4.21344
3.89774
3.59361
3.31454
3.06943
2.85293
2.66159
2.49051
2.33702
2.19728
2.06971
1.9519
1.84316
1.74226
1.64893
1.56314
1.48428
1.41273
1.34786
1.2899
1.23809
1.19225
1.15151
1.11544
1.08361
1.05509
1.03003
1.00784
0.988012
0.969839
0.954246
0.939741
0.929224
0.917929
0.910358
0.905642
0.89815
0.894149
0.892812
0.895109
0.900135
0.908361
0.917391
0.928192
0.942792
0.958283
0.992789
0.997303
1.02074
1.05089
1.09109
1.135
1.18873
1.24507
1.31237
1.38194
1.46416
1.54866
1.64765
1.74973
1.86814
1.99016
2.12969
2.27257
2.43344
2.59661
2.77769
2.95937
3.1583
3.35575
3.5695
3.77943
4.00477
4.22401
4.45801
4.68363
4.92372
5.15506
5.40235
5.63805
5.88984
6.1266
6.38043
6.61499
6.86882
7.09837
7.35069
7.57275
7.82262
8.03451
8.28179
8.47995
8.72509
8.90574
9.15014
9.30895
9.55509
9.67441
9.97605
1.77781
1.75447
1.71321
1.66075
1.6011
1.53794
1.47399
1.41112
1.35034
1.29221
1.23689
1.18442
1.13472
1.08774
1.04343
1.00178
0.962778
0.92642
0.892655
0.861446
0.832661
0.806216
0.781883
0.759585
0.738998
0.720135
0.702594
0.686465
0.671351
0.657391
0.64418
0.631927
0.620196
0.609354
0.598867
0.589231
0.58006
0.571339
0.563231
0.555753
0.548688
0.542252
0.536164
0.530719
0.525609
0.521132
0.51713
0.513687
0.510497
0.508111
0.506339
0.505501
0.505478
0.50651
0.507608
0.510473
0.513052
0.51859
0.522803
0.531638
0.537889
0.550863
0.559676
0.577686
0.589922
0.613915
0.630619
0.661122
0.682799
0.720606
0.747982
0.794042
0.828048
0.883438
0.925048
0.990871
1.04105
1.11842
1.17796
1.26826
1.33807
1.44294
1.52386
1.64494
1.73736
1.87601
1.98008
2.1368
2.25164
2.42605
2.54992
2.74131
2.87151
3.07943
3.21296
3.43618
3.57117
3.80833
3.92001
4.25551
1.20681
1.17124
1.13157
1.09104
1.05107
1.01248
0.975848
0.941333
0.908982
0.878589
0.849976
0.822877
0.797128
0.772564
0.749119
0.726741
0.705434
0.685192
0.666038
0.647967
0.630978
0.615044
0.600129
0.586191
0.573168
0.561009
0.549638
0.539013
0.529033
0.519689
0.510853
0.502541
0.494604
0.487098
0.479892
0.473052
0.466413
0.460105
0.453984
0.448169
0.442504
0.437131
0.431863
0.426907
0.422028
0.417508
0.412928
0.408755
0.404475
0.400691
0.396731
0.39329
0.389665
0.386572
0.383286
0.380533
0.377535
0.375106
0.372408
0.37029
0.368
0.36621
0.364502
0.363254
0.362051
0.361719
0.361154
0.361271
0.361637
0.362902
0.364234
0.367373
0.369596
0.374332
0.377331
0.383425
0.387135
0.394605
0.399049
0.408021
0.413407
0.424185
0.430802
0.444327
0.453136
0.470146
0.481562
0.503968
0.518984
0.547664
0.566631
0.603687
0.627863
0.674756
0.70509
0.763055
0.797916
0.867387
0.921466
1.01469
0.880844
0.862513
0.842517
0.821407
0.799885
0.778379
0.757231
0.736559
0.716523
0.697131
0.678494
0.660594
0.643527
0.627248
0.611824
0.597174
0.583327
0.570178
0.557734
0.545887
0.534641
0.523898
0.513671
0.503881
0.494544
0.485599
0.477065
0.468893
0.461101
0.453646
0.446541
0.43975
0.433279
0.427095
0.421196
0.415553
0.410158
0.404989
0.400027
0.395261
0.390668
0.386244
0.381963
0.37783
0.373812
0.369931
0.366141
0.362487
0.358898
0.355447
0.352043
0.348776
0.345544
0.342445
0.339372
0.336429
0.3335
0.330702
0.327906
0.325246
0.322571
0.320048
0.317482
0.315109
0.312636
0.31043
0.308054
0.306016
0.303788
0.301976
0.299908
0.29833
0.296435
0.295078
0.293366
0.292189
0.29068
0.289636
0.288343
0.287417
0.286353
0.285556
0.284766
0.284062
0.283783
0.283848
0.284002
0.284144
0.284457
0.285197
0.285874
0.287391
0.288518
0.291342
0.29313
0.297433
0.300092
0.305714
0.311405
0.320491
0.689624
0.679232
0.667598
0.65487
0.641497
0.627797
0.614118
0.600592
0.587405
0.574545
0.562105
0.550011
0.538337
0.527005
0.516106
0.50557
0.495501
0.485826
0.476644
0.46786
0.459558
0.451622
0.444118
0.436921
0.430091
0.423504
0.417225
0.411141
0.405326
0.399679
0.39428
0.389036
0.384031
0.379176
0.374551
0.370065
0.365797
0.361656
0.357712
0.353878
0.350215
0.346646
0.343223
0.339878
0.336656
0.333498
0.330449
0.327449
0.324555
0.321693
0.318939
0.316201
0.313576
0.310953
0.308445
0.30593
0.303526
0.301114
0.2988
0.296487
0.29425
0.292033
0.289865
0.287738
0.285639
0.283599
0.281572
0.279616
0.27767
0.275797
0.273945
0.272156
0.270412
0.26871
0.267072
0.265466
0.263919
0.262406
0.26093
0.259492
0.258074
0.256679
0.255292
0.253891
0.25254
0.251159
0.249835
0.248509
0.247316
0.246063
0.244916
0.243656
0.24254
0.241256
0.240226
0.238903
0.238245
0.236856
0.236301
0.235352
0.5727
0.566357
0.559021
0.550917
0.54232
0.533374
0.524296
0.515137
0.506052
0.497041
0.488228
0.479578
0.471196
0.463024
0.455154
0.44751
0.440179
0.433069
0.426267
0.419674
0.413378
0.407272
0.401453
0.395805
0.390431
0.385208
0.380245
0.375411
0.37082
0.366334
0.362072
0.357892
0.353919
0.350005
0.346286
0.342606
0.339111
0.33564
0.332347
0.329065
0.325955
0.322846
0.319906
0.316955
0.31417
0.311364
0.308721
0.306045
0.303531
0.300973
0.298576
0.296122
0.293833
0.291472
0.289282
0.287008
0.284908
0.282714
0.2807
0.27858
0.276646
0.274597
0.272737
0.270754
0.268965
0.267044
0.265322
0.263457
0.261799
0.259985
0.25839
0.256621
0.255089
0.253361
0.251891
0.250202
0.248792
0.247141
0.245788
0.244174
0.242876
0.241295
0.24005
0.238498
0.237307
0.235778
0.234644
0.233128
0.232056
0.230552
0.229534
0.22805
0.227066
0.225606
0.224651
0.223219
0.22233
0.220914
0.219952
0.218347
0.500303
0.495878
0.490759
0.485059
0.478966
0.472561
0.46601
0.459338
0.45268
0.446022
0.439474
0.432995
0.42668
0.420466
0.414444
0.408539
0.402843
0.397272
0.391917
0.386686
0.381672
0.376773
0.372086
0.367501
0.363122
0.358829
0.354734
0.35071
0.346878
0.343102
0.33951
0.335959
0.332585
0.329235
0.326054
0.322882
0.319874
0.316859
0.314005
0.311132
0.308418
0.305673
0.303088
0.300461
0.297997
0.29548
0.293128
0.290714
0.288465
0.286145
0.283991
0.281756
0.27969
0.277533
0.275548
0.273464
0.271555
0.269538
0.267701
0.265746
0.263979
0.26208
0.260382
0.258534
0.256901
0.2551
0.25353
0.251771
0.250259
0.24854
0.247083
0.245401
0.243994
0.242349
0.24099
0.239381
0.23807
0.236493
0.235233
0.233685
0.232478
0.230954
0.229801
0.228297
0.227199
0.225714
0.224665
0.223203
0.222195
0.220761
0.219786
0.218376
0.217433
0.216035
0.215127
0.213741
0.21285
0.21148
0.210867
0.20875
0.454663
0.451214
0.447276
0.442896
0.438225
0.433298
0.428246
0.423065
0.417867
0.412624
0.407439
0.402267
0.397201
0.392182
0.3873
0.382483
0.377822
0.373232
0.368807
0.364451
0.360263
0.356139
0.352182
0.348281
0.344544
0.340854
0.337323
0.333828
0.33049
0.327175
0.324015
0.320867
0.317871
0.314876
0.312031
0.309177
0.306473
0.303749
0.301174
0.298568
0.296113
0.293616
0.29127
0.288871
0.286626
0.284318
0.282166
0.279941
0.277875
0.275726
0.273741
0.271662
0.269752
0.267738
0.265898
0.263945
0.262172
0.260274
0.258563
0.256717
0.255066
0.253267
0.251674
0.249918
0.248381
0.246665
0.245182
0.243504
0.242072
0.240431
0.239049
0.237441
0.236108
0.234532
0.233247
0.231701
0.230464
0.228945
0.227754
0.22626
0.225117
0.223645
0.222548
0.221096
0.220044
0.218611
0.217602
0.216185
0.215219
0.213816
0.212892
0.211501
0.210619
0.209237
0.208389
0.207017
0.206232
0.204847
0.20424
0.202204
0.42502
0.422067
0.418776
0.415134
0.411266
0.407184
0.402999
0.398691
0.394359
0.389971
0.385618
0.381253
0.376965
0.372693
0.368524
0.364387
0.360371
0.356394
0.352548
0.348743
0.345074
0.341445
0.337953
0.334495
0.331176
0.327882
0.324726
0.321587
0.318585
0.31559
0.31273
0.309868
0.307141
0.304402
0.301799
0.299174
0.296686
0.294167
0.291786
0.289366
0.287085
0.284757
0.28257
0.280326
0.278226
0.27606
0.274042
0.271948
0.270007
0.267979
0.266109
0.264143
0.26234
0.26043
0.258691
0.256834
0.255154
0.253345
0.251722
0.249958
0.248389
0.246667
0.24515
0.243466
0.241998
0.240351
0.238932
0.237319
0.235947
0.234366
0.23304
0.231489
0.230209
0.228687
0.227452
0.225956
0.224766
0.223296
0.22215
0.220703
0.219602
0.218176
0.217118
0.215711
0.214696
0.213306
0.212333
0.210958
0.210027
0.208664
0.207775
0.20642
0.205573
0.204227
0.203411
0.202074
0.201319
0.199969
0.199378
0.197408
0.404984
0.402295
0.399366
0.396148
0.392753
0.389178
0.38552
0.38175
0.377958
0.374105
0.370278
0.366426
0.362635
0.358843
0.355136
0.351444
0.347852
0.344282
0.340822
0.337386
0.334067
0.33077
0.327592
0.324433
0.321395
0.318369
0.315465
0.312567
0.30979
0.307013
0.304357
0.301692
0.29915
0.29659
0.294155
0.291693
0.289358
0.286988
0.284746
0.282462
0.280308
0.278103
0.276031
0.2739
0.271905
0.269842
0.26792
0.265922
0.264068
0.262129
0.26034
0.258455
0.256728
0.254895
0.253226
0.25144
0.249827
0.248085
0.246525
0.244825
0.243315
0.241654
0.240192
0.238569
0.237153
0.235564
0.234194
0.232637
0.231312
0.229785
0.228503
0.227004
0.225765
0.224292
0.223096
0.221647
0.220492
0.219066
0.217952
0.216548
0.215475
0.21409
0.213057
0.211689
0.210697
0.209343
0.208393
0.207051
0.206142
0.20481
0.203941
0.202619
0.201786
0.20047
0.199681
0.198384
0.19763
0.19637
0.195524
0.194079
0.390847
0.388322
0.385603
0.382642
0.379538
0.376277
0.372949
0.369519
0.366072
0.362565
0.35908
0.355566
0.352105
0.348634
0.345238
0.341845
0.338541
0.335248
0.332053
0.328872
0.325794
0.32273
0.319773
0.316826
0.313988
0.311156
0.308435
0.305713
0.303102
0.300485
0.297981
0.295462
0.293057
0.290631
0.28832
0.285981
0.283759
0.2815
0.279362
0.27718
0.27512
0.27301
0.271024
0.26898
0.267064
0.265083
0.263233
0.26131
0.259522
0.257654
0.255926
0.254108
0.252437
0.250665
0.249048
0.247321
0.245756
0.244068
0.242553
0.240904
0.239436
0.237823
0.236401
0.234823
0.233443
0.231898
0.230561
0.229047
0.227751
0.226266
0.225012
0.223553
0.222339
0.220905
0.219733
0.218321
0.217189
0.215799
0.214706
0.213337
0.212283
0.210932
0.209918
0.208582
0.207608
0.206285
0.205352
0.204039
0.203148
0.201843
0.200991
0.199696
0.198879
0.19759
0.196815
0.195545
0.194804
0.193568
0.192738
0.191323
0.380494
0.378065
0.375476
0.372677
0.369762
0.366709
0.363603
0.360402
0.35719
0.353919
0.350672
0.347392
0.344162
0.340918
0.337743
0.334564
0.331468
0.328375
0.325374
0.322377
0.319478
0.316582
0.313788
0.310996
0.308306
0.305615
0.303028
0.300435
0.297947
0.295447
0.293054
0.290643
0.28834
0.286012
0.283795
0.281546
0.27941
0.277235
0.275176
0.27307
0.271083
0.269044
0.267124
0.265147
0.263291
0.261372
0.259578
0.257713
0.255976
0.254162
0.252481
0.250715
0.249087
0.247365
0.245788
0.244107
0.242579
0.240937
0.239457
0.237851
0.236415
0.234844
0.233451
0.231913
0.230561
0.229055
0.227742
0.226266
0.224992
0.223545
0.222309
0.220888
0.21969
0.218294
0.217133
0.21576
0.214637
0.213285
0.2122
0.210868
0.209819
0.208506
0.207494
0.206197
0.205224
0.203937
0.203007
0.201725
0.200841
0.199562
0.198718
0.197452
0.196633
0.195388
0.194588
0.193367
0.192615
0.191406
0.190584
0.189201
0.372752
0.370373
0.367863
0.365168
0.36238
0.359468
0.356515
0.353474
0.350428
0.347326
0.344248
0.341137
0.338075
0.334993
0.331979
0.328956
0.326012
0.323065
0.320206
0.317345
0.314578
0.311808
0.309136
0.306459
0.303883
0.301298
0.298815
0.296319
0.293927
0.291516
0.289211
0.286881
0.284659
0.282406
0.280263
0.278083
0.276015
0.273903
0.271907
0.269859
0.26793
0.265943
0.264078
0.262149
0.260344
0.258469
0.256722
0.254898
0.253206
0.25143
0.24979
0.248059
0.246469
0.244781
0.243239
0.241591
0.240095
0.238485
0.237032
0.235458
0.234048
0.232506
0.231139
0.229627
0.228301
0.226817
0.225532
0.224074
0.222829
0.221396
0.22019
0.218782
0.217611
0.216229
0.215093
0.213735
0.212633
0.211297
0.210232
0.208913
0.207888
0.206582
0.205598
0.204302
0.203361
0.202073
0.201171
0.199897
0.199025
0.197772
0.196924
0.19569
0.194869
0.193647
0.192857
0.191649
0.190874
0.189681
0.189147
0.187302
0.366871
0.364518
0.362055
0.359429
0.356727
0.353913
0.351065
0.348138
0.34521
0.342228
0.339272
0.336283
0.333342
0.330381
0.327485
0.324577
0.321746
0.318908
0.316154
0.313395
0.310727
0.308052
0.305472
0.302883
0.300391
0.297886
0.295482
0.29306
0.29074
0.288397
0.286159
0.283891
0.281731
0.279536
0.27745
0.275322
0.273307
0.271244
0.269297
0.267294
0.265411
0.263466
0.261643
0.259752
0.257988
0.256148
0.254439
0.252647
0.250991
0.249244
0.247638
0.245934
0.244377
0.242713
0.241203
0.239576
0.238112
0.23652
0.235099
0.23354
0.232162
0.230634
0.229296
0.227798
0.2265
0.225029
0.22377
0.222326
0.221105
0.219685
0.218501
0.217105
0.215958
0.214585
0.213474
0.212121
0.211047
0.209713
0.208675
0.207359
0.206358
0.205057
0.204093
0.202807
0.201879
0.200605
0.199713
0.198451
0.197594
0.196342
0.19552
0.194277
0.193491
0.192254
0.191496
0.19027
0.189567
0.188329
0.187786
0.185961
0.362317
0.359974
0.357536
0.354955
0.352309
0.349563
0.346789
0.343943
0.341099
0.338205
0.335338
0.332439
0.329588
0.326717
0.323908
0.321088
0.318341
0.315587
0.312913
0.310234
0.30764
0.30504
0.30253
0.300011
0.297585
0.295146
0.292802
0.290441
0.288177
0.285891
0.283704
0.28149
0.279377
0.277231
0.275189
0.273107
0.271133
0.269112
0.267202
0.265238
0.263389
0.26148
0.259689
0.257832
0.256097
0.254289
0.252606
0.250844
0.249212
0.247493
0.24591
0.244232
0.242697
0.241056
0.239567
0.237962
0.236516
0.234945
0.233542
0.232003
0.230641
0.229131
0.227809
0.226329
0.225044
0.223592
0.222344
0.220919
0.219706
0.218306
0.21713
0.215752
0.214613
0.213256
0.212154
0.210816
0.20975
0.20843
0.207401
0.206098
0.205104
0.203817
0.202859
0.201586
0.200664
0.199403
0.198518
0.197266
0.196418
0.195173
0.194363
0.193125
0.192349
0.19112
0.190371
0.189151
0.188458
0.187224
0.186685
0.184885
0.358716
0.356373
0.353947
0.351393
0.348787
0.346088
0.343371
0.340584
0.337805
0.334977
0.33218
0.329352
0.326571
0.323771
0.321032
0.318282
0.315603
0.312916
0.310307
0.307692
0.30516
0.30262
0.300167
0.297704
0.29533
0.292943
0.290648
0.288335
0.286116
0.283875
0.281729
0.279556
0.277481
0.275372
0.273365
0.271317
0.269374
0.267384
0.265503
0.263569
0.261746
0.259864
0.258096
0.256264
0.254549
0.252765
0.251101
0.249361
0.247745
0.246048
0.244479
0.242822
0.241299
0.239678
0.2382
0.236614
0.235179
0.233626
0.232232
0.23071
0.229356
0.227864
0.226549
0.225086
0.223807
0.222373
0.221129
0.219722
0.218513
0.217132
0.215956
0.214599
0.213459
0.212123
0.211019
0.209703
0.208633
0.207336
0.206301
0.205022
0.204021
0.202759
0.201792
0.200545
0.199613
0.198376
0.197484
0.19625
0.195402
0.19417
0.19336
0.192139
0.191352
0.190152
0.189382
0.188205
0.18748
0.186316
0.185522
0.184191
0.355948
0.353592
0.351168
0.348628
0.346047
0.343381
0.340703
0.33796
0.335229
0.332452
0.329708
0.326933
0.324208
0.321461
0.318777
0.316079
0.313452
0.310814
0.308255
0.305685
0.303199
0.300701
0.29829
0.295865
0.293529
0.291176
0.288915
0.286632
0.284444
0.282229
0.28011
0.27796
0.275909
0.273822
0.271836
0.269807
0.267883
0.265911
0.264047
0.262129
0.260322
0.258454
0.256702
0.254883
0.253182
0.251409
0.249759
0.24803
0.246428
0.24474
0.243184
0.241537
0.240025
0.238416
0.236947
0.235373
0.233946
0.232406
0.231019
0.22951
0.228163
0.226684
0.225376
0.223924
0.222655
0.221227
0.219997
0.218593
0.2174
0.21602
0.214862
0.213505
0.212381
0.211048
0.209956
0.208646
0.207587
0.206296
0.205272
0.203997
0.20301
0.201747
0.2008
0.199545
0.198638
0.197392
0.196521
0.195287
0.194445
0.19323
0.192411
0.191215
0.190422
0.189236
0.188472
0.1873
0.186549
0.185393
0.184876
0.183088
0.353906
0.351529
0.349096
0.346557
0.343987
0.341337
0.338682
0.335965
0.333264
0.330518
0.327806
0.325063
0.322369
0.319653
0.316998
0.314326
0.311725
0.30911
0.306572
0.30402
0.301552
0.299068
0.296671
0.294256
0.291931
0.289586
0.287333
0.285056
0.282875
0.280665
0.278553
0.276408
0.274365
0.272283
0.270305
0.268283
0.266369
0.264404
0.262551
0.26064
0.258845
0.256986
0.255244
0.253433
0.251744
0.24998
0.248342
0.246621
0.245032
0.243355
0.241813
0.240176
0.23868
0.23708
0.235628
0.234064
0.232656
0.231125
0.229758
0.228258
0.226931
0.225461
0.224173
0.22273
0.221481
0.220064
0.218851
0.217459
0.216282
0.214914
0.213772
0.212426
0.211319
0.209994
0.208922
0.207617
0.206578
0.205291
0.204288
0.203016
0.202048
0.200791
0.199858
0.198614
0.197715
0.196484
0.195618
0.194398
0.193566
0.192354
0.191557
0.190352
0.189589
0.188391
0.187655
0.186466
0.185784
0.184581
0.184054
0.182283
0.352295
0.349897
0.347452
0.344907
0.342338
0.339691
0.33704
0.334326
0.331626
0.328877
0.326159
0.323406
0.320699
0.317967
0.315293
0.312602
0.30998
0.307346
0.304788
0.302221
0.299733
0.297225
0.294806
0.292369
0.290027
0.287668
0.285408
0.283127
0.280948
0.278745
0.276646
0.274517
0.272493
0.270434
0.268483
0.266488
0.264605
0.262671
0.260851
0.258974
0.257213
0.25539
0.253687
0.251914
0.250265
0.248538
0.24694
0.245256
0.243705
0.242062
0.240556
0.23895
0.237488
0.235917
0.234497
0.232959
0.23158
0.230073
0.228732
0.227255
0.225952
0.224502
0.223237
0.221812
0.220583
0.219182
0.217988
0.216612
0.215452
0.214098
0.212972
0.211639
0.210547
0.209234
0.208175
0.20688
0.205856
0.204578
0.203587
0.202325
0.201368
0.200121
0.199197
0.197963
0.197073
0.195851
0.194993
0.193782
0.192958
0.191754
0.190964
0.189767
0.189012
0.187821
0.187092
0.18591
0.185235
0.184038
0.183514
0.181756
0.351057
0.348596
0.346074
0.343472
0.340827
0.338081
0.335318
0.33248
0.329656
0.326782
0.32395
0.321091
0.318296
0.315489
0.312763
0.310032
0.307394
0.304754
0.302213
0.299669
0.297232
0.294798
0.292469
0.290134
0.2879
0.285652
0.283503
0.281333
0.279262
0.277161
0.27516
0.273123
0.271187
0.269208
0.267332
0.265407
0.263588
0.261714
0.259948
0.258121
0.256407
0.254625
0.252959
0.251219
0.249601
0.247901
0.246328
0.244666
0.243137
0.241512
0.240025
0.238435
0.236989
0.235432
0.234026
0.2325
0.231133
0.229636
0.228307
0.226838
0.225546
0.224104
0.222848
0.22143
0.220209
0.218816
0.217629
0.216259
0.215106
0.213757
0.212638
0.211309
0.210224
0.208914
0.207862
0.20657
0.205551
0.204276
0.203291
0.202032
0.20108
0.199835
0.198916
0.197684
0.196798
0.195578
0.194725
0.193516
0.192696
0.191494
0.190708
0.189513
0.188761
0.187571
0.186845
0.185665
0.184992
0.1838
0.183278
0.181525
0.347446
0.344779
0.342131
0.339407
0.336717
0.333999
0.331324
0.328626
0.32598
0.323317
0.320714
0.318097
0.315549
0.312988
0.310501
0.308003
0.305582
0.303148
0.300795
0.298426
0.296141
0.293837
0.291619
0.289379
0.287226
0.285047
0.282958
0.280839
0.278811
0.276748
0.27478
0.272771
0.270859
0.268902
0.267045
0.265137
0.263333
0.261472
0.259718
0.257902
0.256198
0.254425
0.252768
0.251035
0.249424
0.247731
0.246164
0.244508
0.242984
0.241364
0.239882
0.238295
0.236854
0.2353
0.233898
0.232375
0.231012
0.229518
0.228192
0.226726
0.225436
0.223996
0.222743
0.221327
0.220109
0.218717
0.217532
0.216163
0.215012
0.213665
0.212547
0.21122
0.210136
0.208827
0.207777
0.206486
0.205469
0.204194
0.203211
0.201951
0.201001
0.199756
0.198839
0.197607
0.196722
0.195503
0.194651
0.193441
0.192623
0.19142
0.190637
0.18944
0.188691
0.1875
0.186778
0.185596
0.184928
0.183737
0.183216
0.181475
0.506763
0.517858
0.546307
0.565815
0.609247
0.656541
0.722425
0.857652
1.04108
1.78296
0.46482
0.475903
0.491906
0.512034
0.534632
0.580441
0.61169
0.698633
0.780012
1.22694
0.440224
0.449327
0.454861
0.47251
0.483348
0.517629
0.538166
0.59748
0.640634
0.891676
0.425057
0.431101
0.434048
0.445073
0.451467
0.472763
0.48615
0.52619
0.55258
0.693937
0.413211
0.417337
0.41918
0.426431
0.430344
0.44345
0.451652
0.47689
0.493456
0.575264
0.403558
0.406232
0.407381
0.412361
0.414877
0.423446
0.428488
0.444103
0.45425
0.502113
0.396107
0.397469
0.398142
0.401299
0.402928
0.408593
0.411802
0.42171
0.427906
0.456097
0.390287
0.390758
0.391036
0.39283
0.39379
0.397366
0.399375
0.405687
0.409497
0.426251
0.385377
0.385308
0.385274
0.386134
0.386599
0.388714
0.389897
0.393825
0.396138
0.406265
0.381568
0.381012
0.380635
0.380763
0.380852
0.381882
0.382477
0.384751
0.386083
0.392314
0.37854
0.377643
0.376933
0.376504
0.376299
0.376493
0.376646
0.377703
0.378347
0.382143
0.376059
0.374981
0.373961
0.37324
0.3726
0.372244
0.372067
0.372222
0.372372
0.374502
0.374109
0.372734
0.371626
0.370537
0.369723
0.368918
0.368372
0.367923
0.367678
0.368628
0.372477
0.370998
0.369644
0.368463
0.367276
0.366391
0.365313
0.364749
0.363709
0.364092
0.371155
0.36969
0.36805
0.366863
0.365332
0.364387
0.362929
0.362194
0.360577
0.360518
0.370105
0.368704
0.366804
0.365643
0.363835
0.362848
0.361101
0.360231
0.358466
0.357784
0.369286
0.367894
0.365852
0.36464
0.362714
0.361597
0.359754
0.358666
0.356893
0.35578
0.368717
0.367165
0.365163
0.363744
0.361874
0.360509
0.35872
0.357352
0.355607
0.354207
0.368394
0.366706
0.36472
0.363145
0.36128
0.359749
0.357944
0.356408
0.354618
0.353051
0.367028
0.365012
0.362909
0.361012
0.359008
0.357181
0.35522
0.353422
0.351462
0.349662
0.497337
0.534832
0.596765
0.684293
0.840368
1.11758
1.75399
4.41735
20.8011
12.9759
0.498123
0.537375
0.598707
0.689743
0.836964
1.13636
1.86925
4.66798
21.7129
12.6449
0.500191
0.537401
0.601954
0.706652
0.871991
1.15342
1.85247
4.76824
22.0249
12.4063
0.499438
0.535881
0.599378