/*--------------------------------*- C++ -*----------------------------------*\
  =========                 |
  \\      /  F ield         | OpenFOAM: The Open Source CFD Toolbox
   \\    /   O peration     | Website:  https://openfoam.org
    \\  /    A nd           | Version:  8
     \\/     M anipulation  |
\*---------------------------------------------------------------------------*/
FoamFile
{
    version     2.0;
    format      ascii;
    class       volScalarField;
    location    "4.9999766073";
    object      nut;
}
// * * * * * * * * * * * * * * * * * * * * * * * * * * * * * * * * * * * * * //

dimensions      [0 2 -1 0 0 0 0];

internalField   nonuniform List<scalar> 
6800
(
0.00928822
0.0206099
0.0309652
0.0344784
0.0390064
0.0451943
0.0437236
0.0374598
0.0226352
0.017031
0.00633221
0.0211028
0.0324618
0.03548
0.0429088
0.0447476
0.0321937
0.0202079
0.0150286
0.0138678
0.00770808
0.0256365
0.0330761
0.0382862
0.0446358
0.0304134
0.0187997
0.0147135
0.0134569
0.0121974
0.00863508
0.0290558
0.0351964
0.0407731
0.0340567
0.0216802
0.0179205
0.015289
0.0124182
0.0111732
0.00927304
0.0306033
0.0356033
0.0396726
0.0263268
0.0196736
0.0142201
0.0120586
0.0107581
0.00977055
0.00996823
0.0334546
0.0382138
0.0361764
0.0233487
0.0158419
0.0143237
0.0129
0.0109001
0.00965545
0.0104809
0.0362285
0.040244
0.0301075
0.018616
0.0158204
0.0126143
0.0102174
0.0091286
0.00868273
0.0112025
0.0433252
0.0435004
0.0235573
0.0188959
0.0141364
0.0119686
0.0109388
0.00967747
0.00887569
0.011727
0.0477668
0.0384202
0.0241282
0.0165632
0.0135456
0.0114613
0.00935649
0.00852171
0.00813549
0.0125526
0.0591814
0.0410692
0.0210993
0.0159069
0.0127065
0.0108264
0.00981562
0.00892031
0.0084219
0.0587078
0.250442
0.346469
0.373231
0.380302
0.381238
0.384861
0.390579
0.396982
0.399723
0.0563528
0.241511
0.335101
0.36228
0.366797
0.364351
0.364254
0.366459
0.3693
0.371701
0.0521056
0.222335
0.311672
0.341215
0.342731
0.337916
0.334671
0.331761
0.327919
0.328156
0.0470614
0.200361
0.284266
0.312259
0.310986
0.305005
0.2955
0.288342
0.277776
0.261687
0.0417653
0.178672
0.25551
0.273199
0.267042
0.255398
0.239322
0.221626
0.203066
0.157094
0.0371612
0.159453
0.217265
0.219616
0.204971
0.188978
0.161276
0.119916
0.0970341
0.0695507
0.0332153
0.135502
0.168914
0.151123
0.131987
0.092687
0.0661517
0.0558014
0.055028
0.0481056
0.0312508
0.106712
0.0953795
0.0769921
0.0519835
0.0462858
0.046322
0.045957
0.0462667
0.0433155
0.0267374
0.0541577
0.0399382
0.0389088
0.0383718
0.0406376
0.0438399
0.0450057
0.0439765
0.0397256
0.0193446
0.0238639
0.0280036
0.0337815
0.0374593
0.0414608
0.0457131
0.0428835
0.0427716
0.0268638
0.401528
0.402542
0.400013
0.396731
0.393609
0.390869
0.38849
0.386494
0.384878
0.383561
0.382473
0.381514
0.380652
0.379868
0.37913
0.378439
0.37781
0.37722
0.376662
0.376138
0.375646
0.375193
0.374781
0.374412
0.374089
0.373807
0.373562
0.373347
0.373155
0.372977
0.372808
0.372644
0.372477
0.3723
0.372105
0.371887
0.371641
0.371363
0.371052
0.370707
0.370334
0.36994
0.369533
0.36912
0.368706
0.3683
0.367905
0.367527
0.367169
0.366834
0.366521
0.366232
0.365963
0.365715
0.365485
0.365269
0.365065
0.36487
0.36468
0.364495
0.364311
0.364127
0.363941
0.363754
0.363564
0.363372
0.363179
0.362985
0.36279
0.362596
0.362401
0.362208
0.362016
0.361825
0.361635
0.361445
0.361255
0.361066
0.360875
0.360684
0.36049
0.360296
0.360099
0.359902
0.359701
0.359504
0.3593
0.359108
0.358903
0.358726
0.35852
0.358371
0.358158
0.358059
0.357837
0.3578
0.35756
0.357613
0.357205
0.357813
0.373943
0.374933
0.373464
0.371095
0.368792
0.366832
0.365253
0.364068
0.363189
0.362549
0.362089
0.361668
0.361305
0.360997
0.360695
0.360428
0.360203
0.360013
0.35985
0.359714
0.359604
0.359524
0.359477
0.359463
0.359482
0.359532
0.359606
0.359698
0.359801
0.359905
0.36002
0.360137
0.360245
0.360332
0.360389
0.36041
0.36039
0.360326
0.36022
0.360071
0.359893
0.359694
0.359479
0.359253
0.359021
0.358792
0.358569
0.358359
0.358163
0.357985
0.357824
0.357683
0.357558
0.357449
0.357353
0.357266
0.357185
0.357108
0.357032
0.356957
0.356879
0.356798
0.356712
0.356622
0.356529
0.356433
0.356335
0.356234
0.356132
0.35603
0.355927
0.355825
0.355723
0.355621
0.355518
0.355414
0.355308
0.3552
0.355089
0.354976
0.354859
0.354739
0.354614
0.354488
0.354356
0.354227
0.35409
0.353965
0.353824
0.353713
0.353569
0.353487
0.353333
0.353301
0.353135
0.353166
0.35298
0.353112
0.352721
0.353452
0.333819
0.332559
0.330482
0.328059
0.326002
0.324586
0.323747
0.323394
0.323359
0.323545
0.323884
0.32439
0.324982
0.325706
0.326553
0.327425
0.328293
0.329153
0.329997
0.330828
0.331651
0.332471
0.33329
0.33411
0.334927
0.335736
0.336531
0.337304
0.338051
0.338768
0.339497
0.340192
0.340841
0.341425
0.341943
0.342397
0.342782
0.343098
0.343349
0.343544
0.343684
0.343776
0.343835
0.343873
0.343898
0.343921
0.343945
0.343976
0.344016
0.344068
0.344132
0.344207
0.344291
0.344386
0.34448
0.34457
0.344656
0.344741
0.344823
0.344901
0.344967
0.345025
0.345078
0.345128
0.345174
0.345219
0.34526
0.3453
0.345339
0.345378
0.345417
0.345455
0.345491
0.345525
0.345555
0.34558
0.3456
0.345615
0.345624
0.345627
0.345622
0.345613
0.345596
0.345576
0.345548
0.345522
0.345486
0.345465
0.345424
0.345417
0.345369
0.34539
0.345329
0.345402
0.345325
0.345463
0.345353
0.345608
0.345256
0.346184
0.264295
0.266021
0.268538
0.26992
0.271526
0.273441
0.275591
0.27781
0.280032
0.282193
0.284271
0.286268
0.288191
0.289988
0.291704
0.293358
0.294955
0.296501
0.298004
0.299475
0.300924
0.302354
0.303768
0.305168
0.306551
0.307909
0.309236
0.310524
0.311775
0.312951
0.314007
0.314957
0.315832
0.316634
0.317364
0.318025
0.318617
0.319141
0.319602
0.32001
0.320373
0.320703
0.321009
0.321301
0.321586
0.321872
0.322164
0.322466
0.322778
0.323102
0.323438
0.323783
0.324136
0.324493
0.324859
0.325233
0.32561
0.325987
0.32636
0.326731
0.327111
0.327492
0.327869
0.328238
0.328599
0.32895
0.329289
0.329624
0.329957
0.330283
0.3306
0.330905
0.331199
0.331479
0.331745
0.331997
0.332235
0.332459
0.332669
0.332865
0.333048
0.33322
0.333379
0.333531
0.333669
0.333808
0.333927
0.33406
0.334163
0.334303
0.334393
0.33456
0.33463
0.334847
0.334893
0.335173
0.335182
0.335591
0.335278
0.336467
0.156837
0.160375
0.164143
0.169037
0.174535
0.180533
0.186541
0.192046
0.197208
0.202024
0.206557
0.210835
0.214888
0.218776
0.222492
0.22605
0.229489
0.232781
0.235926
0.238945
0.241861
0.244694
0.247475
0.250212
0.252898
0.255523
0.258072
0.260554
0.262937
0.265264
0.267535
0.269657
0.271666
0.273571
0.275416
0.277174
0.278805
0.280316
0.281712
0.28302
0.284247
0.28542
0.286542
0.287629
0.288688
0.289729
0.290756
0.291774
0.292784
0.293783
0.29477
0.295743
0.2967
0.297638
0.298557
0.299456
0.300335
0.301195
0.302035
0.302854
0.303648
0.304422
0.305178
0.305914
0.306632
0.307331
0.308017
0.308677
0.309307
0.309911
0.310494
0.311056
0.311598
0.31212
0.312622
0.313106
0.313571
0.314018
0.314446
0.314859
0.315254
0.315638
0.316003
0.316363
0.316704
0.317049
0.317369
0.317708
0.318011
0.318358
0.318644
0.319019
0.319281
0.319708
0.319947
0.320446
0.320632
0.321282
0.321087
0.322617
0.0714921
0.0756378
0.0796611
0.0843696
0.0885515
0.0926084
0.0969664
0.101535
0.106492
0.111515
0.116693
0.121883
0.127076
0.13236
0.137497
0.142385
0.147234
0.151956
0.156381
0.160522
0.164446
0.168279
0.172173
0.176076
0.179963
0.183807
0.187586
0.191322
0.194929
0.19851
0.202026
0.205115
0.208273
0.211212
0.214325
0.217379
0.220153
0.222772
0.225253
0.227637
0.229899
0.232111
0.234222
0.236284
0.238304
0.2403
0.242273
0.244225
0.246152
0.248051
0.249919
0.251751
0.253547
0.255306
0.257026
0.258709
0.260354
0.261963
0.263534
0.265072
0.266569
0.268033
0.269458
0.270835
0.272177
0.273493
0.274772
0.276022
0.27724
0.278426
0.279579
0.280698
0.281781
0.282829
0.283841
0.284819
0.285764
0.286678
0.28756
0.288416
0.289242
0.290047
0.290824
0.291588
0.292321
0.293054
0.29375
0.294463
0.295126
0.295836
0.296464
0.297192
0.297779
0.298543
0.299084
0.299914
0.300377
0.301357
0.301367
0.303317
0.0493954
0.0508426
0.0522017
0.0536191
0.055117
0.0565493
0.0580519
0.059474
0.0609253
0.0625626
0.0642677
0.0657843
0.0682691
0.0699496
0.0722365
0.0736902
0.0755534
0.0778369
0.0798812
0.0819696
0.0845516
0.0877188
0.0914423
0.0951647
0.0989662
0.102812
0.106758
0.110753
0.114769
0.118853
0.122941
0.126978
0.130921
0.134804
0.138625
0.142396
0.146053
0.149619
0.153088
0.156441
0.159547
0.162688
0.165467
0.168389
0.17133
0.174329
0.177328
0.180322
0.183297
0.186243
0.189153
0.192023
0.194846
0.197624
0.200348
0.203025
0.205642
0.208213
0.210721
0.213183
0.21556
0.217909
0.220127
0.222264
0.224416
0.226551
0.228598
0.230596
0.23254
0.23444
0.236286
0.238078
0.239816
0.241507
0.243148
0.244745
0.246294
0.247805
0.24927
0.2507
0.252087
0.253446
0.254761
0.256057
0.257308
0.258553
0.259746
0.260956
0.262098
0.263294
0.264391
0.265594
0.266628
0.267853
0.268807
0.27007
0.270903
0.272346
0.272658
0.275109
0.0439128
0.0442755
0.0444894
0.0445993
0.0446507
0.0446269
0.044526
0.0443528
0.0440887
0.0437297
0.043331
0.042859
0.0422554
0.0415222
0.0409939
0.0405541
0.0405257
0.0402636
0.0401748
0.0398379
0.0399618
0.0401568
0.0408893
0.0414876
0.0420936
0.0429851
0.0442962
0.0456988
0.0472934
0.0490467
0.0509483
0.0530087
0.0551554
0.0574349
0.0598027
0.0622924
0.0647767
0.0674703
0.0700792
0.0730089
0.0761642
0.0795761
0.0830717
0.0866963
0.0904435
0.0943128
0.0982581
0.102283
0.10633
0.110376
0.114395
0.118376
0.122297
0.126168
0.129957
0.133702
0.137341
0.140961
0.144437
0.147796
0.150998
0.15412
0.157161
0.160154
0.163074
0.165965
0.1688
0.171589
0.174334
0.177073
0.179691
0.18224
0.184758
0.187229
0.189636
0.191996
0.194291
0.196542
0.198727
0.200869
0.202944
0.204981
0.206951
0.208896
0.210771
0.212642
0.214432
0.216252
0.217966
0.219749
0.221411
0.223163
0.224667
0.226441
0.227878
0.229629
0.230845
0.232956
0.233715
0.236744
0.0392205
0.0385384
0.0377662
0.0370516
0.0362767
0.0354195
0.0344651
0.0335068
0.0325033
0.0315173
0.0305338
0.0295417
0.0286281
0.0276638
0.0266125
0.0255788
0.0244769
0.0235029
0.0227272
0.0220208
0.0214762
0.0209966
0.0206495
0.0203527
0.0201675
0.0199815
0.0199648
0.0198778
0.0200574
0.0200241
0.0201827
0.0204444
0.0207662
0.0211775
0.0216404
0.0221611
0.0226543
0.0233528
0.0240032
0.024684
0.025798
0.026733
0.0277813
0.0290432
0.0304958
0.0321787
0.0339993
0.0359551
0.0380389
0.0403046
0.0427155
0.0452846
0.0479779
0.0508051
0.053741
0.0567864
0.0599339
0.063157
0.0664913
0.0700104
0.0736393
0.0773975
0.0811627
0.0849732
0.0887622
0.0925614
0.0963156
0.100053
0.103721
0.107356
0.110906
0.114402
0.117797
0.121139
0.124376
0.127563
0.130646
0.133685
0.13658
0.139415
0.142113
0.144781
0.14734
0.149914
0.152371
0.154882
0.157251
0.159728
0.162023
0.164486
0.166711
0.169189
0.171318
0.173809
0.175875
0.178532
0.180318
0.183329
0.184716
0.188296
0.0261319
0.0251923
0.024117
0.0229279
0.0217796
0.0208031
0.0199604
0.0192313
0.0185847
0.0180062
0.0174724
0.0169756
0.0165002
0.016047
0.0156068
0.0151843
0.0147864
0.0144094
0.0140659
0.0137503
0.0134731
0.0132258
0.013013
0.012825
0.0126617
0.0125213
0.0123917
0.0122842
0.0121928
0.0121062
0.0120184
0.0119678
0.0119019
0.0119135
0.0118728
0.0118818
0.01196
0.0118959
0.0119108
0.011989
0.0120929
0.0122094
0.0123737
0.012515
0.0126256
0.0128259
0.0129702
0.0136468
0.0133752
0.0137558
0.0141354
0.0146307
0.0151608
0.0157991
0.016459
0.0172471
0.0180583
0.0190224
0.020013
0.0211818
0.0223927
0.0238071
0.0252731
0.0269535
0.0286829
0.0306286
0.0326119
0.0348083
0.0370235
0.0394422
0.0418571
0.0444637
0.0470398
0.0497978
0.0524989
0.0553771
0.0581704
0.0611416
0.064048
0.0671707
0.0701903
0.073424
0.0764778
0.079744
0.0827779
0.0860621
0.089052
0.0923476
0.0952711
0.0985784
0.10141
0.104735
0.107434
0.110793
0.113305
0.116759
0.119029
0.122618
0.124178
0.129149
0.0139129
0.0139647
0.0138978
0.0137615
0.0135746
0.0133596
0.0131326
0.0129048
0.0126811
0.0124645
0.0122547
0.012052
0.0118554
0.0116654
0.0114819
0.0113061
0.0111387
0.010981
0.0108333
0.0106966
0.0105706
0.0104557
0.0103503
0.0102554
0.0101673
0.010089
0.0100149
0.00994918
0.00988611
0.00983024
0.00977522
0.00972734
0.00967812
0.00963856
0.00959543
0.00956221
0.00953269
0.00949817
0.00947471
0.00945272
0.00943317
0.00941526
0.00940049
0.0093872
0.00937827
0.00936734
0.00936632
0.00935997
0.00935845
0.00935955
0.00937468
0.00939096
0.00942389
0.00946237
0.00947891
0.00954294
0.00957449
0.00966092
0.00970959
0.0098331
0.00990648
0.0100805
0.0101899
0.0104249
0.0105873
0.010903
0.0111284
0.0115298
0.0118271
0.0123345
0.0127193
0.0133498
0.0138371
0.0146082
0.0152119
0.0161383
0.0168707
0.0179666
0.0188382
0.0201265
0.0211528
0.0226613
0.0238585
0.0256133
0.0269866
0.0290064
0.0305573
0.032845
0.0345538
0.037097
0.0389348
0.0417212
0.0436442
0.0466729
0.0486397
0.0519052
0.053888
0.0573874
0.0590543
0.0640983
0.0114673
0.0113673
0.0112174
0.0110608
0.0109077
0.0107629
0.0106306
0.0105106
0.0104024
0.0103032
0.010211
0.010123
0.0100381
0.00995472
0.00987306
0.00979279
0.0097146
0.00963857
0.0095653
0.00949488
0.00942748
0.00936311
0.00930155
0.0092429
0.00918677
0.00913343
0.00908243
0.00903441
0.00898838
0.00894581
0.00890502
0.0088679
0.0088322
0.00879999
0.00876997
0.00874315
0.00871688
0.00869382
0.00867187
0.00865158
0.00863198
0.00861349
0.00859543
0.00857892
0.00856296
0.00854933
0.0085318
0.00851872
0.00850156
0.00849133
0.00847509
0.00846462
0.00844888
0.00844015
0.00842679
0.0084209
0.00840697
0.0084048
0.00839117
0.00839034
0.00838305
0.00837839
0.00838015
0.00837982
0.00837759
0.00839584
0.0083853
0.00841072
0.00843036
0.00845849
0.00847846
0.00852516
0.0085556
0.00862004
0.00866074
0.0087397
0.00879133
0.00889241
0.00895843
0.00909143
0.00918045
0.00935395
0.00946758
0.00970342
0.00986502
0.0101663
0.0103903
0.0107765
0.0110696
0.0115436
0.0119057
0.0125106
0.0129701
0.0137238
0.0142584
0.0152542
0.0158475
0.0170536
0.0179643
0.0195699
0.00999629
0.00996176
0.0099155
0.0098606
0.00980196
0.00974167
0.00968201
0.00962244
0.00956381
0.00950478
0.00944624
0.00938707
0.00932865
0.00927011
0.00921299
0.00915635
0.00910153
0.00904745
0.00899518
0.00894364
0.00889378
0.00884466
0.0087972
0.00875073
0.00870608
0.00866283
0.00862163
0.0085822
0.00854497
0.00850964
0.00847642
0.00844501
0.00841535
0.0083872
0.00836029
0.00833451
0.00830956
0.00828546
0.00826186
0.008239
0.0082165
0.00819473
0.00817328
0.0081527
0.00813234
0.00811316
0.00809402
0.00807646
0.00805858
0.00804248
0.0080259
0.00801094
0.00799556
0.00798137
0.00796688
0.00795325
0.00793927
0.00792608
0.0079125
0.00789963
0.00788654
0.00787421
0.00786138
0.00784988
0.0078354
0.00782492
0.00780901
0.00779946
0.00778479
0.00777962
0.00776661
0.00776535
0.00775395
0.00775584
0.00774643
0.00775002
0.00774359
0.00774756
0.00774509
0.00774972
0.00775192
0.00775775
0.00776649
0.00777085
0.00779482
0.00784132
0.00785736
0.00786855
0.00789175
0.00789548
0.00792758
0.00797817
0.00799893
0.00806494
0.00810518
0.00819291
0.00824633
0.00836097
0.00846048
0.00863177
0.00906318
0.00904967
0.0090262
0.00899189
0.00895061
0.00890438
0.00885705
0.00880898
0.00876242
0.00871615
0.00867155
0.00862671
0.00858286
0.008538
0.00849362
0.00844781
0.0084025
0.00835599
0.00831064
0.00826485
0.00822118
0.00817794
0.00813762
0.00809832
0.00806231
0.00802746
0.00799581
0.00796511
0.00793727
0.00791
0.00788513
0.00786046
0.00783774
0.00781491
0.00779365
0.00777209
0.00775184
0.0077313
0.00771188
0.00769239
0.00767387
0.00765562
0.00763822
0.00762145
0.00760549
0.0075903
0.00757608
0.00756245
0.00755004
0.00753775
0.00752699
0.00751571
0.0075062
0.00749553
0.00748679
0.00747637
0.00746792
0.00745759
0.00744905
0.00743895
0.00743008
0.00742052
0.00741152
0.00740277
0.00739397
0.00738627
0.00737784
0.00737099
0.00736326
0.00735722
0.0073505
0.0073453
0.00733956
0.0073355
0.00733017
0.0073277
0.007322
0.0073212
0.00731484
0.00731563
0.00730933
0.00731021
0.00730412
0.00730391
0.00729887
0.00730004
0.00729909
0.00729922
0.00730433
0.00730753
0.00731308
0.00731088
0.00731616
0.00731119
0.00731772
0.007312
0.0073201
0.00731318
0.00731779
0.00731947
0.00835438
0.00835257
0.0083398
0.00831995
0.00829542
0.00826622
0.00823475
0.00820034
0.00816502
0.00812771
0.00809039
0.00805175
0.00801381
0.00797514
0.00793786
0.00790037
0.00786487
0.00782953
0.00779654
0.00776382
0.00773359
0.0077035
0.00767586
0.00764815
0.00762281
0.00759718
0.00757389
0.00755014
0.00752875
0.00750679
0.00748722
0.007467
0.00744921
0.00743066
0.0074146
0.00739764
0.00738319
0.00736771
0.00735472
0.00734055
0.00732882
0.00731576
0.00730505
0.00729286
0.00728294
0.00727141
0.0072621
0.00725105
0.00724224
0.00723157
0.00722324
0.00721292
0.00720514
0.00719523
0.00718806
0.00717866
0.00717218
0.00716335
0.00715757
0.00714936
0.00714421
0.00713662
0.00713199
0.00712497
0.0071207
0.00711415
0.00711013
0.00710393
0.00710008
0.00709407
0.00709038
0.00708445
0.00708094
0.00707505
0.00707172
0.0070659
0.00706272
0.00705705
0.00705398
0.0070485
0.00704557
0.00704026
0.00703749
0.00703228
0.0070298
0.00702453
0.00702272
0.007017
0.00701623
0.00700999
0.00700992
0.0070037
0.00700311
0.00699784
0.00699606
0.00699218
0.0069923
0.00698879
0.00696671
0.00699682
0.0078371
0.0078394
0.00783362
0.00782217
0.00780696
0.00778768
0.00776647
0.00774268
0.00771833
0.0076924
0.00766679
0.00764011
0.00761421
0.00758743
0.00756171
0.00753525
0.00751014
0.00748449
0.00746057
0.0074363
0.00741408
0.00739161
0.00737133
0.00735069
0.00733221
0.00731311
0.00729603
0.00727804
0.00726196
0.0072447
0.00722935
0.00721269
0.00719803
0.007182
0.00716818
0.00715296
0.00714016
0.00712593
0.00711431
0.00710119
0.00709079
0.00707876
0.00706949
0.00705842
0.00705012
0.00703982
0.00703227
0.00702256
0.00701556
0.00700629
0.00699971
0.00699081
0.00698459
0.00697604
0.00697019
0.00696204
0.00695661
0.00694887
0.00694389
0.00693656
0.00693206
0.00692506
0.00692105
0.00691426
0.0069107
0.00690399
0.00690082
0.00689412
0.00689122
0.00688451
0.00688176
0.0068751
0.0068724
0.00686586
0.00686317
0.00685677
0.00685415
0.00684788
0.00684543
0.00683923
0.00683706
0.00683084
0.00682909
0.00682275
0.00682153
0.00681508
0.00681428
0.00680805
0.00680719
0.0068017
0.00680034
0.00679557
0.00679379
0.00678955
0.00678763
0.00678351
0.00677896
0.0067757
0.00679337
0.00675339
0.00747238
0.00747656
0.00747478
0.00746837
0.00745918
0.00744659
0.00743251
0.00741597
0.00739882
0.00737984
0.00736091
0.00734061
0.00732089
0.00730013
0.00728038
0.00725982
0.0072406
0.00722069
0.00720233
0.00718331
0.00716596
0.0071479
0.00713159
0.0071145
0.00709926
0.00708314
0.00706895
0.00705381
0.0070407
0.00702652
0.00701445
0.0070012
0.00699012
0.00697773
0.00696756
0.00695593
0.00694658
0.0069356
0.00692698
0.00691656
0.00690857
0.00689865
0.00689123
0.00688175
0.00687485
0.00686578
0.00685936
0.00685069
0.00684473
0.00683643
0.00683091
0.00682295
0.00681784
0.0068102
0.00680546
0.00679809
0.00679368
0.00678655
0.00678244
0.00677548
0.00677163
0.0067648
0.0067612
0.00675446
0.00675109
0.00674443
0.00674127
0.00673469
0.00673171
0.00672524
0.00672242
0.00671608
0.00671342
0.00670722
0.00670473
0.00669867
0.00669636
0.00669044
0.00668833
0.00668253
0.00668062
0.00667496
0.00667323
0.00666772
0.00666611
0.0066608
0.00665925
0.00665416
0.00665264
0.00664774
0.00664624
0.00664152
0.00663998
0.00663548
0.00663377
0.00662959
0.00662766
0.00662384
0.0066223
0.00661606
0.00721083
0.00721539
0.00721613
0.00721291
0.00720748
0.0071991
0.00718951
0.00717765
0.00716527
0.00715111
0.00713699
0.00712148
0.00710647
0.00709033
0.00707506
0.00705887
0.00704382
0.00702796
0.00701347
0.00699821
0.00698445
0.00696989
0.00695693
0.00694308
0.00693088
0.0069177
0.00690623
0.00689366
0.00688289
0.00687092
0.00686084
0.00684946
0.00684008
0.0068293
0.00682063
0.00681045
0.00680247
0.00679286
0.00678553
0.00677645
0.00676973
0.00676112
0.00675494
0.00674675
0.00674105
0.00673323
0.00672796
0.00672044
0.00671556
0.0067083
0.00670375
0.00669669
0.00669243
0.00668552
0.0066815
0.0066747
0.00667089
0.00666416
0.00666052
0.00665384
0.00665036
0.00664374
0.0066404
0.00663384
0.00663064
0.00662416
0.00662111
0.00661472
0.00661184
0.00660556
0.00660285
0.00659669
0.00659417
0.00658814
0.00658582
0.00657993
0.00657781
0.00657207
0.00657014
0.00656455
0.00656281
0.00655739
0.00655579
0.00655055
0.00654905
0.00654401
0.00654259
0.00653771
0.00653637
0.0065316
0.00653033
0.00652567
0.00652439
0.00651992
0.00651846
0.00651427
0.00651261
0.00650874
0.00650718
0.00650131
0.00701971
0.00702414
0.00702629
0.00702489
0.00702169
0.00701585
0.00700904
0.00700013
0.00699082
0.00697983
0.00696893
0.00695665
0.00694486
0.00693192
0.00691978
0.00690664
0.00689453
0.00688151
0.0068697
0.00685701
0.00684566
0.00683342
0.00682263
0.00681091
0.00680072
0.00678954
0.00677998
0.00676933
0.00676038
0.00675024
0.00674187
0.00673221
0.00672439
0.00671516
0.00670786
0.00669903
0.00669221
0.00668375
0.00667739
0.00666927
0.00666333
0.00665554
0.00664999
0.00664249
0.00663731
0.00663008
0.00662525
0.00661825
0.00661375
0.00660695
0.00660276
0.00659613
0.00659222
0.00658573
0.00658209
0.00657572
0.00657231
0.00656605
0.00656284
0.00655669
0.00655366
0.00654762
0.00654474
0.00653881
0.00653607
0.00653024
0.00652764
0.0065219
0.00651945
0.00651379
0.00651149
0.00650591
0.00650375
0.00649826
0.00649623
0.00649083
0.00648893
0.00648364
0.00648183
0.00647666
0.00647495
0.00646988
0.00646828
0.00646329
0.00646182
0.00645687
0.00645553
0.00645063
0.00644939
0.00644458
0.00644334
0.00643869
0.00643735
0.00643291
0.00643142
0.00642736
0.00642558
0.00642202
0.00641958
0.00641529
0.00687574
0.00688046
0.0068833
0.00688297
0.0068812
0.00687701
0.00687207
0.00686516
0.00685798
0.00684916
0.00684048
0.00683044
0.00682087
0.00681014
0.00680017
0.00678917
0.00677915
0.00676817
0.00675834
0.00674757
0.00673809
0.00672766
0.0067186
0.00670856
0.00669997
0.00669034
0.00668223
0.00667302
0.0066654
0.00665659
0.00664945
0.00664101
0.00663433
0.00662624
0.00662
0.00661223
0.00660639
0.00659892
0.00659345
0.00658626
0.00658112
0.00657419
0.00656935
0.00656266
0.00655809
0.00655161
0.0065473
0.00654099
0.00653692
0.00653075
0.0065269
0.00652085
0.00651721
0.00651124
0.00650781
0.00650189
0.00649867
0.00649281
0.00648977
0.00648398
0.0064811
0.0064754
0.00647264
0.00646706
0.0064644
0.00645895
0.00645637
0.00645106
0.00644857
0.00644337
0.00644099
0.00643588
0.00643363
0.0064286
0.00642647
0.00642151
0.0064195
0.00641464
0.00641272
0.00640796
0.00640612
0.00640146
0.00639971
0.00639511
0.0063935
0.00638889
0.00638747
0.00638279
0.00638156
0.00637687
0.00637569
0.00637115
0.00636983
0.00636554
0.00636402
0.00636012
0.00635837
0.0063547
0.00635249
0.00634824
0.00676617
0.00677097
0.00677421
0.00677456
0.00677376
0.0067707
0.00676708
0.00676156
0.00675591
0.00674865
0.00674165
0.00673326
0.00672544
0.00671641
0.00670818
0.00669884
0.0066905
0.00668111
0.00667286
0.00666358
0.00665557
0.0066465
0.00663879
0.00663001
0.00662266
0.00661417
0.0066072
0.00659903
0.00659244
0.00658457
0.00657835
0.00657077
0.00656492
0.00655761
0.00655211
0.00654505
0.00653988
0.00653305
0.00652819
0.00652158
0.00651699
0.0065106
0.00650626
0.00650007
0.00649595
0.00648995
0.00648603
0.0064802
0.00647647
0.00647079
0.00646724
0.00646169
0.00645831
0.00645285
0.00644965
0.00644426
0.00644124
0.00643589
0.00643303
0.00642772
0.006425
0.00641976
0.00641713
0.00641199
0.0064094
0.00640441
0.00640181
0.00639699
0.00639436
0.00638973
0.00638707
0.0063826
0.00637996
0.00637561
0.00637301
0.00636877
0.00636622
0.00636211
0.00635958
0.00635562
0.00635309
0.0063493
0.00634677
0.00634309
0.00634067
0.00633694
0.00633483
0.0063308
0.0063292
0.00632485
0.00632338
0.00631944
0.00631726
0.00631449
0.00631072
0.00630873
0.00630558
0.00630244
0.00629988
0.00629638
0.00668419
0.00668874
0.00669204
0.00669273
0.0066925
0.00669017
0.00668744
0.00668291
0.00667836
0.00667224
0.00666643
0.00665925
0.00665266
0.00664483
0.00663783
0.00662965
0.00662251
0.00661423
0.00660713
0.00659889
0.00659196
0.00658387
0.00657719
0.0065693
0.0065629
0.00655524
0.00654916
0.00654174
0.00653598
0.00652879
0.00652334
0.00651638
0.00651124
0.00650448
0.00649963
0.00649307
0.00648849
0.00648211
0.0064778
0.00647158
0.00646751
0.00646144
0.0064576
0.00645166
0.00644803
0.00644222
0.00643877
0.00643309
0.00642981
0.00642424
0.00642111
0.00641565
0.00641266
0.0064073
0.00640443
0.00639916
0.00639639
0.00639121
0.00638855
0.00638343
0.00638088
0.0063758
0.00637338
0.00636829
0.00636603
0.00636091
0.00635881
0.00635368
0.0063517
0.00634662
0.00634468
0.00633973
0.00633776
0.006333
0.00633095
0.00632641
0.00632432
0.00631992
0.00631789
0.00631352
0.00631167
0.00630719
0.00630566
0.00630096
0.00629979
0.00629494
0.0062939
0.00628929
0.00628785
0.00628399
0.00628177
0.00627873
0.00627596
0.00627358
0.00626994
0.00626767
0.00626251
0.00625958
0.00627546
0.00624008
0.00662141
0.00662575
0.00662904
0.00662994
0.00663008
0.00662826
0.00662612
0.00662228
0.00661845
0.00661313
0.00660814
0.00660182
0.0065961
0.00658915
0.00658303
0.00657573
0.00656944
0.006562
0.00655571
0.00654826
0.0065421
0.00653473
0.00652876
0.00652153
0.0065158
0.00650874
0.00650327
0.00649639
0.00649119
0.00648449
0.00647956
0.00647304
0.00646838
0.00646202
0.00645762
0.00645142
0.00644727
0.00644121
0.0064373
0.00643136
0.00642768
0.00642185
0.00641839
0.00641265
0.00640939
0.00640373
0.00640067
0.00639508
0.00639221
0.00638667
0.00638398
0.00637848
0.00637596
0.00637049
0.00636813
0.00636269
0.00636048
0.00635504
0.00635298
0.00634754
0.00634562
0.00634018
0.00633838
0.00633294
0.00633127
0.00632582
0.00632427
0.00631881
0.00631739
0.00631192
0.00631062
0.00630515
0.00630398
0.0062985
0.00629747
0.00629198
0.00629109
0.00628558
0.00628485
0.00627934
0.00627872
0.00627324
0.00627272
0.00626728
0.00626685
0.0062614
0.00626114
0.0062556
0.00625555
0.00624992
0.00625005
0.00624428
0.00624463
0.006239
0.006239
0.00623318
0.00623355
0.0062263
0.00624164
0.00620582
0.00657342
0.0065775
0.00658064
0.00658158
0.00658189
0.00658035
0.00657857
0.00657516
0.00657181
0.00656703
0.00656257
0.00655684
0.00655168
0.00654534
0.00653977
0.00653309
0.00652734
0.00652049
0.00651472
0.00650785
0.00650217
0.00649537
0.00648985
0.00648315
0.00647784
0.00647128
0.0064662
0.0064598
0.00645495
0.0064487
0.0064441
0.006438
0.00643364
0.00642767
0.00642355
0.00641771
0.00641381
0.00640808
0.00640439
0.00639878
0.00639528
0.00638977
0.00638645
0.00638102
0.00637788
0.00637253
0.00636956
0.00636426
0.00636146
0.00635619
0.00635356
0.00634831
0.00634586
0.00634061
0.00633832
0.00633306
0.00633093
0.00632565
0.00632366
0.00631838
0.00631649
0.00631124
0.00630942
0.00630423
0.00630244
0.00629733
0.00629556
0.00629052
0.0062888
0.0062838
0.00628217
0.00627714
0.00627569
0.00627056
0.00626935
0.00626409
0.00626313
0.00625776
0.00625702
0.00625158
0.006251
0.00624555
0.00624507
0.00623968
0.00623923
0.00623393
0.00623353
0.00622821
0.00622806
0.00622247
0.00622274
0.00621682
0.00621739
0.00621162
0.00621163
0.00620607
0.00620854
0.00620106
0.00619902
0.00619436
0.00653424
0.00653807
0.00654109
0.00654203
0.00654246
0.00654111
0.00653958
0.00653647
0.00653347
0.00652906
0.00652501
0.0065197
0.00651498
0.00650909
0.00650398
0.00649775
0.00649246
0.00648607
0.00648075
0.00647433
0.00646907
0.0064627
0.00645758
0.00645131
0.00644637
0.00644021
0.00643547
0.00642944
0.00642492
0.00641902
0.00641471
0.00640893
0.00640484
0.00639917
0.00639528
0.00638972
0.00638603
0.00638056
0.00637705
0.00637168
0.00636833
0.00636304
0.00635985
0.00635464
0.00635158
0.00634645
0.00634352
0.00633845
0.00633565
0.00633063
0.00632796
0.00632297
0.00632043
0.00631545
0.00631305
0.00630806
0.0063058
0.0063008
0.00629867
0.00629365
0.00629163
0.00628663
0.00628467
0.00627973
0.00627778
0.00627295
0.00627097
0.00626627
0.00626425
0.00625967
0.00625767
0.00625315
0.00625123
0.0062467
0.00624493
0.00624035
0.00623874
0.00623413
0.00623265
0.00622807
0.00622664
0.00622215
0.00622074
0.00621634
0.00621498
0.00621056
0.00620947
0.00620469
0.00620422
0.00619888
0.00619888
0.00619355
0.00619311
0.00618861
0.00618705
0.00618368
0.00618388
0.00618053
0.00616107
0.00618672
0.00650214
0.0065057
0.00650861
0.00650952
0.00651006
0.00650886
0.00650759
0.00650474
0.00650208
0.006498
0.00649436
0.00648943
0.00648514
0.00647964
0.00647498
0.00646914
0.00646428
0.00645827
0.00645337
0.0064473
0.00644243
0.00643637
0.00643161
0.00642561
0.00642098
0.00641506
0.00641059
0.00640477
0.00640047
0.00639474
0.00639063
0.00638499
0.00638105
0.0063755
0.00637173
0.00636626
0.00636267
0.00635728
0.00635386
0.00634852
0.00634526
0.00634
0.00633688
0.00633167
0.00632869
0.00632355
0.00632069
0.00631561
0.00631285
0.00630784
0.00630518
0.00630023
0.00629767
0.00629277
0.0062903
0.00628544
0.00628306
0.00627823
0.00627595
0.00627113
0.00626896
0.00626412
0.00626209
0.00625719
0.00625533
0.00625035
0.00624867
0.00624363
0.00624209
0.00623703
0.00623557
0.00623059
0.00622912
0.00622428
0.00622277
0.00621809
0.00621656
0.00621197
0.00621053
0.00620592
0.00620467
0.00619992
0.006199
0.00619399
0.00619347
0.00618817
0.00618796
0.00618265
0.00618229
0.00617747
0.00617659
0.00617233
0.00617106
0.00616719
0.00616576
0.00616202
0.00615832
0.00615514
0.00617113
0.0061357
0.0064788
0.00648204
0.00648474
0.00648554
0.00648608
0.00648493
0.00648378
0.00648107
0.00647862
0.00647473
0.00647133
0.00646659
0.00646254
0.00645721
0.00645276
0.00644705
0.00644236
0.00643643
0.00643164
0.00642559
0.0064208
0.00641471
0.00640997
0.00640388
0.00639924
0.00639319
0.00638868
0.0063827
0.00637834
0.00637245
0.00636826
0.00636246
0.00635847
0.00635276
0.00634896
0.00634335
0.00633973
0.00633422
0.00633079
0.00632536
0.00632212
0.00631677
0.00631367
0.00630838
0.00630542
0.0063002
0.00629738
0.00629224
0.00628955
0.00628448
0.00628193
0.00627692
0.0062745
0.00626954
0.00626725
0.00626233
0.00626017
0.00625527
0.00625324
0.00624834
0.00624645
0.00624154
0.00623977
0.00623486
0.00623319
0.0062283
0.00622672
0.00622185
0.00622033
0.00621552
0.00621404
0.00620931
0.00620785
0.0062032
0.00620177
0.0061972
0.00619581
0.0061913
0.00618998
0.0061855
0.00618426
0.00617982
0.00617866