/*--------------------------------*- C++ -*----------------------------------*\
  =========                 |
  \\      /  F ield         | OpenFOAM: The Open Source CFD Toolbox
   \\    /   O peration     | Website:  https://openfoam.org
    \\  /    A nd           | Version:  8
     \\/     M anipulation  |
\*---------------------------------------------------------------------------*/
FoamFile
{
    version     2.0;
    format      ascii;
    class       surfaceScalarField;
    location    "4.9999766073";
    object      phi;
}
// * * * * * * * * * * * * * * * * * * * * * * * * * * * * * * * * * * * * * //

dimensions      [1 0 -1 0 0 0 0];

internalField   nonuniform List<scalar> 
13330
(
0.184206
-0.0719849
-0.112307
0.415199
-0.634519
0.403493
0.621359
-0.873715
0.667537
0.804279
-1.01233
0.829406
0.967333
-1.09823
0.935175
1.11343
-1.15071
1.00461
1.24586
-1.18244
1.05
1.36794
-1.20147
1.0794
1.48304
-1.21279
1.09768
-1.22013
1.10755
1.59563
0.242845
-0.314857
0.457031
-0.848724
0.644564
-1.06126
0.810079
-1.17785
0.955017
-1.24318
1.08307
-1.27877
1.19807
-1.29744
1.303
-1.30641
1.40016
-1.30994
-1.31079
1.49082
0.246595
-0.56147
0.459556
-1.0617
0.633536
-1.23525
0.782465
-1.32679
0.910112
-1.37083
1.02147
-1.39013
1.12055
-1.39653
1.21046
-1.39632
1.29346
-1.39295
-1.38824
1.37091
0.238932
-0.800404
0.440485
-1.26326
0.598911
-1.39369
0.731214
-1.4591
0.842386
-1.48201
0.938229
-1.48598
1.02313
-1.48144
1.10037
-1.47356
1.17219
-1.46477
-1.45595
1.23989
0.224893
-1.0253
0.408006
-1.44638
0.548764
-1.53445
0.664246
-1.57459
0.75941
-1.57718
0.841012
-1.56758
0.913515
-1.55394
0.979958
-1.54001
1.04223
-1.52705
-1.51506
1.10134
0.206015
-1.23131
0.366872
-1.60724
0.488883
-1.65647
0.587437
-1.67315
0.66735
-1.65709
0.736
-1.63624
0.797358
-1.61531
0.853978
-1.59663
0.907342
-1.58041
-1.5658
0.958082
0.18399
-1.4153
0.3208
-1.74405
0.423713
-1.75939
0.505297
-1.75474
0.57079
-1.72259
0.62735
-1.6928
0.678198
-1.66616
0.72533
-1.64376
0.769834
-1.62492
-1.60798
0.812013
0.159961
-1.57526
0.272164
-1.85626
0.356296
-1.84353
0.421059
-1.81951
0.472765
-1.7743
0.517714
-1.73775
0.558207
-1.70665
0.595727
-1.68129
0.631066
-1.66026
-1.6412
0.664286
0.134894
-1.71016
0.222853
-1.94424
0.288556
-1.90924
0.336735
-1.86769
0.375228
-1.8128
0.408656
-1.77118
0.438596
-1.73659
0.466132
-1.70882
0.491866
-1.68599
-1.66503
0.515693
0.109718
-1.81988
0.174017
-2.00855
0.221472
-1.95671
0.25359
-1.89982
0.279297
-1.8385
0.301007
-1.79289
0.320056
-1.75564
0.337163
-1.72593
0.35283
-1.70166
0.366862
-1.67906
-0.0959492
0.0959683
-0.173389
0.0774481
-0.238755
0.0653694
-0.294417
0.055667
-0.339644
0.0452311
-0.372714
0.0330763
-0.391702
0.0189922
-0.39541
0.00371571
-0.384416
-0.0109889
-0.0222652
-0.362144
-0.0818052
0.177821
-0.150319
0.145985
-0.206449
0.121511
-0.251582
0.10081
-0.285166
0.0788264
-0.305072
0.0529957
-0.308192
0.0221279
-0.292928
-0.0115308
-0.261343
-0.0425523
-0.0658956
-0.217697
-0.0627259
0.240586
-0.113504
0.196772
-0.15169
0.159706
-0.176349
0.125477
-0.185775
0.0882616
-0.176798
0.0440322
-0.144278
-0.0103749
-0.0917483
-0.0640386
-0.0245304
-0.109755
-0.143208
0.052808
-0.0404527
0.281077
-0.0694093
0.225754
-0.0831275
0.173426
-0.0771961
0.119551
-0.045933
0.0570079
0.0158164
-0.0177039
0.100019
-0.0945602
0.1947
-0.158707
0.296397
-0.211426
-0.249671
0.402872
-0.0191767
0.300284
-0.0237983
0.230368
-0.00494987
0.154582
0.0480425
0.0665613
0.140312
-0.0352534
0.257765
-0.135145
0.383751
-0.220535
0.515117
-0.290054
0.64932
-0.345624
-0.386243
0.785914
-0.00156782
0.301835
0.0213961
0.207408
0.0861143
0.0898534
0.202077
-0.0494002
0.349159
-0.182329
0.506245
-0.292221
0.666744
-0.381024
0.828089
-0.451394
0.987543
-0.505054
-0.543592
1.1449
0.0103249
0.291522
0.0685496
0.149147
0.199307
-0.0409157
0.371631
-0.221727
0.55382
-0.364513
0.737082
-0.475476
0.916187
-0.560121
1.08829
-0.623479
1.25313
-0.669893
-0.702821
1.41238
0.0155402
0.275935
0.140543
0.0241173
0.333909
-0.23429
0.53622
-0.424038
0.734171
-0.562459
0.921943
-0.663243
1.09812
-0.736291
1.26359
-0.788949
1.42027
-0.826556
-0.852543
1.57
0.0501326
0.225767
0.246427
-0.172201
0.462899
-0.450769
0.670603
-0.631741
0.863594
-0.755448
1.04155
-0.841192
1.20592
-0.900663
1.35869
-0.941706
1.50195
-0.969816
-0.988452
1.63787
0.113449
0.344734
0.561501
0.759165
0.938894
1.10231
1.25165
1.38934
1.51721
1.63631
-0.289916
-0.0722166
-0.221094
-0.0688121
-0.157845
-0.0632388
-0.0995338
-0.0583022
-0.0449515
-0.0545741
0.00693616
-0.0518805
0.056019
-0.0490768
0.102288
-0.0462644
0.14635
-0.0440577
0.188562
-0.0422088
0.229145
-0.0405806
0.26825
-0.0391039
0.305986
-0.0377356
0.342435
-0.0364495
0.377663
-0.0352293
0.411724
-0.0340627
0.444663
-0.0329403
0.476516
-0.0318554
0.507318
-0.030804
0.537099
-0.0297834
0.565889
-0.0287925
0.593718
-0.027831
0.620614
-0.0268984
0.646606
-0.0259939
0.671721
-0.0251167
0.695986
-0.0242659
0.719426
-0.0234407
0.742066
-0.0226404
0.76393
-0.0218644
0.785043
-0.0211125
0.805427
-0.0203842
0.825106
-0.0196789
0.844102
-0.0189955
0.862435
-0.0183335
0.880128
-0.0176925
0.897201
-0.0170724
0.913673
-0.0164725
0.929565
-0.0158925
0.944897
-0.0153319
0.959687
-0.0147905
0.973955
-0.0142683
0.987719
-0.0137648
1.001
-0.0132799
1.01381
-0.0128133
1.02618
-0.0123649
1.03811
-0.0119341
1.04963
-0.0115203
1.06075
-0.0111211
1.07149
-0.0107378
1.08186
-0.0103719
1.09188
-0.0100208
1.10156
-0.00968385
1.11092
-0.00936052
1.11997
-0.00905014
1.12872
-0.00875208
1.13719
-0.00846573
1.14538
-0.00819048
1.1533
-0.00792583
1.16097
-0.00767127
1.1684
-0.00742637
1.17559
-0.0071907
1.18255
-0.00696386
1.1893
-0.00674548
1.19583
-0.00653523
1.20217
-0.00633275
1.20831
-0.00613776
1.21426
-0.00594997
1.22002
-0.00576913
1.22562
-0.00559498
1.23105
-0.00542727
1.23631
-0.00526575
1.24142
-0.00511016
1.24638
-0.00496026
1.2512
-0.00481581
1.25587
-0.00467658
1.26042
-0.00454236
1.26483
-0.00441295
1.26912
-0.00428815
1.27328
-0.00416779
1.27734
-0.00405169
1.28128
-0.00393969
1.28511
-0.00383163
1.28883
-0.00372736
1.29246
-0.00362674
1.29599
-0.00352959
1.29943
-0.00343579
1.30277
-0.00334513
1.30603
-0.00325746
1.3092
-0.00317251
1.31229
-0.00309008
1.3153
-0.0030097
1.31823
-0.00293105
1.32108
-0.00285323
1.32386
-0.00277562
1.32656
-0.00269655
1.32917
-0.00261457
1.3317
-0.00252697
1.33413
-0.00243161
1.33646
-0.00232676
-0.00211096
-0.150485
-0.139396
-0.0903466
-0.128921
-0.034851
-0.118707
0.017297
-0.110425
0.0661946
-0.10345
0.112113
-0.0977802
0.155987
-0.0929349
0.198276
-0.0885405
0.238966
-0.084737
0.278171
-0.0814066
0.316002
-0.0784065
0.352547
-0.0756462
0.387877
-0.0730646
0.422047
-0.0706205
0.455103
-0.0682875
0.487082
-0.0660453
0.518018
-0.0638804
0.547941
-0.0617839
0.576878
-0.0597472
0.604854
-0.0577647
0.63189
-0.0558345
0.658011
-0.0539573
0.683242
-0.0521342
0.70761
-0.050366
0.731142
-0.0486522
0.753865
-0.0469914
0.775804
-0.045382
0.796985
-0.0438226
0.817433
-0.0423121
0.83717
-0.0408502
0.856222
-0.0394358
0.87461
-0.0380668
0.892356
-0.0367405
0.909479
-0.0354558
0.926
-0.0342131
0.94194
-0.0330123
0.95732
-0.0318522
0.972159
-0.0307315
0.986476
-0.0296489
1.00029
-0.0286038
1.01361
-0.0275955
1.02647
-0.0266236
1.03888
-0.0256871
1.05085
-0.0247855
1.0624
-0.0239181
1.07355
-0.023084
1.08431
-0.0222823
1.0947
-0.0215116
1.10473
-0.0207718
1.11442
-0.0200629
1.12378
-0.019383
1.13283
-0.0187307
1.14157
-0.0181049
1.15002
-0.0175042
1.1582
-0.0169273
1.1661
-0.0163732
1.17375
-0.0158408
1.18115
-0.015329
1.18832
-0.0148369
1.19526
-0.0143636
1.20197
-0.0139083
1.20848
-0.0134701
1.21478
-0.0130485
1.22089
-0.0126427
1.22681
-0.0122519
1.23255
-0.0118756
1.23811
-0.0115132
1.2435
-0.0111642
1.24874
-0.0108282
1.25381
-0.0105046
1.25874
-0.0101929
1.26352
-0.00989277
1.26817
-0.00960356
1.27268
-0.00932487
1.27705
-0.00905627
1.28131
-0.00879734
1.28544
-0.00854772
1.28946
-0.00830704
1.29337
-0.00807497
1.29717
-0.00785118
1.30086
-0.00763536
1.30446
-0.00742721
1.30796
-0.00722642
1.31136
-0.00703273
1.31468
-0.00684581
1.31791
-0.00666539
1.32105
-0.00649108
1.32412
-0.00632259
1.32711
-0.00615935
1.33002
-0.00600101
1.33285
-0.00584662
1.33562
-0.0056956
1.33831
-0.00554624
1.34093
-0.0053973
1.34348
-0.00524555
1.34595
-0.00508803
1.34835
-0.00491964
1.35064
-0.00473043
1.35283
-0.00451011
-0.00424217
0.100655
-0.187214
0.142661
-0.170899
0.183675
-0.159696
0.223899
-0.150627
0.263007
-0.142538
0.300866
-0.135621
0.33765
-0.129705
0.37354
-0.124418
0.408462
-0.119649
0.442372
-0.11531
0.475271
-0.1113
0.507174
-0.107545
0.538098
-0.103988
0.568066
-0.100589
0.597097
-0.0973203
0.625209
-0.0941604
0.652423
-0.091098
0.678759
-0.0881243
0.704234
-0.0852273
0.728865
-0.0824001
0.752668
-0.0796419
0.775661
-0.0769547
0.797865
-0.0743428
0.819305
-0.0718089
0.840003
-0.0693527
0.859981
-0.0669721
0.879263
-0.064665
0.897869
-0.0624297
0.91582
-0.0602642
0.933138
-0.0581683
0.949844
-0.0561412
0.965958
-0.05418
0.981498
-0.0522806
0.996484
-0.0504416
1.01094
-0.0486651
1.02488
-0.0469507
1.03832
-0.0452959
1.05129
-0.0436984
1.06379
-0.0421562
1.07586
-0.0406682
1.08749
-0.0392334
1.09872
-0.0378508
1.10955
-0.0365192
1.12
-0.0352369
1.13008
-0.0340031
1.13981
-0.0328168
1.14921
-0.0316767
1.15827
-0.0305817
1.16703
-0.0295309
1.17549
-0.0285231
1.18366
-0.0275565
1.19156
-0.0266293
1.19919
-0.0257397
1.20658
-0.0248858
1.21371
-0.024066
1.22062
-0.0232786
1.2273
-0.0225222
1.23376
-0.0217953
1.24002
-0.0210965
1.24608
-0.0204247
1.25195
-0.0197787
1.25764
-0.0191572
1.26315
-0.0185593
1.26849
-0.0179838
1.27367
-0.0174295
1.27869
-0.0168957
1.28356
-0.0163818
1.28828
-0.0158871
1.29286
-0.0154107
1.29731
-0.014952
1.30163
-0.0145102
1.30582
-0.0140847
1.30989
-0.0136748
1.31384
-0.0132799
1.31769
-0.0128993
1.32142
-0.0125326
1.32505
-0.0121792
1.32858
-0.0118386
1.33202
-0.0115103
1.33536
-0.011194
1.33862
-0.0108891
1.34178
-0.0105952
1.34487
-0.010312
1.34787
-0.0100389
1.3508
-0.00977562
1.35366
-0.00952166
1.35645
-0.00927648
1.35916
-0.00903967
1.36181
-0.00881041
1.3644
-0.0085882
1.36692
-0.00837171
1.36939
-0.00816012
1.37179
-0.007951
1.37414
-0.00774261
1.37642
-0.0075303
1.37865
-0.00730987
1.3808
-0.00707395
1.38288
-0.0068079
1.38487
-0.00650069
-0.0061536
0.422644
-0.206954
0.443551
-0.191779
0.467786
-0.183907
0.494276
-0.177095
0.521786
-0.170028
0.549605
-0.163423
0.577418
-0.157504
0.605072
-0.152059
0.63239
-0.146957
0.659232
-0.142144
0.68551
-0.137573
0.711173
-0.133204
0.736183
-0.128996
0.760523
-0.124929
0.784184
-0.120982
0.807156
-0.117134
0.829437
-0.113382
0.851031
-0.109722
0.871942
-0.106142
0.892174
-0.102636
0.911735
-0.0992068
0.930636
-0.0958604
0.948896
-0.0926063
0.966533
-0.0894488
0.983564
-0.0863862
1.00001
-0.0834152
1.01587
-0.0805337
1.03118
-0.0777404
1.04595
-0.0750321
1.06019
-0.0724097
1.07392
-0.0698741
1.08716
-0.0674219
1.09993
-0.0650466
1.11224
-0.0627467
1.1241
-0.060527
1.13553
-0.0583861
1.14656
-0.0563197
1.15718
-0.054325
1.16743
-0.0524001
1.1773
-0.0505442
1.18682
-0.0487557
1.196
-0.0470336
1.20486
-0.0453757
1.2134
-0.0437791
1.22164
-0.0422431
1.22959
-0.0407667
1.23726
-0.0393487
1.24466
-0.0379877
1.25181
-0.0366819
1.25872
-0.0354296
1.26539
-0.0342285
1.27183
-0.0330763
1.27806
-0.0319709
1.28409
-0.0309101
1.28991
-0.0298918
1.29555
-0.028914
1.301
-0.0279748
1.30628
-0.0270724
1.31138
-0.0262053
1.31633
-0.025372
1.32112
-0.0245707
1.32577
-0.0238002
1.33026
-0.0230591
1.33463
-0.0223457
1.33886
-0.0216588
1.34296
-0.0209974
1.34694
-0.0203608
1.3508
-0.019748
1.35454
-0.0191581
1.35818
-0.0185902
1.36171
-0.0180437
1.36515
-0.0175175
1.36848
-0.0170109
1.37173
-0.016523
1.37488
-0.0160532
1.37795
-0.0156008
1.38093
-0.0151651
1.38384
-0.0147455
1.38667
-0.0143416
1.38943
-0.0139527
1.39212
-0.0135782
1.39474
-0.0132176
1.3973
-0.0128704
1.39979
-0.0125361
1.40223
-0.0122141
1.40461
-0.0119039
1.40694
-0.0116047
1.40922
-0.0113161
1.41144
-0.0110371
1.41362
-0.010767
1.41576
-0.0105042
1.41784
-0.0102477
1.41989
-0.00999459
1.42189
-0.0097427
1.42384
-0.00948626
1.42575
-0.00922012
1.42761
-0.00893506
1.42942
-0.00861343
1.43116
-0.00824261
-0.00783113
0.784381
-0.205396
0.788217
-0.19559
0.796907
-0.192576
0.808996
-0.189164
0.823395
-0.18441
0.839306
-0.179318
0.856204
-0.174389
0.873762
-0.169607
0.891718
-0.164905
0.909855
-0.160275
0.92801
-0.155723
0.946064
-0.151254
0.963916
-0.146847
0.981496
-0.142507
0.998747
-0.138234
1.01561
-0.134003
1.03206
-0.129832
1.04808
-0.125738
1.06364
-0.121711
1.07875
-0.117743
1.09339
-0.113851
1.10758
-0.110049
1.12132
-0.106351
1.13463
-0.102758
1.14751
-0.0992654
1.15996
-0.0958688
1.17199
-0.0925684
1.18361
-0.0893646
1.19484
-0.0862546
1.20566
-0.0832397
1.21611
-0.080321
1.22618
-0.0774968
1.2359
-0.0747618
1.24527
-0.0721144
1.2543
-0.0695581
1.263
-0.06709
1.27139
-0.0647061
1.27946
-0.0624047
1.28725
-0.0601845
1.29475
-0.0580446
1.30197
-0.0559835
1.30894
-0.0540002
1.31565
-0.0520914
1.32213
-0.0502533
1.32837
-0.0484863
1.33439
-0.0467893
1.3402
-0.0451608
1.34581
-0.0435987
1.35123
-0.0421006
1.35646
-0.0406638
1.36152
-0.0392857
1.36641
-0.0379638
1.37113
-0.0366954
1.3757
-0.0354783
1.38011
-0.03431
1.38439
-0.0331882
1.38852
-0.0321109
1.39253
-0.031076
1.3964
-0.0300818
1.40016
-0.0291264
1.40379
-0.0282079
1.40732
-0.0273248
1.41073
-0.0264759
1.41405
-0.0256588
1.41726
-0.0248721
1.42038
-0.0241154
1.4234
-0.0233876
1.42634
-0.0226874
1.4292
-0.0220137
1.43197
-0.0213658
1.43467
-0.0207427
1.4373
-0.0201434
1.43985
-0.0195667
1.44234
-0.0190119
1.44477
-0.0184781
1.44713
-0.0179645
1.44944
-0.0174705
1.45169
-0.0169954
1.45388
-0.0165385
1.45603
-0.0160992
1.45813
-0.0156767
1.46018
-0.0152705
1.46219
-0.0148799
1.46416
-0.0145044
1.46608
-0.0141432
1.46798
-0.0137958
1.46983
-0.0134614
1.47166
-0.0131394
1.47345
-0.0128286
1.47521
-0.0125284
1.47694
-0.0122369
1.47865
-0.011953
1.48032
-0.0116734
1.48198
-0.011396
1.4836
-0.011114
1.48521
-0.0108217
1.48678
-0.0105086
1.48832
-0.0101554
1.48983
-0.00974686
-0.00929467
1.13481
-0.195274
1.13078
-0.191543
1.13034
-0.192118
1.13223
-0.191032
1.13618
-0.188342
1.14188
-0.185006
1.14893
-0.181428
1.157
-0.177666
1.16584
-0.173733
1.17524
-0.169674
1.18505
-0.165528
1.19513
-0.161327
1.20536
-0.157072
1.21565
-0.152793
1.22591
-0.1485
1.2361
-0.144191
1.24617
-0.139903
1.2561
-0.135663
1.26585
-0.131465
1.27542
-0.127318
1.28482
-0.123245
1.29402
-0.119254
1.30302
-0.115351
1.3118
-0.111536
1.32034
-0.107807
1.32863
-0.104164
1.33667
-0.100615
1.34447
-0.0971619
1.35202
-0.0938026
1.35931
-0.0905386
1.36636
-0.0873728
1.37317
-0.0843073
1.37975
-0.0813379
1.38609
-0.0784593
1.39221
-0.075675
1.3981
-0.0729862
1.40378
-0.0703898
1.40926
-0.0678846
1.41454
-0.0654672
1.41963
-0.0631354
1.42454
-0.0608895
1.42927
-0.0587295
1.43383
-0.0566523
1.43823
-0.0546547
1.44248
-0.0527373
1.44659
-0.0508975
1.45056
-0.0491332
1.4544
-0.0474409
1.45811
-0.0458173
1.46171
-0.0442595
1.46519
-0.0427649
1.46855
-0.0413308
1.47181
-0.0399544
1.47497
-0.0386333
1.47802
-0.037365
1.48098
-0.0361472
1.48384
-0.0349775
1.48662
-0.0338538
1.48931
-0.0327744
1.49192
-0.0317371
1.49446
-0.0307397
1.49691
-0.0297806
1.49929
-0.0288588
1.50161
-0.0279725
1.50385
-0.0271203
1.50604
-0.0263015
1.50817
-0.0255148
1.51024
-0.0247587
1.51226
-0.0240319
1.51422
-0.0233337
1.51614
-0.0226632
1.51802
-0.0220188
1.51985
-0.0213993
1.52164
-0.020804
1.5234
-0.020232
1.52512
-0.0196825
1.5268
-0.0191546
1.52845
-0.0186477
1.53007
-0.0181611
1.53167
-0.0176938
1.53324
-0.0172451
1.53478
-0.0168144
1.5363
-0.0164009
1.5378
-0.0160042
1.53928
-0.0156234
1.54074
-0.0152581
1.54219
-0.0149071
1.54362
-0.0145701
1.54503
-0.0142457
1.54644
-0.0139333
1.54783
-0.0136309
1.54922
-0.0133374
1.55059
-0.0130492
1.55196
-0.0127645
1.55332
-0.0124761
1.55468
-0.0121784
1.55603
-0.0118599
1.55738
-0.0115019
1.55871
-0.0110842
-0.0106192
1.3976
-0.180478
1.38914
-0.183062
1.38405
-0.187018
1.38113
-0.188098
1.38017
-0.187366
1.38095
-0.185779
1.38314
-0.183606
1.38641
-0.180936
1.39055
-0.177859
1.39534
-0.17446
1.40062
-0.170806
1.40627
-0.166967
1.41216
-0.162964
1.41821
-0.158843
1.42437
-0.154658
1.4306
-0.150414
1.43683
-0.146133
1.44303
-0.141856
1.44917
-0.137608
1.45524
-0.133388
1.4612
-0.129209
1.46703
-0.12508
1.4727
-0.121016
1.47819
-0.117028
1.4835
-0.11312
1.48863
-0.109299
1.49359
-0.105572
1.49836
-0.101941
1.50297
-0.098407
1.5074
-0.0949715
1.51166
-0.0916376
1.51576
-0.0884078
1.51969
-0.0852773
1.52348
-0.0822429
1.52711
-0.0793089
1.5306
-0.0764772
1.53395
-0.0737456
1.53718
-0.0711136
1.54029
-0.0685769
1.54329
-0.0661341
1.54618
-0.0637873
1.54899
-0.0615343
1.5517
-0.0593698
1.55434
-0.0572893
1.55689
-0.0552916
1.55937
-0.0533741
1.56177
-0.0515348
1.5641
-0.0497694
1.56635
-0.0480737
1.56854
-0.0464456
1.57065
-0.0448825
1.57271
-0.043382
1.57469
-0.0419416
1.57662
-0.0405589
1.57848
-0.0392316
1.58029
-0.0379575
1.58205
-0.0367342
1.58375
-0.0355593
1.58541
-0.0344303
1.58702
-0.0333453
1.58858
-0.0323027
1.5901
-0.0313016
1.59158
-0.0303413
1.59303
-0.0294201
1.59444
-0.0285358
1.59583
-0.0276874
1.59719
-0.0268735
1.59852
-0.0260927
1.59983
-0.0253432
1.60112
-0.0246241
1.60239
-0.0239343
1.60365
-0.0232722
1.60488
-0.0226369
1.60611
-0.0220273
1.60732
-0.0214425
1.60852
-0.0208816
1.60971
-0.0203436
1.61088
-0.0198278
1.61206
-0.0193336
1.61322
-0.0188598
1.61438
-0.0184056
1.61554
-0.0179705
1.61669
-0.0175537
1.61784
-0.017155
1.61899
-0.0167733
1.62014
-0.0164083
1.62129
-0.0160589
1.62245
-0.015725
1.62361
-0.0154047
1.62477
-0.0150976
1.62594
-0.0148016
1.62712
-0.0145158
1.62831
-0.0142368
1.6295
-0.013963
1.63072
-0.0136873
1.63194
-0.0134057
1.63319
-0.0131065
1.63446
-0.0127725
1.63576
-0.0123789
-0.0119333
1.5507
-0.16115
1.53732
-0.169671
1.5278
-0.177484
1.52102
-0.181307
1.51657
-0.182909
1.51417
-0.183365
1.5135
-0.182924
1.51426
-0.181689
1.5162
-0.179791
1.5191
-0.177356
1.52279
-0.174485
1.52709
-0.171265
1.53189
-0.16776
1.53709
-0.164033
1.54257
-0.160138
1.54826
-0.156098
1.55408
-0.151954
1.55999
-0.147756
1.56591
-0.143532
1.57181
-0.139288
1.57764
-0.135036
1.58336
-0.130798
1.58894
-0.126593
1.59435
-0.122445
1.5996
-0.118363
1.60465
-0.114352
1.6095
-0.110422
1.61413
-0.10658
1.61856
-0.10283
1.62276
-0.0991766
1.62674
-0.0956254
1.63051
-0.0921807
1.63407
-0.0888406
1.63743
-0.0856046
1.6406
-0.0824747
1.64357
-0.0794531
1.64636
-0.0765392
1.64898
-0.073734
1.65144
-0.0710351
1.65374
-0.0684404
1.65591
-0.0659498
1.65793
-0.0635599
1.65983
-0.0612677
1.66161
-0.0590695
1.66328
-0.056962
1.66485
-0.0549423
1.66632
-0.0530097
1.66771
-0.0511592
1.66902
-0.0493855
1.67026
-0.0476878
1.67144
-0.046063
1.67257
-0.0445078
1.67364
-0.043019
1.67468
-0.0415937
1.67567
-0.0402293
1.67664
-0.038923
1.67758
-0.0376722
1.67849
-0.0364741
1.67939
-0.0353267
1.68027
-0.0342282
1.68114
-0.0331763
1.68201
-0.032169
1.68287
-0.0312044
1.68373
-0.0302797
1.68459
-0.029393
1.68544
-0.0285431
1.6863
-0.0277289
1.68715
-0.0269486
1.68801
-0.0262005
1.68887
-0.0254832
1.68973
-0.0247963
1.6906
-0.024138
1.69147
-0.0235073
1.69234
-0.0229034
1.69322
-0.0223252
1.69411
-0.0217718
1.69501
-0.0212423
1.69592
-0.0207357
1.69684
-0.0202513
1.69776
-0.0197878
1.6987
-0.019345
1.69965
-0.0189224
1.70062
-0.0185195
1.7016
-0.0181358
1.7026
-0.0177704
1.70361
-0.017423
1.70465
-0.0170924
1.7057
-0.0167785
1.70677
-0.0164793
1.70787
-0.0161946
1.70899
-0.0159217
1.71014
-0.0156607
1.71131
-0.0154084
1.71251
-0.015164
1.71374
-0.0149209
1.71501
-0.0146764
1.71632
-0.0144192
1.71769
-0.0141362
1.71911
-0.0138017
-0.0134142
1.61624
-0.139508
1.59977
-0.153189
1.5871
-0.164809
1.57765
-0.171856
1.57089
-0.176142
1.56633
-0.1788
1.56361
-0.180199
1.56245
-0.180521
1.5626
-0.179938
1.56386
-0.178614
1.56607
-0.176683
1.56906
-0.174255
1.57272
-0.171417
1.57694
-0.168248
1.58162
-0.164811
1.58668
-0.161155
1.59206
-0.157332
1.5977
-0.153389
1.60353
-0.149358
1.6095
-0.14526
1.61558
-0.141115
1.62173
-0.136948
1.62792
-0.132781
1.63411
-0.128638
1.64028
-0.124532
1.6464
-0.120474
1.65245
-0.116475
1.65841
-0.112544
1.66427
-0.108691
1.67002
-0.104921
1.67563
-0.101241
1.6811
-0.0976556
1.68643
-0.0941664
1.69159
-0.0907749
1.6966
-0.0874835
1.70144
-0.0842949
1.70611
-0.0812085
1.7106
-0.0782257
1.71491
-0.0753459
1.71903
-0.0725619
1.72296
-0.0698769
1.72669
-0.0672928
1.73022
-0.0648047
1.73356
-0.0624094
1.73671
-0.0601067
1.73966
-0.0578933
1.74242
-0.0557676
1.74498
-0.0537284
1.74737
-0.0517739
1.74959
-0.0499043
1.75164
-0.0481164
1.75354
-0.0464069
1.75529
-0.0447735
1.75691
-0.0432138
1.75841
-0.0417253
1.75979
-0.0403055
1.76107
-0.0389519
1.76226
-0.0376627
1.76337
-0.0364354
1.7644
-0.0352677
1.76538
-0.0341567
1.76631
-0.0330998
1.7672
-0.0320944
1.76806
-0.0311375
1.76889
-0.0302264
1.76971
-0.029359
1.77051
-0.0285333
1.77131
-0.0277469
1.77211
-0.0269974
1.77291
-0.0262834
1.77371
-0.0256034
1.77453
-0.0249553
1.77536
-0.0243375
1.77621
-0.0237489
1.77707
-0.0231881
1.77795
-0.022654
1.77885
-0.0221455
1.77978
-0.0216618
1.78073
-0.0212014
1.78171
-0.0207642
1.78271
-0.0203491
1.78374
-0.0199555
1.78481
-0.0195819
1.7859
-0.0192281
1.78702
-0.018893
1.78817
-0.0185769
1.78936
-0.0182779
1.79058
-0.0179958
1.79183
-0.017729
1.79311
-0.0174774
1.79443
-0.0172397
1.79578
-0.0170151
1.79717
-0.0168005
1.79861
-0.0165967
1.80008
-0.016398
1.80161
-0.0162035
1.8032
-0.0160051
1.80486
-0.0157957
1.80661
-0.0155552
-0.0152801
1.61357
-0.116754
1.59497
-0.134586
1.57934
-0.149175
1.56721
-0.159728
1.55819
-0.167113
1.55168
-0.172282
1.54725
-0.175764
1.54458
-0.177849
1.54341
-0.178762
1.54351
-0.178706
1.54469
-0.177853
1.54678
-0.176343
1.54966
-0.174294
1.55322
-0.171801
1.55736
-0.168945
1.562
-0.165789
1.56707
-0.162394
1.57249
-0.15881
1.57822
-0.155079
1.58419
-0.151233
1.59038
-0.147302
1.59675
-0.143311
1.60325
-0.139288
1.60987
-0.135257
1.61657
-0.131234
1.62334
-0.127236
1.63013
-0.123275
1.63695
-0.119363
1.64377
-0.115511
1.65058
-0.111729
1.65735
-0.108021
1.66409
-0.104395
1.67078
-0.100854
1.6774
-0.0974024
1.68396
-0.0940431
1.69044
-0.0907793
1.69685
-0.0876121
1.70316
-0.0845424
1.70938
-0.0815686
1.71551
-0.0786876
1.72153
-0.0759018
1.72745
-0.0732113
1.73326
-0.0706127
1.73895
-0.0681036
1.74452
-0.065683
1.74998
-0.0633476
1.75531
-0.0610978
1.76051
-0.0589341
1.76559
-0.0568511
1.77053
-0.0548481
1.77534
-0.0529238
1.78001
-0.0510761
1.78454
-0.0493027
1.78892
-0.0476016
1.79317
-0.0459706
1.79727
-0.0444076
1.80123
-0.0429103
1.80504
-0.0414771
1.80871
-0.0401051
1.81223
-0.0387927
1.81561
-0.037538
1.81885
-0.0363394
1.82195
-0.0351951
1.82492
-0.0341033
1.82775
-0.0330621
1.83046
-0.0320699
1.83306
-0.0311251
1.83553
-0.0302261
1.83791
-0.0293712
1.84018
-0.0285591
1.84237
-0.0277884
1.84447
-0.0270578
1.8465
-0.0263655
1.84846
-0.0257107
1.85036
-0.0250919
1.85222
-0.0245078
1.85403
-0.0239571
1.8558
-0.0234388
1.85755
-0.0229514
1.85928
-0.0224944
1.861
-0.0220661
1.86271
-0.0216652
1.86442
-0.0212899
1.86613
-0.0209395
1.86785
-0.0206127
1.86958
-0.0203093
1.87133
-0.0200272
1.8731
-0.0197656
1.87489
-0.0195224
1.87671
-0.0192972
1.87856
-0.0190884
1.88044
-0.0188958
1.88236
-0.018717
1.88432
-0.0185532
1.88632
-0.0183997
1.88837
-0.0182588
1.8905
-0.0181278
1.89271
-0.0180095
1.89506
-0.0179011
-0.017814
1.99553
-0.0986903
-2.0136
1.97602
-0.115068
1.95719
-0.13035
1.93965
-0.142188
1.92363
-0.151095
1.90915
-0.157799
1.89614
-0.162748
1.8845
-0.166213
1.87415
-0.16841
1.86498
-0.169534
1.85689
-0.169758
1.84978
-0.169229
1.84356
-0.168068
1.83814
-0.166377
1.83344
-0.164245
1.8294
-0.161744
1.82594
-0.158939
1.82302
-0.155885
1.82057
-0.15263
1.81856
-0.149212
1.81692
-0.145666
1.81564
-0.142024
1.81466
-0.138313
1.81396
-0.134559
1.81351
-0.130784
1.81328
-0.127005
1.81325
-0.12324
1.81338
-0.119501
1.81367
-0.115801
1.81409
-0.11215
1.81463
-0.108556
1.81526
-0.105028
1.81597
-0.10157
1.81676
-0.09819
1.8176
-0.09489
1.8185
-0.0916737
1.81943
-0.0885441
1.82039
-0.0855022
1.82137
-0.082548
1.82236
-0.0796811
1.82336
-0.0769026
1.82436
-0.0742128
1.82536
-0.0716101
1.82634
-0.0690929
1.82732
-0.0666603
1.82828
-0.0643102
1.82923
-0.0620425
1.83015
-0.0598568
1.83105
-0.0577491
1.83192
-0.0557185
1.83276
-0.0537639
1.83356
-0.0518833
1.83433
-0.0500753
1.83507
-0.0483376
1.83577
-0.0466679
1.83642
-0.0450643
1.83704
-0.0435247
1.83761
-0.0420468
1.83813
-0.0406287
1.8386
-0.0392683
1.83903
-0.0379636
1.8394
-0.0367129
1.83972
-0.0355142
1.83998
-0.0343659
1.84019
-0.0332661
1.84033
-0.0322133
1.84041
-0.0312059
1.84043
-0.0302425
1.84038
-0.0293215
1.84026
-0.028442
1.84007
-0.0276024
1.83982
-0.026801
1.83949
-0.0260371
1.83909
-0.02531
1.83861
-0.0246182
1.83806
-0.023961
1.83744
-0.0233371
1.83675
-0.0227455
1.83598
-0.022185
1.83515
-0.0216554
1.83423
-0.0211551
1.83325
-0.0206844
1.8322
-0.0202413
1.83109
-0.0198251
1.82991
-0.0194356
1.82868
-0.0190728
1.82738
-0.0187346
1.82604
-0.0184215
1.82465
-0.0181311
1.82322
-0.0178643
1.82175
-0.0176193
1.82025
-0.0173962
1.81873
-0.0171936
1.81719
-0.0170141
1.81564
-0.0168541
1.8141
-0.0167181
1.81258
-0.0166076
1.81111
-0.0165357
1.80973
-0.0165284
-0.0166887
2.01436
-0.0808011
-2.03224
1.99692
-0.0976306
1.97983
-0.113268
1.96385
-0.126206
1.94915
-0.136397
1.93571
-0.144359
1.92348
-0.150507
1.91238
-0.155111
1.90235
-0.158381
1.89333
-0.160509
1.88524
-0.161666
1.87801
-0.162
1.87158
-0.161635
1.86589
-0.160677
1.86086
-0.159216
1.85645
-0.157331
1.8526
-0.155089
1.84927
-0.152548
1.8464
-0.14976
1.84396
-0.146767
1.8419
-0.143608
1.84019
-0.140317
1.83881
-0.136924
1.8377
-0.133457
1.83686
-0.12994
1.83625
-0.126394
1.83585
-0.122836
1.83563
-0.119282
1.83557
-0.115747
1.83566
-0.112242
1.83588
-0.108777
1.83621
-0.105361
1.83664
-0.102002
1.83716
-0.0987055
1.83774
-0.0954776
1.83839
-0.0923229
1.83909
-0.0892445
1.83983
-0.0862447
1.84061
-0.0833245
1.84141
-0.0804849
1.84223
-0.0777272
1.84307
-0.075052
1.84392
-0.0724588
1.84477
-0.0699472
1.84563
-0.0675162
1.84648
-0.0651647
1.84733
-0.0628925
1.84817
-0.0606984
1.849
-0.0585806
1.84982
-0.056538
1.85062
-0.0545692
1.85141
-0.052673
1.85219
-0.0508478
1.85294
-0.0490916
1.85367
-0.0474027
1.85439
-0.0457788
1.85508
-0.0442184
1.85575
-0.042719
1.8564
-0.0412789
1.85703
-0.0398962
1.85763
-0.0385689
1.85822
-0.0372953
1.85877
-0.0360734
1.85931
-0.0349019
1.85982
-0.0337787
1.86031
-0.0327023
1.86078
-0.0316713
1.86122
-0.0306843
1.86163
-0.0297391
1.86203
-0.0288349
1.86239
-0.0279707
1.86274
-0.0271443
1.86306
-0.0263551
1.86335
-0.0256021
1.86361
-0.0248841
1.86385
-0.0242
1.86406
-0.0235485
1.86425
-0.0229286
1.8644
-0.0223392
1.86452
-0.0217795
1.86462
-0.0212485
1.86468
-0.0207454
1.86471
-0.0202693
1.8647
-0.0198203
1.86466
-0.019396
1.86458
-0.0189961
1.86447
-0.0186198
1.86432
-0.0182672
1.86412
-0.0179375
1.86389
-0.0176307
1.86362
-0.0173458
1.8633
-0.0170838
1.86295
-0.0168424
1.86256
-0.0166231
1.86213
-0.0164268
1.86167
-0.016258
1.86119
-0.0161215
1.86069
-0.0160329
1.86018
-0.0160211
-0.0161846
2.02542
-0.0634929
-2.04273
2.00914
-0.0813478
1.99334
-0.0974742
1.97837
-0.111235
1.96442
-0.122456
1.95154
-0.131477
1.9397
-0.138665
1.92887
-0.14428
1.91901
-0.148525
1.91008
-0.151581
1.90203
-0.153614
1.8948
-0.154765
1.88833
-0.155161
1.88256
-0.154907
1.87744
-0.154095
1.87292
-0.152807
1.86894
-0.151113
1.86547
-0.149074
1.86246
-0.146744
1.85986
-0.144169
1.85764
-0.141391
1.85577
-0.138446
1.85422
-0.135369
1.85295
-0.132187
1.85194
-0.128927
1.85115
-0.125613
1.85058
-0.122263
1.8502
-0.118896
1.84998
-0.115527
1.8499
-0.11217
1.84996
-0.108836
1.85014
-0.105536
1.85041
-0.102279
1.85078
-0.099071
1.85122
-0.0959198
1.85173
-0.0928305
1.85229
-0.0898077
1.8529
-0.0868544
1.85354
-0.083973
1.85422
-0.0811652
1.85493
-0.0784329
1.85565
-0.0757772
1.85639
-0.0731986
1.85714
-0.070697
1.8579
-0.0682722
1.85865
-0.0659236
1.85941
-0.063651
1.86017
-0.0614536
1.86092
-0.0593304
1.86166
-0.0572803
1.86239
-0.0553023
1.86311
-0.0533951
1.86382
-0.0515575
1.86452
-0.0497879
1.8652
-0.0480843
1.86586
-0.0464451
1.86651
-0.0448685
1.86715
-0.0433528
1.86776
-0.0418958
1.86836
-0.040496
1.86894
-0.0391515
1.86951
-0.0378606
1.87006
-0.036622
1.87059
-0.0354334
1.8711
-0.0342934
1.8716
-0.0332005
1.87208
-0.0321533
1.87255
-0.0311498
1.873
-0.0301889
1.87343
-0.0292695
1.87385
-0.0283901
1.87426
-0.0275496
1.87465
-0.0267467
1.87503
-0.0259801
1.87539
-0.0252487
1.87574
-0.0245514
1.87608
-0.0238871
1.87641
-0.0232547
1.87672
-0.0226532
1.87702
-0.0220817
1.87731
-0.0215392
1.87759
-0.0210249
1.87786
-0.0205381
1.87812
-0.0200781
1.87837
-0.0196436
1.8786
-0.019234
1.87883
-0.0188486
1.87905
-0.018487
1.87926
-0.0181489
1.87947
-0.0178341
1.87966
-0.0175418
1.87985
-0.0172726
1.88004
-0.0170261
1.88022
-0.0168029
1.8804
-0.0166047
1.88057
-0.0164351
1.88075
-0.0163003
1.88093
-0.0162112
1.88109
-0.0161843
-0.0162485
2.03038
-0.0470868
-2.04679
2.01504
-0.066003
2.00031
-0.0827527
1.9863
-0.0972213
1.97316
-0.109326
1.96098
-0.119291
1.94973
-0.127419
1.9394
-0.133952
1.92997
-0.139086
1.92138
-0.142993
1.9136
-0.145831
1.90657
-0.147739
1.90025
-0.148841
1.89459
-0.149245
1.88954
-0.149043
1.88506
-0.148318
1.88109
-0.147143
1.8776
-0.145581
1.87454
-0.143688
1.87189
-0.141514
1.8696
-0.139103
1.86765
-0.136494
1.86601
-0.133721
1.86464
-0.130817
1.86352
-0.127809
1.86263
-0.124722
1.86194
-0.121577
1.86144
-0.118394
1.8611
-0.11519
1.86091
-0.11198
1.86085
-0.108777
1.8609
-0.105593
1.86106
-0.102438
1.86131
-0.0993199
1.86164
-0.0962468
1.86203
-0.0932251
1.86248
-0.09026
1.86298
-0.0873558
1.86352
-0.0845157
1.8641
-0.0817424
1.8647
-0.0790382
1.86533
-0.0764048
1.86597
-0.0738437
1.86663
-0.0713552
1.8673
-0.0689394
1.86797
-0.0665966
1.86865
-0.0643265
1.86932
-0.0621288
1.86999
-0.0600027
1.87066
-0.0579478
1.87132
-0.0559632
1.87197
-0.054048
1.87261
-0.0522007
1.87324
-0.0504201
1.87386
-0.0487046
1.87447
-0.0470527
1.87506
-0.0454627
1.87564
-0.0439328
1.87621
-0.0424616
1.87676
-0.0410471
1.8773
-0.039688
1.87782
-0.0383824
1.87832
-0.0371288
1.87882
-0.0359256
1.87929
-0.0347712
1.87976
-0.0336642
1.88021
-0.0326026
1.88064
-0.0315852
1.88106
-0.0306112
1.88147
-0.0296788
1.88187
-0.0287867
1.88225