/*--------------------------------*- C++ -*----------------------------------*\
  =========                 |
  \\      /  F ield         | OpenFOAM: The Open Source CFD Toolbox
   \\    /   O peration     | Website:  https://openfoam.org
    \\  /    A nd           | Version:  8
     \\/     M anipulation  |
\*---------------------------------------------------------------------------*/
FoamFile
{
    version     2.0;
    format      ascii;
    class       volScalarField;
    location    "4.9999766073";
    object      rho;
}
// * * * * * * * * * * * * * * * * * * * * * * * * * * * * * * * * * * * * * //

dimensions      [1 -3 0 0 0 0 0];

internalField   nonuniform List<scalar> 
6800
(
0.590056
0.590139
0.59023
0.590382
0.590605
0.59081
0.590953
0.591068
0.591146
0.591192
0.589983
0.590136
0.590235
0.590497
0.590729
0.590875
0.590989
0.591079
0.591157
0.59123
0.589575
0.590011
0.590251
0.590525
0.590717
0.590863
0.590983
0.591081
0.591166
0.591233
0.589039
0.589858
0.590173
0.590447
0.590671
0.590827
0.590947
0.59104
0.591126
0.591201
0.588461
0.589669
0.589991
0.590347
0.590579
0.590735
0.590864
0.590975
0.591081
0.591173
0.587879
0.58942
0.589792
0.590189
0.590439
0.590628
0.590783
0.590917
0.591034
0.591134
0.587319
0.589172
0.589538
0.59002
0.590303
0.590519
0.590696
0.590848
0.590982
0.591097
0.58684
0.588913
0.589324
0.589862
0.590169
0.590418
0.590624
0.590799
0.590947
0.591073
0.58646
0.588706
0.589125
0.589732
0.590059
0.590347
0.590575
0.590764
0.590924
0.591061
0.586207
0.588537
0.589007
0.589641
0.589994
0.590307
0.590551
0.590754
0.590924
0.591069
0.590586
0.590467
0.590407
0.590404
0.590422
0.590455
0.590502
0.590562
0.590631
0.590707
0.590561
0.590448
0.590391
0.590385
0.590402
0.590435
0.590483
0.590546
0.590622
0.590707
0.590494
0.590401
0.590357
0.590352
0.590368
0.590401
0.590452
0.590522
0.590607
0.590705
0.590416
0.590348
0.590316
0.590318
0.590337
0.59037
0.590427
0.59051
0.59061
0.590715
0.590332
0.590293
0.590285
0.590296
0.590324
0.590371
0.590441
0.590527
0.590628
0.590733
0.590252
0.590255
0.590271
0.590303
0.590353
0.590418
0.590484
0.59056
0.590658
0.590754
0.590201
0.590231
0.590284
0.590346
0.590415
0.590468
0.590529
0.590603
0.590696
0.590796
0.590149
0.59023
0.590306
0.590395
0.590444
0.590496
0.590565
0.590659
0.590761
0.59092
0.590078
0.590194
0.590324
0.590374
0.590435
0.590524
0.59064
0.590787
0.590929
0.591106
0.590072
0.590161
0.590271
0.59034
0.590473
0.590634
0.590816
0.590965
0.591111
0.591216
0.590801
0.590898
0.590979
0.591049
0.59111
0.591164
0.591213
0.591257
0.591296
0.591331
0.591362
0.59139
0.591415
0.591437
0.591458
0.591476
0.591493
0.591508
0.591522
0.591535
0.591548
0.59156
0.591572
0.591584
0.591596
0.591608
0.591621
0.591633
0.591644
0.591655
0.591666
0.591675
0.591684
0.591692
0.591699
0.591705
0.591709
0.591713
0.591716
0.591717
0.591718
0.591719
0.591718
0.591718
0.591717
0.591717
0.591716
0.591717
0.591714
0.591711
0.591709
0.591707
0.591706
0.591705
0.591704
0.591704
0.591704
0.591705
0.591706
0.591708
0.591709
0.591711
0.591713
0.591715
0.591717
0.591719
0.591721
0.591724
0.591726
0.591728
0.59173
0.591732
0.591733
0.591735
0.591737
0.591739
0.59174
0.591742
0.591744
0.591746
0.591748
0.59175
0.591752
0.591754
0.591757
0.591759
0.591762
0.591765
0.591768
0.591771
0.591774
0.591777
0.591781
0.591784
0.591787
0.591791
0.591794
0.591797
0.591802
0.591804
0.590797
0.590898
0.590978
0.591048
0.591109
0.591163
0.591211
0.591255
0.591294
0.591328
0.591359
0.591386
0.591411
0.591433
0.591453
0.591471
0.591488
0.591503
0.591518
0.591531
0.591544
0.591556
0.591569
0.591582
0.591595
0.591607
0.59162
0.591632
0.591644
0.591655
0.591665
0.591674
0.591683
0.59169
0.591697
0.591702
0.591706
0.59171
0.591712
0.591713
0.591714
0.591715
0.591714
0.591714
0.591713
0.591713
0.591712
0.591711
0.591709
0.591707
0.591706
0.591705
0.591704
0.591703
0.591703
0.591703
0.591703
0.591704
0.591705
0.591706
0.591708
0.59171
0.591712
0.591714
0.591716
0.591718
0.59172
0.591723
0.591725
0.591727
0.591729
0.59173
0.591732
0.591734
0.591736
0.591738
0.591739
0.591741
0.591743
0.591745
0.591747
0.591749
0.591751
0.591753
0.591756
0.591758
0.591761
0.591764
0.591767
0.59177
0.591773
0.591777
0.59178
0.591783
0.591787
0.59179
0.591793
0.591796
0.591801
0.591803
0.590791
0.59089
0.59097
0.591039
0.5911
0.591155
0.591204
0.591247
0.591286
0.591321
0.591352
0.591379
0.591404
0.591426
0.591446
0.591465
0.591483
0.5915
0.591514
0.591527
0.591541
0.591554
0.591568
0.591581
0.591595
0.591608
0.59162
0.591632
0.591644
0.591654
0.591664
0.591673
0.591681
0.591688
0.591694
0.591698
0.591702
0.591705
0.591707
0.591709
0.591709
0.59171
0.59171
0.591709
0.591709
0.591708
0.591707
0.591706
0.591705
0.591704
0.591703
0.591702
0.591702
0.591701
0.591701
0.591702
0.591702
0.591703
0.591704
0.591706
0.591708
0.591709
0.591711
0.591713
0.591715
0.591717
0.59172
0.591722
0.591724
0.591726
0.591727
0.591729
0.591731
0.591733
0.591735
0.591736
0.591738
0.59174
0.591742
0.591744
0.591746
0.591748
0.59175
0.591752
0.591755
0.591757
0.59176
0.591763
0.591766
0.591769
0.591772
0.591775
0.591779
0.591782
0.591785
0.591788
0.591792
0.591794
0.591799
0.591801
0.590778
0.590869
0.59095
0.591021
0.591083
0.591138
0.591188
0.591233
0.591273
0.591309
0.591341
0.591369
0.591395
0.59142
0.591442
0.591463
0.591482
0.591501
0.591516
0.59153
0.591545
0.591559
0.591573
0.591587
0.591601
0.591614
0.591626
0.591637
0.591648
0.591658
0.591667
0.591675
0.591682
0.591689
0.591694
0.591698
0.591702
0.591704
0.591706
0.591708
0.591708
0.591709
0.591709
0.591709
0.591708
0.591708
0.591707
0.591707
0.591706
0.591705
0.591705
0.591704
0.591704
0.591704
0.591704
0.591704
0.591705
0.591706
0.591707
0.591709
0.59171
0.591712
0.591714
0.591715
0.591717
0.591719
0.591721
0.591723
0.591725
0.591727
0.591728
0.59173
0.591732
0.591733
0.591735
0.591737
0.591738
0.59174
0.591742
0.591744
0.591746
0.591748
0.59175
0.591752
0.591755
0.591757
0.59176
0.591763
0.591766
0.591769
0.591772
0.591775
0.591778
0.591781
0.591784
0.591787
0.59179
0.591793
0.591796
0.591798
0.590759
0.59084
0.590926
0.591
0.591063
0.591121
0.591174
0.591222
0.591264
0.591302
0.591337
0.591368
0.591398
0.591427
0.591454
0.591478
0.5915
0.591517
0.591533
0.59155
0.591566
0.591581
0.591596
0.59161
0.591624
0.591636
0.591647
0.591658
0.591668
0.591676
0.591684
0.591691
0.591697
0.591702
0.591706
0.59171
0.591713
0.591715
0.591716
0.591718
0.591718
0.591719
0.591719
0.591719
0.591719
0.591718
0.591718
0.591717
0.591717
0.591716
0.591716
0.591716
0.591715
0.591715
0.591715
0.591716
0.591716
0.591717
0.591718
0.591719
0.59172
0.591721
0.591723
0.591724
0.591726
0.591727
0.591729
0.59173
0.591732
0.591733
0.591735
0.591736
0.591737
0.591739
0.59174
0.591742
0.591743
0.591745
0.591746
0.591748
0.59175
0.591752
0.591754
0.591756
0.591759
0.591761
0.591763
0.591766
0.591769
0.591772
0.591774
0.591777
0.59178
0.591783
0.591786
0.591788
0.591791
0.591793
0.591797
0.591798
0.590749
0.59083
0.590926
0.59101
0.591078
0.59114
0.591197
0.591249
0.591296
0.591339
0.591377
0.591414
0.591446
0.591477
0.591507
0.591533
0.591554
0.591573
0.591591
0.591608
0.591624
0.59164
0.591654
0.591667
0.591678
0.591689
0.591699
0.591707
0.591715
0.591722
0.591728
0.591733
0.591737
0.591741
0.591743
0.591746
0.591747
0.591749
0.59175
0.59175
0.591751
0.591751
0.59175
0.59175
0.591749
0.591748
0.591748
0.591747
0.591746
0.591745
0.591744
0.591743
0.591743
0.591742
0.591741
0.591741
0.591741
0.591741
0.591741
0.591741
0.591742
0.591742
0.591743
0.591744
0.591745
0.591745
0.591746
0.591747
0.591748
0.591749
0.59175
0.591751
0.591752
0.591753
0.591754
0.591755
0.591756
0.591757
0.591758
0.59176
0.591761
0.591763
0.591765
0.591767
0.591769
0.591771
0.591773
0.591775
0.591778
0.59178
0.591782
0.591785
0.591787
0.591789
0.591792
0.591794
0.591796
0.591798
0.591801
0.591802
0.590775
0.59086
0.590973
0.591069
0.591147
0.591218
0.591283
0.591343
0.591396
0.591446
0.591492
0.591532
0.591568
0.591603
0.591632
0.591658
0.591679
0.5917
0.591718
0.591736
0.591751
0.591764
0.591776
0.591786
0.591794
0.591801
0.591807
0.591812
0.591816
0.591819
0.591821
0.591823
0.591824
0.591824
0.591824
0.591823
0.591822
0.591822
0.591821
0.59182
0.591818
0.591817
0.591815
0.591813
0.591811
0.591809
0.591807
0.591805
0.591803
0.591801
0.591799
0.591797
0.591795
0.591793
0.591791
0.591789
0.591788
0.591786
0.591785
0.591784
0.591783
0.591783
0.591782
0.591782
0.591781
0.591781
0.591781
0.59178
0.59178
0.59178
0.59178
0.59178
0.59178
0.59178
0.59178
0.591781
0.591781
0.591782
0.591782
0.591783
0.591784
0.591785
0.591786
0.591788
0.591789
0.591791
0.591793
0.591794
0.591796
0.591798
0.5918
0.591801
0.591803
0.591805
0.591806
0.591808
0.591809
0.591811
0.591812
0.591813
0.590898
0.590975
0.591092
0.591194
0.59128
0.591356
0.591425
0.591488
0.591547
0.591599
0.591647
0.59169
0.591728
0.591763
0.591793
0.59182
0.591845
0.591867
0.591886
0.591904
0.591919
0.591932
0.591943
0.591952
0.591959
0.591965
0.591968
0.591971
0.591972
0.591972
0.591972
0.59197
0.591969
0.591966
0.591963
0.59196
0.591956
0.591953
0.591949
0.591945
0.591941
0.591937
0.591932
0.591928
0.591923
0.591918
0.591914
0.591909
0.591904
0.591899
0.591894
0.591889
0.591885
0.59188
0.591876
0.591872
0.591868
0.591864
0.591861
0.591857
0.591854
0.591851
0.591848
0.591846
0.591843
0.591841
0.591839
0.591837
0.591836
0.591834
0.591833
0.591831
0.59183
0.591828
0.591827
0.591826
0.591825
0.591824
0.591824
0.591823
0.591823
0.591823
0.591824
0.591824
0.591825
0.591825
0.591826
0.591826
0.591827
0.591828
0.591829
0.59183
0.59183
0.591831
0.591832
0.591833
0.591833
0.591834
0.591834
0.591834
0.591085
0.591148
0.591249
0.591345
0.591428
0.5915
0.591566
0.591626
0.591681
0.59173
0.591775
0.591816
0.591853
0.591886
0.591916
0.591943
0.591968
0.59199
0.59201
0.592027
0.592043
0.592057
0.592069
0.592079
0.592088
0.592095
0.592101
0.592105
0.592108
0.59211
0.592112
0.592112
0.592112
0.592111
0.592109
0.592107
0.592105
0.592102
0.5921
0.592097
0.592093
0.592089
0.592085
0.592079
0.592073
0.59207
0.592065
0.592059
0.592053
0.592046
0.592039
0.592032
0.592025
0.592018
0.59201
0.592003
0.591996
0.591989
0.591982
0.591976
0.591969
0.591963
0.591957
0.591951
0.591946
0.591941
0.591936
0.591931
0.591927
0.591922
0.591918
0.591914
0.591911
0.591907
0.591903
0.5919
0.591897
0.591894
0.591892
0.591889
0.591887
0.591884
0.591883
0.591881
0.591881
0.591879
0.59188
0.591878
0.591879
0.591878
0.591877
0.591877
0.591876
0.591876
0.591875
0.591875
0.591874
0.591873
0.591873
0.591871
0.59121
0.591266
0.591348
0.591431
0.591507
0.591575
0.591638
0.591695
0.591747
0.591795
0.591839
0.591878
0.591913
0.591946
0.591975
0.592001
0.592025
0.592047
0.592066
0.592084
0.592099
0.592112
0.592124
0.592134
0.592143
0.592151
0.592157
0.592163
0.592168
0.592171
0.592176
0.592178
0.59218
0.592181
0.59218
0.59218
0.59218
0.592179
0.592179
0.592179
0.592178
0.592176
0.592175
0.592173
0.592171
0.592168
0.592166
0.592163
0.59216
0.592157
0.592153
0.592149
0.592145
0.592141
0.592136
0.592132
0.592127
0.592122
0.592117
0.592112
0.592106
0.592101
0.592095
0.592089
0.592084
0.592078
0.592072
0.592066
0.59206
0.592054
0.592048
0.592042
0.592036
0.59203
0.592024
0.592018
0.592013
0.592008
0.592002
0.591997
0.591993
0.591988
0.591985
0.591981
0.591977
0.591973
0.59197
0.591967
0.591964
0.591961
0.591958
0.591955
0.591951
0.591948
0.591945
0.591943
0.59194
0.591937
0.591934
0.591931
0.591305
0.591367
0.591438
0.591511
0.59158
0.591643
0.591702
0.591755
0.591804
0.591848
0.591889
0.591926
0.59196
0.59199
0.592018
0.592043
0.592066
0.592087
0.592105
0.592121
0.592136
0.592148
0.592159
0.592169
0.592177
0.592185
0.59219
0.592196
0.592201
0.592204
0.592208
0.59221
0.592212
0.592213
0.592214
0.592215
0.592215
0.592215
0.592215
0.592214
0.592214
0.592213
0.592212
0.59221
0.592209
0.592207
0.592206
0.592204
0.592202
0.5922
0.592198
0.592196
0.592193
0.592191
0.592188
0.592186
0.592184
0.592181
0.592179
0.592177
0.592174
0.592172
0.592169
0.592166
0.592164
0.592161
0.592158
0.592155
0.592152
0.592149
0.592146
0.592142
0.592139
0.592136
0.592132
0.592129
0.592126
0.592122
0.592118
0.592115
0.592111
0.592107
0.592103
0.592099
0.592095
0.592091
0.592087
0.592082
0.592077
0.592072
0.592068
0.592063
0.592059
0.592054
0.592049
0.592044
0.59204
0.592034
0.592031
0.592024
0.591375
0.591442
0.591512
0.59158
0.591644
0.591703
0.591757
0.591807
0.591852
0.591893
0.591931
0.591965
0.591997
0.592025
0.592051
0.592074
0.592095
0.592114
0.59213
0.592145
0.592159
0.59217
0.592181
0.59219
0.592197
0.592204
0.592209
0.592214
0.592218
0.592221
0.592224
0.592226
0.592228
0.592229
0.59223
0.59223
0.59223
0.592229
0.592229
0.592228
0.592228
0.592227
0.592225
0.592224
0.592223
0.592221
0.59222
0.592218
0.592217
0.592215
0.592213
0.592212
0.59221
0.592208
0.592206
0.592205
0.592203
0.592201
0.5922
0.592198
0.592197
0.592196
0.592194
0.592192
0.592191
0.592189
0.592188
0.592186
0.592185
0.592183
0.592181
0.592179
0.592178
0.592176
0.592174
0.592173
0.592171
0.592169
0.592168
0.592166
0.592165
0.592163
0.592161
0.592159
0.592158
0.592157
0.592155
0.592153
0.59215
0.592148
0.592145
0.592143
0.592142
0.59214
0.592137
0.592134
0.592131
0.592128
0.592125
0.59212
0.591432
0.591493
0.591559
0.591621
0.591679
0.591733
0.591783
0.591829
0.591872
0.591911
0.591947
0.59198
0.59201
0.592037
0.592062
0.592084
0.592104
0.592122
0.592139
0.592153
0.592166
0.592177
0.592187
0.592196
0.592203
0.59221
0.592215
0.59222
0.592224
0.592228
0.59223
0.592233
0.592235
0.592236
0.592237
0.592237
0.592238
0.592238
0.592237
0.592236
0.592236
0.592235
0.592234
0.592232
0.592231
0.592229
0.592228
0.592226
0.592225
0.592223
0.592221
0.59222
0.592218
0.592217
0.592215
0.592214
0.592213
0.592211
0.59221
0.592209
0.592208
0.592206
0.592205
0.592204
0.592202
0.592201
0.5922
0.592199
0.592197
0.592196
0.592194
0.592192
0.592191
0.59219
0.592189
0.592188
0.592187
0.592186
0.592185
0.592184
0.592184
0.592183
0.592182
0.592181
0.59218
0.59218
0.592179
0.592178
0.592177
0.592176
0.592175
0.592174
0.592173
0.592172
0.592171
0.59217
0.592168
0.592167
0.592166
0.592164
0.591485
0.591541
0.591604
0.591662
0.591716
0.591766
0.591813
0.591856
0.591896
0.591933
0.591966
0.591997
0.592025
0.592051
0.592074
0.592096
0.592115
0.592132
0.592147
0.592161
0.592173
0.592184
0.592193
0.592202
0.592209
0.592215
0.592221
0.592225
0.592229
0.592232
0.592235
0.592237
0.592239
0.59224
0.592241
0.592242
0.592242
0.592242
0.592242
0.592241
0.592241
0.59224
0.592239
0.592237
0.592236
0.592235
0.592233
0.592232
0.59223
0.592229
0.592227
0.592225
0.592224
0.592223
0.592221
0.59222
0.592219
0.592217
0.592216
0.592215
0.592214
0.592213
0.592211
0.59221
0.592209
0.592208
0.592206
0.592205
0.592203
0.592202
0.592201
0.592199
0.592198
0.592197
0.592196
0.592195
0.592194
0.592194
0.592193
0.592192
0.592192
0.592191
0.59219
0.59219
0.592189
0.592188
0.592188
0.592187
0.592187
0.592186
0.592185
0.592185
0.592184
0.592183
0.592182
0.592182
0.592181
0.59218
0.592179
0.592178
0.591538
0.591588
0.591647
0.591701
0.59175
0.591795
0.591838
0.591878
0.591916
0.59195
0.591981
0.59201
0.592037
0.592061
0.592083
0.592103
0.592121
0.592138
0.592152
0.592165
0.592177
0.592187
0.592196
0.592204
0.592211
0.592217
0.592223
0.592227
0.592231
0.592234
0.592237
0.59224
0.592241
0.592243
0.592244
0.592244
0.592245
0.592245
0.592245
0.592244
0.592244
0.592243
0.592243
0.592241
0.59224
0.592238
0.592237
0.592235
0.592234
0.592232
0.592231
0.59223
0.592228
0.592227
0.592225
0.592224
0.592223
0.592221
0.59222
0.592219
0.592218
0.592216
0.592215
0.592214
0.592213
0.592212
0.59221
0.592209
0.592208
0.592207
0.592206
0.592205
0.592204
0.592203
0.592202
0.592202
0.592201
0.5922
0.592199
0.592199
0.592198
0.592197
0.592197
0.592196
0.592195
0.592194
0.592194
0.592193
0.592193
0.592192
0.592191
0.59219
0.59219
0.592189
0.592188
0.592187
0.592186
0.592186
0.592185
0.592184
0.59159
0.591635
0.591688
0.591738
0.591783
0.591824
0.591864
0.591901
0.591935
0.591967
0.591997
0.592024
0.592049
0.592072
0.592092
0.592111
0.592128
0.592144
0.592157
0.59217
0.592181
0.592191
0.592199
0.592207
0.592213
0.592219
0.592224
0.592229
0.592232
0.592236
0.592238
0.592241
0.592242
0.592244
0.592245
0.592245
0.592246
0.592246
0.592246
0.592245
0.592245
0.592244
0.592244
0.592243
0.592242
0.592241
0.592239
0.592237
0.592236
0.592235
0.592233
0.592232
0.59223
0.592229
0.592228
0.592227
0.592225
0.592224
0.592223
0.592222
0.592221
0.59222
0.592219
0.592218
0.592217
0.592216
0.592215
0.592214
0.592213
0.592212
0.592211
0.59221
0.592209
0.592209
0.592208
0.592207
0.592206
0.592206
0.592205
0.592204
0.592204
0.592203
0.592202
0.592202
0.592201
0.592201
0.5922
0.592199
0.592199
0.592198
0.592197
0.592197
0.592196
0.592195
0.592194
0.592193
0.592192
0.59219
0.59219
0.592189
0.591641
0.59168
0.591729
0.591774
0.591815
0.591853
0.591889
0.591923
0.591955
0.591984
0.592011
0.592036
0.59206
0.592081
0.5921
0.592118
0.592134
0.592148
0.592161
0.592173
0.592183
0.592192
0.592201
0.592208
0.592214
0.592219
0.592224
0.592228
0.592232
0.592235
0.592238
0.59224
0.592241
0.592243
0.592244
0.592245
0.592245
0.592245
0.592245
0.592245
0.592245
0.592244
0.592243
0.592242
0.592241
0.59224
0.592239
0.592238
0.592237
0.592236
0.592234
0.592233
0.592232
0.592231
0.59223
0.592228
0.592227
0.592226
0.592225
0.592224
0.592223
0.592222
0.592221
0.59222
0.592219
0.592218
0.592217
0.592216
0.592215
0.592214
0.592213
0.592213
0.592212
0.592211
0.59221
0.59221
0.592209
0.592208
0.592208
0.592207
0.592207
0.592206
0.592205
0.592205
0.592204
0.592204
0.592203
0.592202
0.592202
0.592201
0.5922
0.5922
0.592199
0.592198
0.592197
0.592196
0.592196
0.592195
0.592194
0.592194
0.59169
0.591724
0.591768
0.591809
0.591846
0.59188
0.591913
0.591944
0.591974
0.592001
0.592026
0.592049
0.59207
0.59209
0.592108
0.592124
0.592139
0.592153
0.592165
0.592176
0.592186
0.592194
0.592202
0.592209
0.592215
0.59222
0.592224
0.592228
0.592232
0.592235
0.592237
0.592239
0.592241
0.592242
0.592243
0.592244
0.592244
0.592245
0.592245
0.592244
0.592244
0.592243
0.592243
0.592242
0.592241
0.59224
0.592239
0.592238
0.592237
0.592236
0.592235
0.592233
0.592232
0.592231
0.59223
0.592229
0.592228
0.592227
0.592226
0.592225
0.592224
0.592223
0.592222
0.592221
0.59222
0.592219
0.592219
0.592218
0.592217
0.592216
0.592215
0.592214
0.592214
0.592213
0.592212
0.592212
0.592211
0.592211
0.59221
0.592209
0.592209
0.592208
0.592208
0.592207
0.592206
0.592206
0.592205
0.592205
0.592204
0.592203
0.592203
0.592202
0.592201
0.592201
0.5922
0.592199
0.592199
0.592198
0.592198
0.592197
0.591738
0.591768
0.591807
0.591843
0.591877
0.591908
0.591937
0.591966
0.591992
0.592017
0.59204
0.592061
0.592081
0.592099
0.592116
0.592131
0.592145
0.592157
0.592168
0.592178
0.592187
0.592195
0.592203
0.592209
0.592214
0.592219
0.592223
0.592227
0.59223
0.592233
0.592235
0.592237
0.592239
0.59224
0.592241
0.592242
0.592242
0.592243
0.592243
0.592243
0.592242
0.592242
0.592242
0.592241
0.59224
0.592239
0.592238
0.592237
0.592236
0.592235
0.592234
0.592233
0.592232
0.592231
0.59223
0.592229
0.592228
0.592228
0.592227
0.592226
0.592225
0.592224
0.592223
0.592222
0.592222
0.592221
0.59222
0.592219
0.592218
0.592217
0.592217
0.592216
0.592215
0.592214
0.592213
0.592213
0.592212
0.592211
0.592211
0.59221
0.592209
0.592209
0.592208
0.592208
0.592207
0.592207
0.592206
0.592205
0.592205
0.592204
0.592204
0.592203
0.592203
0.592202
0.592201
0.592201
0.5922
0.5922
0.592199
0.592199
0.591785
0.59181
0.591845
0.591877
0.591907
0.591935
0.591962
0.591987
0.592011
0.592033
0.592054
0.592074
0.592091
0.592108
0.592123
0.592137
0.59215
0.592161
0.592172
0.592181
0.592189
0.592197
0.592203
0.592209
0.592214
0.592219
0.592223
0.592226
0.592229
0.592231
0.592234
0.592236
0.592237
0.592238
0.592239
0.59224
0.59224
0.592241
0.592241
0.592241
0.592241
0.59224
0.59224
0.592239
0.592238
0.592238
0.592237
0.592236
0.592235
0.592234
0.592233
0.592232
0.592231
0.59223
0.59223
0.592229
0.592228
0.592227
0.592226
0.592225
0.592225
0.592224
0.592223
0.592222
0.592222
0.592221
0.59222
0.592219
0.592218
0.592218
0.592217
0.592216
0.592215
0.592215
0.592214
0.592213
0.592213
0.592212
0.592212
0.592211
0.59221
0.59221
0.592209
0.592209
0.592208
0.592208
0.592207
0.592207
0.592206
0.592206
0.592205
0.592205
0.592204
0.592204
0.592203
0.592203
0.592202
0.592201
0.592201
0.592201
0.591831
0.591852
0.591882
0.591911
0.591937
0.591961
0.591985
0.592008
0.592029
0.592049
0.592068
0.592086
0.592102
0.592117
0.592131
0.592143
0.592155
0.592165
0.592174
0.592183
0.592191
0.592197
0.592203
0.592209
0.592213
0.592217
0.592221
0.592224
0.592227
0.592229
0.592231
0.592233
0.592235
0.592236
0.592236
0.592237
0.592238
0.592238
0.592238
0.592238
0.592238
0.592238
0.592237
0.592237
0.592236
0.592236
0.592235
0.592234
0.592233
0.592233
0.592232
0.592231
0.59223
0.59223
0.592229
0.592228
0.592227
0.592226
0.592226
0.592225
0.592224
0.592223
0.592223
0.592222
0.592221
0.592221
0.59222
0.592219
0.592219
0.592218
0.592217
0.592217
0.592216
0.592215
0.592215
0.592214
0.592214
0.592213
0.592213
0.592212
0.592212
0.592211
0.592211
0.59221
0.59221
0.592209
0.592209
0.592208
0.592208
0.592208
0.592207
0.592207
0.592206
0.592206
0.592205
0.592205
0.592205
0.592204
0.592204
0.592203
0.591875
0.591893
0.591919
0.591944
0.591966
0.591988
0.592009
0.592029
0.592048
0.592066
0.592082
0.592098
0.592112
0.592126
0.592138
0.592149
0.59216
0.592169
0.592177
0.592185
0.592192
0.592198
0.592203
0.592208
0.592213
0.592216
0.59222
0.592222
0.592225
0.592227
0.592229
0.59223
0.592232
0.592233
0.592234
0.592234
0.592235
0.592235
0.592235
0.592235
0.592235
0.592235
0.592235
0.592234
0.592234
0.592233
0.592233
0.592232
0.592231
0.59223
0.59223
0.592229
0.592228
0.592228
0.592227
0.592226
0.592225
0.592225
0.592224
0.592224
0.592223
0.592222
0.592222
0.592221
0.59222
0.59222
0.592219
0.592218
0.592218
0.592217
0.592217
0.592216
0.592216
0.592215
0.592214
0.592214
0.592214
0.592213
0.592213
0.592212
0.592212
0.592211
0.592211
0.59221
0.59221
0.59221
0.592209
0.592209
0.592208
0.592208
0.592208
0.592207
0.592207
0.592207
0.592206
0.592206
0.592205
0.592205
0.592204
0.592204
0.591918
0.591933
0.591954
0.591976
0.591995
0.592014
0.592032
0.592049
0.592066
0.592082
0.592096
0.59211
0.592123
0.592134
0.592145
0.592155
0.592164
0.592173
0.59218
0.592187
0.592193
0.592198
0.592203
0.592208
0.592211
0.592215
0.592218
0.59222
0.592223
0.592224
0.592226
0.592228
0.592229
0.59223
0.59223
0.592231
0.592231
0.592232
0.592232
0.592232
0.592232
0.592232
0.592231
0.592231
0.592231
0.59223
0.59223
0.592229
0.592229
0.592228
0.592228
0.592227
0.592226
0.592226
0.592225
0.592224
0.592224
0.592223
0.592223
0.592222
0.592222
0.592221
0.59222
0.59222
0.592219
0.592219
0.592218
0.592218
0.592217
0.592217
0.592216
0.592216
0.592215
0.592215
0.592214
0.592214
0.592213
0.592213
0.592212
0.592212
0.592211
0.592211
0.592211
0.59221
0.59221
0.59221
0.592209
0.592209
0.592209
0.592208
0.592208
0.592208
0.592207
0.592207
0.592206
0.592206
0.592206
0.592205
0.592205
0.592204
0.591959
0.591971
0.59199
0.592007
0.592024
0.59204
0.592055
0.59207
0.592084
0.592098
0.59211
0.592122
0.592133
0.592143
0.592153
0.592161
0.592169
0.592177
0.592183
0.592189
0.592194
0.592199
0.592203
0.592207
0.59221
0.592213
0.592216
0.592218
0.59222
0.592222
0.592223
0.592225
0.592226
0.592226
0.592227
0.592227
0.592228
0.592228
0.592228
0.592228
0.592228
0.592228
0.592228
0.592228
0.592228
0.592227
0.592227
0.592226
0.592226
0.592225
0.592225
0.592224
0.592224
0.592223
0.592223
0.592222
0.592222
0.592221
0.592221
0.59222
0.59222
0.592219
0.592219
0.592219
0.592218
0.592218
0.592217
0.592217
0.592216
0.592216
0.592215
0.592215
0.592215
0.592214
0.592214
0.592213
0.592213
0.592213
0.592212
0.592212
0.592212
0.592211
0.592211
0.592211
0.59221
0.59221
0.59221
0.592209
0.592209
0.592209
0.592208
0.592208
0.592208
0.592207
0.592207
0.592207
0.592206
0.592206
0.592206
0.592205
0.591999
0.592009
0.592024
0.592039
0.592052
0.592065
0.592078
0.592091
0.592103
0.592114
0.592124
0.592134
0.592144
0.592152
0.59216
0.592167
0.592174
0.59218
0.592186
0.592191
0.592195
0.592199
0.592203
0.592206
0.592209
0.592212
0.592214
0.592216
0.592217
0.592219
0.59222
0.592221
0.592222
0.592223
0.592224
0.592224
0.592224
0.592224
0.592225
0.592225
0.592225
0.592225
0.592225
0.592225
0.592224
0.592224
0.592224
0.592224
0.592223
0.592223
0.592222
0.592222
0.592222
0.592221
0.592221
0.59222
0.59222
0.592219
0.592219
0.592219
0.592218
0.592218
0.592217
0.592217
0.592217
0.592216
0.592216
0.592216
0.592215
0.592215
0.592214
0.592214
0.592214
0.592213
0.592213
0.592213
0.592213
0.592212
0.592212
0.592212
0.592211
0.592211
0.592211
0.59221
0.59221
0.59221
0.59221
0.592209
0.592209
0.592209
0.592209
0.592208
0.592208
0.592208
0.592208
0.592207
0.592207
0.592207
0.592206
0.592206
0.592038
0.592046
0.592057
0.592069
0.59208
0.592091
0.592101
0.592111
0.592121
0.59213
0.592139
0.592147
0.592154
0.592161
0.592168
0.592174
0.592179
0.592184
0.592189
0.592193
0.592197
0.5922
0.592203
0.592206
0.592208
0.59221
0.592212
0.592214
0.592215
0.592216
0.592217
0.592218
0.592219
0.59222
0.59222
0.59222
0.592221
0.592221
0.592221
0.592221
0.592221
0.592221
0.592221
0.592221
0.592221
0.592221
0.592221
0.592221
0.59222
0.59222
0.59222
0.59222
0.592219
0.592219
0.592219
0.592218
0.592218
0.592218
0.592217
0.592217
0.592217
0.592216
0.592216
0.592216
0.592215
0.592215
0.592215
0.592214
0.592214
0.592214
0.592214
0.592213
0.592213
0.592213
0.592212
0.592212
0.592212
0.592212
0.592211
0.592211
0.592211
0.592211
0.59221
0.59221
0.59221
0.59221
0.592209
0.592209
0.592209
0.592209
0.592208
0.592208
0.592208
0.592208
0.592207
0.592207
0.592207
0.592207
0.592206
0.592206
0.592076
0.592082
0.592091
0.5921
0.592108
0.592116
0.592124
0.592132
0.592139
0.592146
0.592153
0.592159
0.592165
0.59217
0.592175
0.59218
0.592184
0.592188
0.592192
0.592195
0.592198
0.592201
0.592203
0.592205
0.592207
0.592209
0.59221
0.592212
0.592213
0.592214
0.592215
0.592215
0.592216
0.592217
0.592217
0.592217
0.592218
0.592218
0.592218
0.592218
0.592218
0.592218
0.592219
0.592219
0.592218
0.592218
0.592218
0.592218
0.592218
0.592218
0.592218
0.592217
0.592217
0.592217
0.592217
0.592216
0.592216
0.592216
0.592216
0.592215
0.592215
0.592215
0.592214
0.592214
0.592214
0.592214
0.592213
0.592213
0.592213
0.592213
0.592212
0.592212
0.592212
0.592212
0.592212
0.592211
0.592211
0.592211
0.592211
0.592211
0.59221
0.59221
0.59221
0.59221
0.592209
0.592209
0.592209
0.592209
0.592208
0.592208
0.592208
0.592208
0.592207
0.592207
0.592207
0.592207
0.592206
0.592206
0.592206
0.592206
0.592113
0.592117
0.592123
0.592129
0.592135
0.592141
0.592146
0.592152
0.592157
0.592162
0.592167
0.592171
0.592176
0.592179
0.592183
0.592187
0.59219
0.592193
0.592195
0.592198
0.5922
0.592202
0.592204
0.592205
0.592207
0.592208
0.592209
0.59221
0.592211
0.592212
0.592213
0.592213
0.592214
0.592214
0.592214
0.592215
0.592215
0.592215
0.592215
0.592215
0.592215
0.592215
0.592215
0.592215
0.592215
0.592215
0.592215
0.592215
0.592215
0.592215
0.592215
0.592214
0.592214
0.592214
0.592214
0.592214
0.592213
0.592213
0.592213
0.592213
0.592213
0.592212
0.592212
0.592212
0.592212
0.592212
0.592211
0.592211
0.592211
0.592211
0.592211
0.59221
0.59221
0.59221
0.59221
0.59221
0.59221
0.592209
0.592209
0.592209
0.592208
0.592208
0.592208
0.592208
0.592208
0.592207
0.592207
0.592207
0.592207
0.592206
0.592206
0.592206
0.592206
0.592206
0.592205
0.592205
0.592205
0.592205
0.592204
0.592204
0.592149
0.592152
0.592155
0.592159
0.592162
0.592166
0.592169
0.592173
0.592176
0.592179
0.592182
0.592185
0.592188
0.59219
0.592193
0.592195
0.592197
0.592199
0.5922
0.592202
0.592203
0.592205
0.592206
0.592207
0.592208
0.592208
0.592209
0.59221
0.59221
0.592211
0.592211
0.592211
0.592211
0.592212
0.592212
0.592212
0.592212
0.592212
0.592212
0.592212
0.592212
0.592212
0.592212
0.592211
0.592211
0.592211
0.592211
0.592211
0.592211
0.592211
0.59221
0.59221
0.59221
0.59221
0.59221
0.59221
0.59221
0.59221
0.59221
0.59221
0.592209
0.592209
0.592209
0.592209
0.592209
0.592209
0.592209
0.592209
0.592209
0.592209
0.592208
0.592208
0.592208
0.592208
0.592208
0.592208
0.592208
0.592207
0.592207
0.592207
0.592206
0.592206
0.592206
0.592206
0.592205
0.592205
0.592205
0.592205
0.592205
0.592204
0.592204
0.592204
0.592204
0.592204
0.592204
0.592204
0.592203
0.592203
0.592203
0.592203
0.592187
0.592188
0.59219
0.592191
0.592192
0.592194
0.592195
0.592196
0.592198
0.592199
0.5922
0.592201
0.592202
0.592203
0.592204
0.592204
0.592205
0.592205
0.592206
0.592206
0.592207
0.592207
0.592207
0.592207
0.592208
0.592208
0.592208
0.592208
0.592208
0.592208
0.592208
0.592208
0.592208
0.592208
0.592208
0.592208
0.592208
0.592207
0.592207
0.592207
0.592207
0.592207
0.592207
0.592207
0.592207
0.592207
0.592207
0.592206
0.592206
0.592206
0.592206
0.592206
0.592206
0.592206
0.592206
0.592206
0.592206
0.592206
0.592206
0.592206
0.592206
0.592206
0.592206
0.592206
0.592206
0.592206
0.592206
0.592206
0.592206
0.592206
0.592206
0.592206
0.592206
0.592206
0.592206
0.592206
0.592206
0.592205
0.592205
0.592205
0.592205
0.592204
0.592204
0.592204
0.592204
0.592204
0.592204
0.592203
0.592203
0.592203
0.592203
0.592203
0.592203
0.592203
0.592203
0.592203
0.592203
0.592203
0.592203
0.592203
0.591193
0.591183
0.591188
0.591207
0.59123
0.591265
0.591289
0.591311
0.591316
0.591259
0.591296
0.591283
0.591282
0.591291
0.591305
0.591328
0.591347
0.591362
0.591371
0.591333
0.591392
0.591375
0.591369
0.591371
0.591379
0.59139
0.591405
0.591413
0.591422
0.5914
0.591476
0.591458
0.591449
0.591446
0.591449
0.591455
0.591463
0.591471
0.591476
0.591462
0.591552
0.591533
0.591522
0.591517
0.591516
0.591518
0.591522
0.591527
0.591531
0.591522
0.591619
0.591602
0.59159
0.591583
0.591579
0.591579
0.59158
0.591581
0.591584
0.591579
0.59168
0.591664
0.591652
0.591643
0.591639
0.591636
0.591636
0.591635
0.591636
0.591633
0.591736
0.59172
0.591709
0.5917
0.591694
0.591691
0.591689
0.591688
0.591688
0.591685
0.591787
0.591773
0.591761
0.591753
0.591747
0.591743
0.59174
0.591739
0.591738
0.591735
0.591835
0.591821
0.591811
0.591802