/*--------------------------------*- C++ -*----------------------------------*\
  =========                 |
  \\      /  F ield         | OpenFOAM: The Open Source CFD Toolbox
   \\    /   O peration     | Website:  https://openfoam.org
    \\  /    A nd           | Version:  8
     \\/     M anipulation  |
\*---------------------------------------------------------------------------*/
FoamFile
{
    version     2.0;
    format      ascii;
    class       volVectorField;
    location    "4.9999766073";
    object      U;
}
// * * * * * * * * * * * * * * * * * * * * * * * * * * * * * * * * * * * * * //

dimensions      [0 1 -1 0 0 0 0];

internalField   nonuniform List<vector> 
6800
(
(0.247763 4.22274 -1.0736e-14)
(20.8367 -3.15132 2.94507e-15)
(31.6474 -4.42136 2.86821e-15)
(38.669 -4.37978 -2.89254e-15)
(43.4341 -4.00154 1.95015e-15)
(46.6666 -3.52409 2.58949e-15)
(48.8575 -3.04743 -4.0909e-15)
(50.3518 -2.61154 3.69983e-15)
(51.3908 -2.20363 -2.64427e-15)
(52.0881 -1.86958 5.19144e-16)
(10.6926 1.52368 1.54725e-14)
(27.8628 -5.30677 -4.10083e-15)
(37.8113 -5.20416 -9.49489e-16)
(43.8288 -4.58611 2.02081e-15)
(47.6287 -3.88185 -1.93318e-15)
(50.0429 -3.19146 -4.64194e-17)
(51.5727 -2.59558 5.82464e-18)
(52.5321 -2.11174 -1.12985e-15)
(53.1323 -1.72849 1.97557e-16)
(53.4615 -1.51202 2.62197e-15)
(17.9382 -0.690717 2.6815e-15)
(34.174 -7.38752 -7.34525e-16)
(43.1662 -5.71935 1.96979e-15)
(48.1451 -4.58388 -4.53932e-15)
(51.0027 -3.59688 9.25018e-16)
(52.6625 -2.74129 -2.88472e-15)
(53.597 -2.0622 2.63653e-15)
(54.0868 -1.55191 -3.15825e-16)
(54.3173 -1.17092 3.43665e-15)
(54.3663 -0.944786 -5.42451e-15)
(25.629 -2.24781 4.35918e-15)
(40.3818 -9.00072 -1.00146e-15)
(48.0298 -5.80518 -1.88832e-16)
(51.8437 -4.33118 6.04187e-16)
(53.779 -3.12052 -1.90267e-15)
(54.7359 -2.15234 1.84362e-15)
(55.1377 -1.43469 -3.11667e-15)
(55.2403 -0.916357 4.57811e-15)
(55.1916 -0.536106 -3.2244e-15)
(55.0434 -0.296149 3.99797e-15)
(33.2839 -2.67139 4.24054e-18)
(46.3376 -9.83595 1.96018e-15)
(52.4307 -5.31244 7.87219e-16)
(55.0418 -3.75146 3.6022e-15)
(56.0921 -2.39972 -1.94054e-15)
(56.4041 -1.3951 6.19767e-16)
(56.3568 -0.681511 7.83106e-16)
(56.1544 -0.174283 2.42761e-15)
(55.8958 0.194222 -3.35874e-15)
(55.6021 0.43471 1.45792e-15)
(40.5327 -1.92773 -1.97781e-15)
(51.8852 -9.79071 -9.6966e-16)
(56.3471 -4.19155 -5.01931e-17)
(57.7961 -2.80494 -1.3155e-15)
(58.0185 -1.39034 -1.70735e-16)
(57.7728 -0.432412 9.98715e-16)
(57.3582 0.236566 -1.37621e-15)
(56.9162 0.707631 1.60013e-15)
(56.4933 1.04528 -1.80545e-15)
(56.0815 1.27091 -3.7204e-16)
(47.1101 -0.0945612 2.80585e-16)
(56.8811 -8.82849 1.05164e-15)
(59.7258 -2.4411 7.77781e-16)
(60.1192 -1.47155 -1.1399e-15)
(59.6028 -0.0685452 -1.59375e-16)
(58.8949 0.760618 1.49401e-15)
(58.1868 1.34471 -6.25532e-16)
(57.5525 1.75244 9.75832e-16)
(56.9943 2.03382 -2.00369e-15)
(56.4794 2.22802 3.83512e-20)
(52.7883 2.66751 7.02922e-16)
(61.2028 -6.98603 -1.79727e-16)
(62.5085 -0.125585 -8.39626e-16)
(61.9944 0.247824 -1.43124e-15)
(60.8541 1.56682 2.51346e-15)
(59.7795 2.18785 -1.76805e-15)
(58.8398 2.65295 3.57821e-16)
(58.0506 2.96455 -1.40059e-15)
(57.3803 3.15932 -6.18709e-16)
(56.7728 3.3069 -7.96936e-16)
(57.4244 6.17658 8.46271e-17)
(64.7411 -4.35102 1.33191e-16)
(64.6524 2.66642 -7.0255e-16)
(63.3888 2.31623 5.46286e-16)
(61.7501 3.48878 4.51637e-16)
(60.4095 3.83632 -6.32092e-16)
(59.2908 4.14771 3.01979e-16)
(58.3793 4.32964 5.17065e-16)
(57.6189 4.4074 5.31255e-16)
(56.9304 4.49547 6.23919e-16)
(60.9321 10.217 -2.33381e-16)
(67.4075 -1.02422 -7.29392e-17)
(66.0961 5.79924 -1.6477e-16)
(64.2779 4.67944 1.66439e-16)
(62.2751 5.6457 -5.15641e-16)
(60.7489 5.67031 -9.84776e-17)
(59.5013 5.79769 -4.55335e-17)
(58.5002 5.81692 4.53473e-16)
(57.6774 5.75197 2.1469e-16)
(56.9215 5.76943 -9.85268e-16)
(-3.35026 1.69855 1.72451e-15)
(-5.34532 1.19674 -4.88878e-16)
(-7.22128 0.885043 -2.27999e-16)
(-8.64825 0.652306 3.65296e-16)
(-9.56016 0.433399 -7.62259e-17)
(-10.0297 0.206638 5.18935e-16)
(-10.0939 -0.0321287 1.74971e-16)
(-9.78432 -0.271428 -2.84607e-16)
(-9.13968 -0.489323 5.69465e-16)
(-8.21145 -0.644815 -1.94934e-16)
(-3.36728 4.31262 -8.8144e-16)
(-5.00882 3.29803 8.02129e-16)
(-6.57105 2.49186 1.63126e-16)
(-7.68651 1.84612 8.5324e-16)
(-8.29572 1.22755 -3.31613e-16)
(-8.45257 0.572255 -9.93163e-17)
(-8.17104 -0.140684 -1.01703e-15)
(-7.45555 -0.867931 7.13832e-16)
(-6.37292 -1.51305 2.30752e-16)
(-5.00851 -1.94079 1.03815e-15)
(-3.49516 6.5705 -2.08981e-15)
(-4.57226 5.10496 -1.01302e-16)
(-5.53542 3.87018 1.7376e-15)
(-6.02846 2.84227 -2.76396e-15)
(-5.99678 1.84938 7.08254e-18)
(-5.4553 0.784307 -3.45215e-16)
(-4.34384 -0.403387 2.90869e-15)
(-2.70302 -1.62168 -1.86342e-15)
(-0.887229 -2.63628 4.50225e-15)
(1.25744 -3.24199 -1.93416e-15)
(-3.73898 8.22116 -2.32227e-15)
(-4.11744 6.41018 2.22304e-15)
(-4.24055 4.83185 -3.73807e-15)
(-3.8098 3.46687 4.43484e-15)
(-2.72134 2.1256 1.05904e-15)
(-0.869525 0.627961 -5.4488e-16)
(1.89124 -1.05593 -2.00524e-15)
(4.48018 -2.47525 1.3465e-15)
(6.9567 -3.54962 9.82764e-16)
(9.64064 -4.05109 -3.84007e-15)
(-4.04556 9.14396 9.17872e-15)
(-3.66945 7.07254 5.87681e-17)
(-2.68932 5.20211 1.70573e-15)
(-0.844977 3.43947 -9.66418e-15)
(2.10552 1.63071 5.41796e-15)
(5.99831 -0.246389 9.97708e-16)
(9.67276 -1.86138 7.75404e-16)
(12.9873 -3.10049 1.23048e-15)
(15.9578 -4.02438 3.07215e-16)
(19.1036 -4.33706 5.49888e-15)
(-4.36714 9.38363 7.00673e-15)
(-3.13567 6.96026 2.30153e-15)
(-0.554691 4.72575 2.16675e-15)
(3.51394 2.54014 -8.72906e-15)
(8.84405 0.379416 7.41844e-15)
(13.7954 -1.34867 -4.75304e-15)
(18.1809 -2.67848 -7.26628e-15)
(22.0195 -3.61194 1.84685e-15)
(25.279 -4.20859 -4.87507e-15)
(28.5225 -4.24805 1.73879e-15)
(-4.6954 9.01988 5.82035e-15)
(-2.30074 6.01453 4.55293e-15)
(2.80834 3.37713 -6.86496e-15)
(10.0006 0.747295 1.52591e-14)
(16.5066 -1.16043 2.73516e-15)
(22.0894 -2.48579 -7.53909e-15)
(26.7612 -3.33457 4.36141e-15)
(30.5921 -3.84597 -6.66375e-16)
(33.6428 -4.11321 2.70138e-15)
(36.4907 -3.92661 1.24861e-15)
(-5.14338 8.27047 -9.78198e-15)
(-0.636156 4.41588 -2.08781e-14)
(9.14914 0.918871 6.30568e-15)
(17.676 -1.25134 5.2706e-16)
(24.5944 -2.52886 -3.27734e-15)
(30.087 -3.25854 -2.72174e-15)
(34.3593 -3.65321 4.18993e-16)
(37.6735 -3.80628 -1.66486e-15)
(40.2269 -3.80468 -1.76508e-15)
(42.5046 -3.47027 5.01315e-15)
(-5.25408 6.95165 1.09915e-14)
(5.53128 1.42819 6.94074e-15)
(16.9181 -1.50915 2.94466e-15)
(25.548 -2.83255 -1.14424e-15)
(32.0158 -3.43441 3.0158e-17)
(36.8423 -3.6457 2.06905e-15)
(40.443 -3.64441 4.64654e-15)
(43.1345 -3.51917 -2.87886e-15)
(45.1418 -3.33083 -3.13085e-15)
(46.842 -2.92194 3.31469e-15)
(-4.21822 5.44783 -8.8134e-15)
(13.5266 -1.09021 -3.11271e-16)
(24.6798 -3.26449 -3.72465e-15)
(32.5904 -3.84833 -9.78871e-17)
(38.2591 -3.88496 4.90157e-16)
(42.3129 -3.69885 -3.35143e-16)
(45.2074 -3.41716 -2.28513e-16)
(47.2784 -3.09952 -2.17148e-15)
(48.7535 -2.77387 -3.20693e-15)
(49.8915 -2.34706 9.39322e-16)
(-7.00414 -0.706337 1.24582e-16)
(-5.47143 -0.677396 2.01013e-17)
(-4.04828 -0.621759 -1.97422e-16)
(-2.74316 -0.571818 1.4798e-16)
(-1.52903 -0.53489 6.64611e-17)
(-0.387836 -0.508212 -3.1992e-16)
(0.723253 -0.479497 -1.65585e-16)
(1.74552 -0.450833 2.45489e-16)
(2.72673 -0.428561 -1.48971e-16)
(3.66632 -0.410278 -4.41332e-17)
(4.5699 -0.394389 1.50993e-16)
(5.4416 -0.38008 -6.10071e-17)
(6.28414 -0.366894 3.74624e-16)
(7.09946 -0.354551 -1.91558e-16)
(7.88904 -0.342867 -4.3809e-16)
(8.65413 -0.331728 5.79722e-16)
(9.39572 -0.321041 -2.46763e-16)
(10.1146 -0.310748 -1.29716e-16)
(10.8115 -0.300802 1.33057e-16)
(11.4871 -0.291179 -3.12058e-17)
(12.1419 -0.281862 -3.23123e-17)
(12.7765 -0.272837 9.20423e-17)
(13.3916 -0.264091 -1.55411e-16)
(13.9876 -0.255614 4.14831e-16)
(14.5652 -0.247392 2.05685e-17)
(15.1248 -0.239417 -4.42045e-16)
(15.6671 -0.231681 3.23739e-16)
(16.1925 -0.224178 7.20847e-17)
(16.7014 -0.216905 -1.52538e-18)
(17.1945 -0.209859 -2.4829e-16)
(17.6722 -0.203036 1.51187e-16)
(18.1349 -0.196427 -2.46652e-16)
(18.5831 -0.190025 2.2402e-16)
(19.0173 -0.183824 -2.94537e-16)
(19.4379 -0.177821 4.28935e-16)
(19.8453 -0.172013 -2.66452e-16)
(20.24 -0.166397 -1.16117e-16)
(20.6223 -0.16097 3.78043e-16)
(20.9926 -0.155729 -9.34608e-17)
(21.3514 -0.150674 -7.60429e-18)
(21.6991 -0.145803 -1.83742e-16)
(22.0359 -0.141115 6.73081e-17)
(22.3624 -0.136605 -3.58645e-17)
(22.6789 -0.13227 -1.91183e-17)
(22.9857 -0.128106 2.29908e-16)
(23.2832 -0.124107 -9.88934e-17)
(23.5719 -0.120265 1.5596e-16)
(23.8519 -0.116575 -2.69542e-16)
(24.1238 -0.113038 4.0607e-17)
(24.3878 -0.109653 3.10568e-17)
(24.6442 -0.106408 -1.78444e-18)
(24.8933 -0.103297 -6.74771e-17)
(25.1354 -0.100312 7.99374e-17)
(25.3708 -0.0974472 3.35738e-17)
(25.5998 -0.0946976 -1.694e-17)
(25.8226 -0.0920569 -6.80948e-17)
(26.0394 -0.0895196 1.34042e-17)
(26.2505 -0.0870809 -7.01131e-17)
(26.4561 -0.0847362 4.40838e-17)
(26.6565 -0.0824814 1.07187e-16)
(26.8517 -0.0803124 -9.75903e-17)
(27.042 -0.0782259 3.52101e-18)
(27.2277 -0.0762186 -3.43937e-17)
(27.4087 -0.0742872 1.00539e-17)
(27.5855 -0.0724286 6.19291e-17)
(27.758 -0.0706399 5.83076e-17)
(27.9265 -0.0689186 -1.46477e-16)
(28.0911 -0.0672621 4.34299e-17)
(28.2519 -0.065668 1.10422e-17)
(28.4091 -0.0641339 -3.70043e-17)
(28.5629 -0.0626574 -6.8894e-17)
(28.7133 -0.0612363 1.45767e-16)
(28.8605 -0.0598682 -4.25193e-17)
(29.0046 -0.0585509 3.21692e-17)
(29.1457 -0.0572823 -2.90702e-17)
(29.2839 -0.0560602 -4.51779e-17)
(29.4194 -0.0548829 1.30361e-17)
(29.5522 -0.0537484 4.49916e-17)
(29.6824 -0.0526552 -6.7161e-17)
(29.8101 -0.0516016 8.35865e-17)
(29.9354 -0.0505861 2.38484e-18)
(30.0584 -0.0496072 -1.32732e-17)
(30.1792 -0.0486635 -3.15605e-17)
(30.2978 -0.0477536 4.83185e-17)
(30.4144 -0.0468761 -4.01788e-17)
(30.529 -0.0460296 3.44947e-17)
(30.6416 -0.0452123 -5.03104e-17)
(30.7523 -0.0444228 -6.05058e-18)
(30.8613 -0.0436584 3.30351e-17)
(30.9685 -0.0429174 2.09741e-18)
(31.074 -0.0421953 -1.219e-17)
(31.1779 -0.0414888 -5.22061e-19)
(31.2801 -0.0407895 -1.91266e-18)
(31.3807 -0.040091 -4.44339e-18)
(31.4797 -0.0393777 2.49578e-18)
(31.577 -0.0386352 -1.56604e-18)
(31.6725 -0.0378386 5.82145e-18)
(31.7659 -0.0369654 4.04727e-18)
(31.8572 -0.035992 -7.46134e-19)
(31.9675 -0.0340006 1.20833e-18)
(-3.65441 -2.04109 -4.98186e-16)
(-2.38678 -1.90976 -3.53236e-16)
(-1.1501 -1.75463 -1.55616e-15)
(0.00557199 -1.62212 1.3003e-15)
(1.09972 -1.51592 -1.87969e-15)
(2.11304 -1.43545 1.36906e-15)
(3.0866 -1.36182 -9.10067e-16)
(4.0189 -1.29171 -6.5303e-16)
(4.92115 -1.23355 1.43613e-15)
(5.79268 -1.18405 4.91198e-16)
(6.63503 -1.14029 2.68119e-16)
(7.45027 -1.10053 -1.01751e-15)
(8.24001 -1.06363 3.6765e-16)
(9.00547 -1.02893 -4.08919e-16)
(9.74765 -0.995976 -1.04911e-15)
(10.4674 -0.964403 2.4079e-15)
(11.1653 -0.933983 1.65037e-16)
(11.842 -0.904566 -1.54072e-16)
(12.4982 -0.876028 -4.981e-16)
(13.1342 -0.848292 -1.5539e-16)
(13.7505 -0.821335 -1.03792e-15)
(14.3477 -0.795161 1.00841e-15)
(14.9261 -0.769775 -1.27098e-15)
(15.4863 -0.745175 2.42302e-15)
(16.0288 -0.721342 -1.13416e-15)
(16.5543 -0.698245 3.29211e-16)
(17.0631 -0.675857 -4.09861e-16)
(17.5559 -0.654157 4.5502e-16)
(18.0331 -0.633128 4.17585e-16)
(18.4953 -0.612767 -9.63229e-17)
(18.9429 -0.593062 -8.50186e-16)
(19.3764 -0.573981 -1.20395e-16)
(19.7962 -0.555487 4.12046e-16)
(20.2029 -0.537563 1.55356e-16)
(20.5967 -0.520211 -9.06129e-16)
(20.9781 -0.503429 7.55988e-16)
(21.3476 -0.4872 2.06098e-16)
(21.7055 -0.471507 -3.14705e-16)
(22.0523 -0.456339 1.45318e-16)
(22.3883 -0.441687 -2.30501e-16)
(22.7139 -0.427547 -2.26883e-16)
(23.0294 -0.413911 7.35192e-16)
(23.3353 -0.400778 -3.81008e-16)
(23.6318 -0.388138 1.36504e-16)
(23.9193 -0.375987 -7.99524e-16)
(24.1982 -0.364313 5.98999e-16)
(24.4687 -0.353099 2.40635e-16)
(24.7311 -0.342302 -5.299e-16)
(24.9859 -0.331939 -3.33389e-16)
(25.2334 -0.322033 2.87907e-16)
(25.4737 -0.312536 1.81873e-16)
(25.7072 -0.303428 1.16421e-18)
(25.9341 -0.294692 5.57775e-16)
(26.1548 -0.286309 -7.64051e-16)
(26.3694 -0.278262 5.19401e-16)
(26.5783 -0.270534 -3.95779e-16)
(26.7816 -0.26311 -1.96017e-16)
(26.9795 -0.255975 8.56126e-16)
(27.1723 -0.249116 -1.45848e-16)
(27.3601 -0.24252 -2.34475e-16)
(27.5432 -0.236175 2.06858e-16)
(27.7217 -0.230071 -2.81181e-16)
(27.8958 -0.224199 -2.11143e-16)
(28.0657 -0.218548 1.97755e-16)
(28.2315 -0.213109 -1.05196e-16)
(28.3934 -0.207874 -2.35477e-16)
(28.5515 -0.202836 4.43322e-16)
(28.706 -0.197988 -8.08618e-17)
(28.8571 -0.193321 -1.42419e-16)
(29.0047 -0.188831 -1.9814e-16)
(29.1491 -0.184508 2.70351e-17)
(29.2905 -0.180348 1.79305e-16)
(29.4288 -0.176342 1.52484e-16)
(29.5642 -0.172484 7.35669e-17)
(29.6968 -0.168769 -2.0903e-17)
(29.8268 -0.16519 -3.21703e-16)
(29.9542 -0.161742 2.58691e-16)
(30.0791 -0.158419 1.85817e-16)
(30.2016 -0.155217 -1.61294e-16)
(30.3217 -0.152132 -2.34542e-16)
(30.4397 -0.149158 1.00284e-17)
(30.5555 -0.146291 7.93924e-17)
(30.6692 -0.143528 -3.91728e-17)
(30.7809 -0.140864 5.6319e-18)
(30.8907 -0.138294 -9.33214e-18)
(30.9987 -0.135816 9.78163e-18)
(31.1049 -0.133423 -9.05897e-17)
(31.2093 -0.131111 2.08399e-16)
(31.3121 -0.128873 -9.25908e-17)
(31.4133 -0.126703 -7.2255e-17)
(31.5128 -0.124589 4.12626e-17)
(31.6109 -0.12252 2.2889e-17)
(31.7075 -0.120472 1.78467e-17)
(31.8026 -0.118428 -2.38975e-17)
(31.8962 -0.116342 1.37062e-17)
(31.9882 -0.11417 -8.59704e-17)
(32.0785 -0.111839 3.67555e-17)
(32.1668 -0.109236 -1.23705e-17)
(32.254 -0.106228 2.47231e-18)
(32.3579 -0.101715 -1.92281e-17)
(2.44687 -3.17583 -4.95703e-15)
(3.22847 -2.90487 1.05813e-15)
(4.10624 -2.69375 2.01523e-15)
(4.9761 -2.52132 1.97438e-15)
(5.82516 -2.37168 -1.44942e-15)
(6.64948 -2.24748 -4.11887e-15)
(7.4546 -2.14269 4.26139e-15)
(8.24164 -2.04935 7.20851e-16)
(9.01204 -1.96712 -1.28459e-15)
(9.76375 -1.8939 -6.45128e-16)
(10.4955 -1.82732 7.59226e-16)
(11.2073 -1.76572 3.18327e-15)
(11.8992 -1.70791 -1.21753e-15)
(12.5715 -1.65302 -2.53106e-15)
(13.2244 -1.60056 3.42997e-15)
(13.8583 -1.55013 -1.51727e-15)
(14.4736 -1.50143 -1.18763e-15)
(15.0705 -1.45425 4.00943e-16)
(15.6495 -1.40839 -6.09789e-16)
(16.2108 -1.36371 1.41365e-15)
(16.7546 -1.32019 -2.03128e-15)
(17.2815 -1.27787 1.98418e-16)
(17.7917 -1.23677 -7.52648e-16)
(18.2857 -1.19693 1.66378e-15)
(18.764 -1.15834 -3.94763e-16)
(19.2271 -1.12094 1.19173e-15)
(19.6754 -1.08472 -4.40174e-16)
(20.1093 -1.04963 -1.12512e-15)
(20.5293 -1.01564 -5.50074e-16)
(20.9359 -0.982731 -8.48785e-17)
(21.3295 -0.950887 5.68616e-16)
(21.7104 -0.920077 7.95326e-16)
(22.0791 -0.890242 -1.37215e-15)
(22.436 -0.861355 9.8408e-16)
(22.7815 -0.833437 3.82762e-16)
(23.116 -0.806479 -7.52955e-16)
(23.4399 -0.780447 1.56467e-15)
(23.7536 -0.755304 -1.3642e-15)
(24.0575 -0.731023 2.52347e-16)
(24.3519 -0.707589 -5.05933e-16)
(24.6371 -0.684989 2.38408e-16)
(24.9135 -0.663207 -2.28524e-16)
(25.1814 -0.642223 3.59318e-16)
(25.4412 -0.622019 1.62011e-16)
(25.693 -0.602583 -2.97819e-16)
(25.9373 -0.5839 8.96862e-16)
(26.1742 -0.56595 -5.59261e-16)
(26.4042 -0.548709 -5.55571e-16)
(26.6274 -0.532166 8.45169e-16)
(26.8442 -0.516309 -9.1391e-16)
(27.0548 -0.501106 -1.49806e-17)
(27.2595 -0.486528 1.57582e-15)
(27.4585 -0.472544 -2.05788e-15)
(27.6519 -0.459127 1.68519e-15)
(27.8401 -0.446251 -1.13358e-15)
(28.0232 -0.433889 1.54597e-16)
(28.2015 -0.422016 7.17567e-16)
(28.3751 -0.410608 -3.77994e-16)
(28.5442 -0.399645 -1.78805e-16)
(28.709 -0.389109 2.56282e-16)
(28.8697 -0.37898 -8.37492e-18)
(29.0264 -0.36924 -2.10842e-16)
(29.1792 -0.359871 -2.43382e-16)
(29.3284 -0.350855 3.03239e-17)
(29.4741 -0.342176 2.92864e-16)
(29.6163 -0.333822 -1.46839e-16)
(29.7553 -0.325781 3.85976e-16)
(29.8911 -0.318044 -1.9323e-16)
(30.0239 -0.310598 -2.23876e-17)
(30.1537 -0.303431 -4.67132e-16)
(30.2807 -0.296533 4.34226e-16)
(30.4051 -0.289893 2.25197e-16)
(30.5268 -0.283498 5.64441e-17)
(30.646 -0.277339 -2.99244e-16)
(30.7628 -0.271407 2.35092e-16)
(30.8772 -0.265693 -8.69418e-17)
(30.9894 -0.260188 -2.00005e-17)
(31.0995 -0.254885 -3.20627e-16)
(31.2075 -0.249776 2.51748e-16)
(31.3134 -0.244853 7.2513e-17)
(31.4175 -0.240111 -2.36454e-16)
(31.5197 -0.235542 8.35276e-17)
(31.6201 -0.23114 8.1763e-17)
(31.7188 -0.226898 -1.75846e-16)
(31.8159 -0.222809 -3.42356e-18)
(31.9114 -0.218867 3.20877e-16)
(32.0053 -0.215062 6.64489e-17)
(32.0978 -0.211389 -6.5987e-17)
(32.1889 -0.207835 -1.73058e-16)
(32.2786 -0.20439 -2.38719e-17)
(32.367 -0.201035 -6.89218e-17)
(32.4541 -0.197755 3.33802e-17)
(32.54 -0.194512 1.26024e-16)
(32.6246 -0.191275 -5.04884e-17)
(32.7079 -0.187972 4.31975e-17)
(32.79 -0.184533 -7.10584e-17)
(32.8706 -0.180839 7.26692e-17)
(32.9496 -0.176657 -2.9669e-17)
(33.0278 -0.171793 -1.31915e-17)
(33.1209 -0.166106 1.45962e-17)
(10.4148 -3.81983 1.82482e-15)
(10.6878 -3.51592 -4.71685e-16)
(11.1088 -3.32575 3.81222e-15)
(11.6429 -3.17001 -3.15612e-15)
(12.2173 -3.02096 2.59365e-15)
(12.8051 -2.88791 1.1328e-15)
(13.4001 -2.77266 2.53616e-16)
(13.9974 -2.66947 3.76864e-16)
(14.593 -2.57513 -8.38705e-16)
(15.1824 -2.48792 -9.60121e-16)
(15.7626 -2.4064 -2.55608e-15)
(16.3316 -2.32944 3.2835e-15)
(16.8884 -2.25613 -3.36056e-15)
(17.432 -2.18585 2.29765e-15)
(17.962 -2.11805 -1.05972e-15)
(18.4781 -2.05231 -2.80652e-16)
(18.9802 -1.98847 1.18339e-15)
(19.468 -1.92639 -2.57993e-16)
(19.9416 -1.8658 -4.55463e-16)
(20.4011 -1.80661 -8.64063e-16)
(20.8465 -1.74885 2.37538e-15)
(21.2781 -1.69262 -5.68248e-16)
(21.6961 -1.63802 1.52567e-16)
(22.1011 -1.58509 1.51297e-15)
(22.4932 -1.53379 -4.02211e-15)
(22.8729 -1.48406 2.87092e-15)
(23.2404 -1.43587 -3.16557e-15)
(23.5962 -1.38919 4.3791e-15)
(23.9405 -1.34397 -2.45501e-15)
(24.2736 -1.30026 1.60571e-15)
(24.596 -1.258 1.24503e-15)
(24.908 -1.21711 -3.43264e-15)
(25.2098 -1.1775 8.68894e-16)
(25.5018 -1.13916 -5.73388e-16)
(25.7844 -1.10214 1.12206e-15)
(26.0579 -1.06642 -1.29555e-16)
(26.3226 -1.03194 -2.28969e-15)
(26.5788 -0.998641 2.00752e-15)
(26.8269 -0.966503 -2.69076e-16)
(27.0671 -0.935508 3.04551e-16)
(27.2996 -0.905635 4.50297e-16)
(27.525 -0.876863 3.87764e-16)
(27.7433 -0.849159 4.18931e-17)
(27.9548 -0.822484 -9.28811e-16)
(28.1599 -0.796822 2.61672e-17)
(28.3588 -0.772159 -1.27893e-16)
(28.5516 -0.74847 -3.93913e-16)
(28.7388 -0.725731 1.72833e-15)
(28.9204 -0.703916 -7.22528e-16)
(29.0968 -0.682997 2.5914e-16)
(29.2681 -0.662938 3.48296e-16)
(29.4346 -0.6437 -5.27209e-16)
(29.5964 -0.625248 -6.03466e-16)
(29.7538 -0.607542 1.27206e-15)
(29.9068 -0.590548 -1.20317e-15)
(30.0557 -0.574234 -1.17179e-16)
(30.2007 -0.558569 1.25632e-15)
(30.3418 -0.543524 -8.26131e-16)
(30.4793 -0.52907 2.83307e-16)
(30.6133 -0.515178 1.57798e-16)
(30.7439 -0.501825 -6.13823e-16)
(30.8713 -0.488989 7.92144e-16)
(30.9956 -0.476648 -2.69232e-16)
(31.1169 -0.464774 -7.52546e-16)
(31.2353 -0.453346 4.23748e-16)
(31.3509 -0.442346 -5.60139e-17)
(31.4639 -0.431761 9.10934e-16)
(31.5743 -0.421571 -1.55867e-15)
(31.6823 -0.411762 1.3987e-15)
(31.7879 -0.402323 -6.55618e-17)
(31.8912 -0.393239 -5.54552e-16)
(31.9923 -0.384497 7.41144e-16)
(32.0913 -0.37608 -4.94087e-16)
(32.1883 -0.367977 2.42194e-16)
(32.2834 -0.360175 -4.14439e-16)
(32.3766 -0.352662 -6.36851e-17)
(32.4681 -0.345428 2.3174e-16)
(32.5578 -0.338464 -8.64251e-17)
(32.6458 -0.331758 -2.89956e-16)
(32.7323 -0.325302 2.79743e-16)
(32.8173 -0.319086 4.09026e-16)
(32.9008 -0.313101 -7.06762e-17)
(32.983 -0.307339 2.39367e-16)
(33.0638 -0.301792 -2.92902e-16)
(33.1433 -0.296449 -2.11044e-16)
(33.2217 -0.291302 -7.757e-17)
(33.2988 -0.28634 1.78565e-17)
(33.3748 -0.281554 1.18913e-16)
(33.4498 -0.276926 2.15052e-16)
(33.5238 -0.272446 -4.38789e-16)
(33.5967 -0.268086 3.28673e-16)
(33.6687 -0.263829 -1.71698e-16)
(33.7398 -0.259624 3.55195e-17)
(33.8099 -0.255433 1.41436e-16)
(33.8791 -0.251159 -1.2753e-17)
(33.9474 -0.246712 -1.17394e-16)
(34.0147 -0.241934 9.10157e-17)
(34.0807 -0.236517 -3.75239e-17)
(34.1463 -0.230248 -2.5906e-18)
(34.2246 -0.223293 -1.36862e-17)
(19.6044 -3.99825 -6.52792e-15)
(19.5007 -3.75157 -2.71175e-15)
(19.5063 -3.63654 3.82088e-15)
(19.6968 -3.53659 -9.99652e-16)
(19.9727 -3.42376 -1.10451e-15)
(20.284 -3.3109 2.7404e-15)
(20.6214 -3.20634 -2.78826e-15)
(20.9804 -3.10888 -1.19964e-15)
(21.3552 -3.01616 1.16798e-15)
(21.7387 -2.92715 1.22171e-15)
(22.1263 -2.84128 -2.52255e-15)
(22.5146 -2.75816 3.85034e-15)
(22.9008 -2.67727 -2.83686e-15)
(23.2832 -2.59843 3.91359e-15)
(23.6598 -2.52136 -2.97145e-15)
(24.0295 -2.44571 -2.01032e-15)
(24.3915 -2.37162 1.04122e-15)
(24.7449 -2.29911 2.63457e-15)
(25.0892 -2.22789 1.04918e-15)
(25.424 -2.15789 -2.38443e-15)
(25.7494 -2.08933 2.16433e-15)
(26.0653 -2.02247 6.85421e-17)
(26.3722 -1.95752 -1.54522e-16)
(26.6702 -1.89451 -1.5723e-15)
(26.9595 -1.83337 1.4282e-15)
(27.24 -1.77403 -3.28847e-16)
(27.512 -1.71645 -3.32443e-15)
(27.7755 -1.66063 2.0412e-15)
(28.0307 -1.6065 3.84998e-16)
(28.2778 -1.55406 9.46221e-16)
(28.517 -1.50334 -3.55057e-15)
(28.7484 -1.45427 2.36529e-16)
(28.9723 -1.40679 3.10729e-15)
(29.189 -1.36091 -1.68069e-16)
(29.3987 -1.31662 -2.4568e-15)
(29.6016 -1.27388 -6.94667e-16)
(29.7979 -1.23261 3.46902e-15)
(29.9877 -1.19277 -9.285e-16)
(30.1713 -1.15433 -9.75292e-16)
(30.3489 -1.11728 9.14402e-16)
(30.5207 -1.08159 7.88619e-16)
(30.6871 -1.04723 1.27366e-15)
(30.8481 -1.01417 -3.52157e-15)
(31.0041 -0.982329 2.29247e-15)
(31.1551 -0.951708 2.95119e-16)
(31.3015 -0.92229 -1.78383e-15)
(31.4434 -0.894052 6.18509e-17)
(31.5811 -0.866955 -3.62409e-16)
(31.7147 -0.840962 1.32023e-15)
(31.8444 -0.816033 8.37485e-16)
(31.9703 -0.792124 -4.91971e-16)
(32.0927 -0.769191 -6.78984e-16)
(32.2116 -0.747192 -3.23873e-17)
(32.3272 -0.726083 3.03586e-16)
(32.4395 -0.705825 -2.4474e-16)
(32.5488 -0.686377 9.54117e-17)
(32.6552 -0.667702 -6.08524e-16)
(32.7587 -0.649765 1.25925e-15)
(32.8594 -0.632536 -1.04408e-15)
(32.9576 -0.615984 1.26893e-15)
(33.0532 -0.600076 -1.817e-15)
(33.1465 -0.584782 2.76975e-16)
(33.2374 -0.570075 6.23673e-16)
(33.326 -0.555923 -1.10842e-16)
(33.4126 -0.542301 4.90387e-16)
(33.497 -0.529194 -1.27761e-15)
(33.5795 -0.516587 7.88953e-16)
(33.6602 -0.50446 -5.62427e-16)
(33.739 -0.492793 -2.59596e-16)
(33.8161 -0.481568 1.68806e-15)
(33.8915 -0.47077 -1.38644e-15)
(33.9654 -0.46038 6.48511e-16)
(34.0377 -0.450381 -2.98412e-16)
(34.1086 -0.440758 7.80875e-18)
(34.1782 -0.431499 6.94426e-16)
(34.2464 -0.42259 -4.74109e-16)
(34.3133 -0.414018 -2.18244e-16)
(34.3791 -0.405773 1.90683e-16)
(34.4437 -0.397843 3.9892e-16)
(34.5072 -0.390216 -3.50307e-16)
(34.5696 -0.38288 -3.34134e-16)
(34.6311 -0.375826 7.28899e-16)
(34.6916 -0.369041 -5.07175e-16)
(34.7513 -0.362517 9.6349e-17)
(34.81 -0.356241 -2.19129e-16)
(34.868 -0.350204 1.8858e-16)
(34.9253 -0.344389 2.26181e-16)
(34.9818 -0.338789 -8.37586e-17)
(35.0376 -0.333381 1.325e-16)
(35.0928 -0.328155 3.01667e-16)
(35.1474 -0.323077 -3.17963e-16)
(35.2014 -0.318129 4.1147e-16)
(35.2548 -0.313249 -3.33475e-16)
(35.3077 -0.308397 1.74091e-16)
(35.3601 -0.303454 1.16031e-16)
(35.4119 -0.298318 -3.68796e-17)
(35.4632 -0.292803 4.47167e-17)
(35.5138 -0.286557 -6.67678e-17)
(35.5643 -0.279331 7.94738e-17)
(35.6249 -0.27138 3.81553e-17)
(28.9608 -3.88023 7.23868e-16)
(28.7162 -3.74138 -2.42209e-15)
(28.4928 -3.70845 -7.21935e-16)
(28.443 -3.66547 7.21615e-15)
(28.4843 -3.59943 2.63742e-18)
(28.5605 -3.52257 -3.40525e-15)
(28.6629 -3.44224 1.81548e-15)
(28.7919 -3.36035 -2.10137e-15)
(28.9437 -3.27773 5.20394e-16)
(29.1123 -3.19512 3.83574e-15)
(29.2937 -3.11279 -7.46879e-16)
(29.4836 -3.03095 -9.15002e-15)
(29.6792 -2.94962 2.83054e-15)
(29.879 -2.86892 6.39983e-15)
(30.0794 -2.78867 -1.12486e-16)
(30.2798 -2.70887 -3.32017e-15)
(30.4792 -2.63015 -2.39642e-15)
(30.677 -2.55255 -4.12936e-16)
(30.8715 -2.47591 1.35207e-15)
(31.0632 -2.40054 2.74169e-16)
(31.2519 -2.32671 2.26206e-15)
(31.4375 -2.2545 -2.6818e-16)
(31.6199 -2.184 -2.77347e-15)
(31.7984 -2.11521 7.00884e-16)
(31.9728 -2.04811 -6.54272e-16)
(32.1428 -1.98272 3.49021e-16)
(32.3082 -1.9191 -2.92925e-16)
(32.4689 -1.85727 -7.63118e-16)
(32.6249 -1.79719 2.4917e-15)
(32.7763 -1.73888 -2.09166e-15)
(32.923 -1.6824 1.84081e-15)
(33.065 -1.62773 2.95077e-16)
(33.2025 -1.57469 1.08538e-15)
(33.3355 -1.52319 -1.47576e-15)
(33.4641 -1.47346 -5.33406e-16)
(33.5884 -1.42549 -1.11075e-15)
(33.7086 -1.37917 2.06224e-15)
(33.8247 -1.33446 -1.81955e-15)
(33.937 -1.29129 -7.44768e-16)
(34.0455 -1.24964 1.71208e-15)
(34.1504 -1.20948 4.9965e-16)
(34.2518 -1.17081 4.19503e-16)
(34.3497 -1.13358 -1.61633e-16)
(34.4446 -1.09778 -1.3282e-16)
(34.5364 -1.06341 -9.50217e-16)
(34.6255 -1.03043 -2.08253e-15)
(34.7119 -0.998818 3.90498e-15)
(34.7958 -0.968505 -2.65948e-15)
(34.8772 -0.939442 -1.17369e-15)
(34.9563 -0.91158 1.97277e-15)
(35.0331 -0.884867 -1.291e-15)
(35.1076 -0.859253 1.55409e-15)
(35.1801 -0.834687 -1.41063e-16)
(35.2504 -0.811122 4.91194e-17)
(35.3188 -0.788509 -1.32842e-15)
(35.3852 -0.766804 3.03675e-16)
(35.4497 -0.745964 -6.33452e-16)
(35.5125 -0.72595 4.15347e-16)
(35.5735 -0.706726 2.56986e-16)
(35.6329 -0.688256 -3.9969e-16)
(35.6906 -0.670505 6.49225e-16)
(35.7468 -0.65344 -1.18276e-16)
(35.8015 -0.637032 8.86803e-16)
(35.8548 -0.621252 2.78088e-16)
(35.9067 -0.606074 7.39386e-18)
(35.9573 -0.591476 -2.76586e-17)
(36.0068 -0.577437 -8.42026e-16)
(36.055 -0.563932 1.87569e-16)
(36.1022 -0.550943 -8.56479e-17)
(36.1484 -0.538457 -3.70382e-16)
(36.1935 -0.526457 -2.78432e-16)
(36.2378 -0.514917 4.75982e-16)
(36.2812 -0.503818 -7.5254e-16)
(36.3237 -0.493147 -1.5092e-16)
(36.3655 -0.482888 8.20094e-16)
(36.4065 -0.473028 -6.48416e-17)
(36.4468 -0.46355 -5.78572e-16)
(36.4865 -0.454445 -5.72434e-16)
(36.5255 -0.445699 1.42673e-15)
(36.564 -0.437298 -4.42166e-16)
(36.6019 -0.429228 -8.39101e-18)
(36.6394 -0.421478 -8.44547e-17)
(36.6763 -0.414035 -2.28846e-16)
(36.7129 -0.406889 3.27612e-16)
(36.749 -0.400025 -4.03381e-16)
(36.7848 -0.393434 4.04033e-16)
(36.8202 -0.387099 -5.5339e-17)
(36.8553 -0.38101 3.30314e-16)
(36.8902 -0.375142 -5.93552e-16)
(36.9248 -0.369486 3.63015e-18)
(36.9592 -0.364005 3.61646e-17)
(36.9934 -0.358679 -5.19167e-17)
(37.0275 -0.353444 -8.85397e-17)
(37.0614 -0.348253 -1.66293e-16)
(37.0953 -0.342979 1.94743e-16)
(37.129 -0.337516 -2.04212e-17)
(37.1627 -0.331658 5.78125e-17)
(37.1962 -0.325039 -1.19975e-16)
(37.2301 -0.317351 -4.91793e-17)
(37.2714 -0.308857 4.26852e-18)
(36.866 -3.6331 -1.06935e-15)
(36.5565 -3.62396 2.94669e-16)
(36.2193 -3.66199 -4.67424e-15)
(36.0378 -3.65748 2.23763e-15)
(35.9519 -3.62407 3.90824e-15)
(35.9043 -3.57833 2.13565e-15)
(35.8813 -3.5245 -5.34588e-16)
(35.8831 -3.46355 -8.44126e-15)
(35.9071 -3.39679 1.88403e-16)
(35.9491 -3.32559 5.49658e-15)
(36.0046 -3.25126 -2.77307e-16)
(36.07 -3.17504 -1.6113e-16)
(36.1433 -3.09662 4.33684e-15)
(36.2214 -3.01717 -9.09867e-16)
(36.3035 -2.93755 -5.2098e-16)
(36.3887 -2.85712 -6.95434e-16)
(36.4758 -2.77643 -1.63154e-15)
(36.5633 -2.69663 -2.33629e-15)
(36.6511 -2.6177 -9.94039e-16)
(36.7386 -2.5393 6.2501e-15)
(36.8252 -2.46197 7.70403e-16)
(36.9101 -2.38601 -4.64868e-15)
(36.993 -2.31176 -1.47732e-15)
(37.0732 -2.23923 -3.59039e-15)
(37.1507 -2.16839 6.21469e-15)
(37.2254 -2.09934 -2.54583e-15)
(37.2973 -2.03215 2.30835e-15)
(37.3664 -1.96682 1.34576e-15)
(37.4327 -1.90333 -3.12586e-15)
(37.4962 -1.84167 1.23969e-15)
(37.557 -1.78189 1.85772e-16)
(37.6152 -1.72406 -1.18546e-15)
(37.6708 -1.66812 2.67214e-15)
(37.7238 -1.61395 -3.12259e-15)
(37.7742 -1.56151 5.14819e-16)
(37.8224 -1.51086 7.25295e-16)
(37.8683 -1.46197 -1.18203e-16)
(37.9122 -1.41482 7.83991e-16)
(37.9541 -1.36935 -1.07505e-15)
(37.9943 -1.32561 1.15659e-15)
(38.0329 -1.28353 -1.52789e-15)
(38.0702 -1.24309 1.65816e-15)
(38.1062 -1.20415 -1.48124e-15)
(38.1409 -1.16658 7.9317e-16)
(38.1745 -1.13046 1.15884e-15)
(38.207 -1.09573 5.42564e-16)
(38.2383 -1.06237 -1.16698e-15)
(38.2686 -1.03033 1.33999e-15)
(38.2978 -0.999528 -2.4429e-15)
(38.326 -0.969931 1.49027e-15)
(38.3531 -0.941493 -4.31834e-16)
(38.3791 -0.914172 2.34883e-16)
(38.4041 -0.887926 -1.30393e-15)
(38.4282 -0.862713 2.72523e-15)
(38.4513 -0.838496 -1.3644e-15)
(38.4734 -0.815235 -2.18067e-15)
(38.4947 -0.792891 1.64007e-15)
(38.5152 -0.771423 -5.20917e-17)
(38.5348 -0.750784 -1.15342e-15)
(38.5537 -0.73094 -1.11194e-15)
(38.5717 -0.711856 3.05822e-15)
(38.5891 -0.693527 -1.9628e-15)
(38.6058 -0.675951 1.95835e-15)
(38.622 -0.659065 -9.86797e-16)
(38.6377 -0.642836 9.61142e-17)
(38.6529 -0.627273 4.38843e-16)
(38.6676 -0.612354 -1.15419e-15)
(38.6821 -0.59804 -1.42024e-16)
(38.6962 -0.584306 8.75783e-16)
(38.71 -0.571126 -6.15664e-16)
(38.7235 -0.558478 5.16483e-16)
(38.7368 -0.546337 5.66231e-17)
(38.7499 -0.534682 -6.88755e-16)
(38.7628 -0.523493 -7.82499e-17)
(38.7756 -0.512751 1.35616e-15)
(38.7882 -0.502438 -5.02633e-16)
(38.8007 -0.492538 -3.45041e-16)
(38.8131 -0.483038 4.92033e-16)
(38.8255 -0.473924 -2.45628e-16)
(38.8378 -0.465179 3.92152e-16)
(38.8501 -0.456788 4.05989e-16)
(38.8624 -0.448741 -1.10049e-15)
(38.8747 -0.441024 9.89621e-17)
(38.887 -0.433626 4.3568e-16)
(38.8994 -0.426532 -7.04422e-16)
(38.9118 -0.419732 8.88052e-16)
(38.9244 -0.413208 -3.22113e-16)
(38.9371 -0.406955 -4.6581e-16)
(38.9499 -0.400943 7.66849e-17)
(38.963 -0.395163 5.27127e-17)
(38.9762 -0.389573 1.05013e-16)
(38.9897 -0.384163 -1.27207e-16)
(39.0034 -0.378866 8.65835e-17)
(39.0175 -0.373648 4.17041e-18)
(39.0318 -0.368373 5.76398e-17)
(39.0466 -0.362959 -2.03677e-17)
(39.0618 -0.357186 3.54963e-17)
(39.0776 -0.350695 -2.6692e-17)
(39.0941 -0.343112 -4.71524e-17)
(39.1153 -0.334625 -4.04191e-17)
(42.7237 -3.28689 1.7781e-15)
(42.3457 -3.39597 -2.67153e-15)
(41.9143 -3.50173 4.39218e-15)
(41.6165 -3.53926 -3.03047e-15)
(41.4202 -3.54251 -4.88531e-15)
(41.2758 -3.53172 4.18513e-15)
(41.1653 -3.50916 1.81006e-15)
(41.0854 -3.47458 5.32254e-17)
(41.0333 -3.42952 -7.52328e-17)
(41.0051 -3.37604 2.83167e-15)
(40.9961 -3.31577 -2.89594e-15)
(41.0028 -3.25022 -1.92845e-15)
(41.0225 -3.18052 -4.42443e-15)
(41.0521 -3.10723 3.42619e-15)
(41.0904 -3.03144 -5.43377e-16)
(41.1351 -2.95394 -1.33543e-15)
(41.1843 -2.87523 5.46606e-16)
(41.2368 -2.79596 6.81481e-15)
(41.292 -2.71687 -6.25334e-15)
(41.3485 -2.63821 -1.14038e-15)