/*--------------------------------*- C++ -*----------------------------------*\
  =========                 |
  \\      /  F ield         | OpenFOAM: The Open Source CFD Toolbox
   \\    /   O peration     | Website:  https://openfoam.org
    \\  /    A nd           | Version:  8
     \\/     M anipulation  |
\*---------------------------------------------------------------------------*/
FoamFile
{
    version     2.0;
    format      ascii;
    class       volScalarField;
    location    "0.999962";
    object      alphat;
}
// * * * * * * * * * * * * * * * * * * * * * * * * * * * * * * * * * * * * * //

dimensions      [1 -1 -1 0 0 0 0];

internalField   nonuniform List<scalar> 
6800
(
0.0458449
0.0657014
0.06674
0.064842
0.0648874
0.0555901
0.0445498
0.0332189
0.0271141
0.0277022
0.0348519
0.0574276
0.0617682
0.0625008
0.0582411
0.0451902
0.0333769
0.028865
0.0266503
0.0225021
0.0350681
0.0553782
0.0612149
0.0582691
0.0478654
0.0353873
0.0298646
0.0263342
0.0205386
0.0185925
0.0354301
0.0545883
0.0582524
0.0536224
0.0404809
0.0330084
0.0272671
0.0220345
0.0191058
0.0178791
0.0351516
0.0536721
0.0567349
0.048526
0.0356769
0.0282226
0.022843
0.020555
0.0181696
0.0155136
0.0351194
0.0547091
0.0546499
0.0418515
0.0317521
0.0270135
0.0231288
0.0193794
0.0160523
0.0147066
0.0347527
0.0555986
0.0525638
0.0387955
0.0311791
0.0244046
0.019967
0.0168101
0.0153018
0.0143058
0.0346571
0.0573805
0.0490736
0.0335307
0.0267263
0.0233846
0.0191785
0.0170741
0.014579
0.0134647
0.0344391
0.0585931
0.0440944
0.0350757
0.0285375
0.021607
0.0175583
0.0153684
0.0138207
0.0132048
0.0345159
0.0598247
0.0418311
0.0305472
0.0232996
0.0209246
0.0171397
0.0152341
0.0136095
0.0126797
0.343426
0.487856
0.55794
0.582907
0.58592
0.593565
0.604967
0.618577
0.627714
0.631776
0.290361
0.448165
0.524788
0.556473
0.556962
0.560372
0.566221
0.570541
0.568513
0.565849
0.0457971
0.274558
0.448092
0.503559
0.508793
0.508696
0.505975
0.504332
0.503831
0.496428
0.0403248
0.203267
0.386715
0.44161
0.447245
0.437387
0.430073
0.419645
0.398769
0.357619
0.198157
0.25116
0.3537
0.376699
0.367811
0.355574
0.338346
0.300518
0.270087
0.207538
0.209311
0.25653
0.30884
0.30772
0.299823
0.268385
0.22759
0.172181
0.140008
0.100235
0.0442432
0.180109
0.249829
0.244987
0.208579
0.15498
0.115296
0.0890417
0.081363
0.0631078
0.0402284
0.157682
0.188225
0.155848
0.11259
0.0909967
0.0779692
0.065015
0.0621787
0.0503101
0.179795
0.164584
0.137588
0.0960021
0.0794356
0.0714984
0.063196
0.0564549
0.0541662
0.0392604
0.116457
0.0897827
0.0794593
0.0709839
0.0682891
0.0643936
0.0558065
0.0490544
0.0353194
0.0283853
0.634393
0.627917
0.617393
0.605881
0.59493
0.585042
0.576268
0.568823
0.562479
0.556958
0.552085
0.547752
0.54388
0.540405
0.537269
0.534421
0.531817
0.529419
0.527197
0.525124
0.523183
0.521359
0.519639
0.518022
0.516497
0.515048
0.513672
0.51237
0.511139
0.509968
0.508855
0.507803
0.506811
0.505877
0.504998
0.504171
0.50339
0.50265
0.501947
0.501275
0.500631
0.500014
0.499423
0.498857
0.498315
0.497797
0.497302
0.496828
0.496379
0.495954
0.495554
0.495178
0.494825
0.494497
0.494193
0.493912
0.493657
0.493426
0.493219
0.493038
0.492882
0.49275
0.492642
0.492556
0.492491
0.492444
0.492414
0.492398
0.492394
0.492397
0.492407
0.49242
0.492435
0.492449
0.492461
0.492471
0.492476
0.492478
0.492475
0.49247
0.49246
0.492451
0.492437
0.49243
0.492414
0.492415
0.4924
0.492418
0.492401
0.492447
0.492423
0.49251
0.492463
0.492606
0.492537
0.492733
0.492613
0.492929
0.492367
0.493715
0.568012
0.566784
0.560771
0.553679
0.546662
0.540085
0.534076
0.529025
0.524604
0.520714
0.517294
0.514286
0.511637
0.509301
0.50723
0.505378
0.503705
0.502176
0.500767
0.499459
0.498238
0.497096
0.496023
0.495029
0.494074
0.493138
0.492247
0.491418
0.490632
0.48987
0.489162
0.488518
0.487937
0.487414
0.486942
0.486515
0.486126
0.485765
0.485431
0.485113
0.484814
0.484536
0.484279
0.484039
0.483815
0.483604
0.483403
0.483218
0.483054
0.482907
0.482775
0.482656
0.48255
0.482459
0.482382
0.482321
0.482277
0.48225
0.482241
0.482249
0.482277
0.482323
0.482385
0.482463
0.482554
0.482659
0.482773
0.482894
0.483021
0.483151
0.483283
0.483415
0.483546
0.483674
0.483798
0.483916
0.484029
0.484138
0.484239
0.484338
0.484431
0.484524
0.484609
0.484702
0.484783
0.484882
0.48496
0.485073
0.485146
0.485284
0.485344
0.485522
0.485555
0.48579
0.485792
0.486082
0.486031
0.486448
0.485925
0.487408
0.499872
0.501577
0.497035
0.491953
0.487063
0.482546
0.478487
0.474388
0.470643
0.467405
0.464677
0.462402
0.460527
0.458999
0.45774
0.456703
0.455844
0.455128
0.454531
0.454031
0.453614
0.45327
0.452995
0.452778
0.452646
0.452611
0.452666
0.452773
0.452999
0.453353
0.453787
0.454273
0.454789
0.455323
0.455862
0.456396
0.456917
0.457419
0.457901
0.458348
0.458801
0.459262
0.459711
0.460144
0.460553
0.460941
0.461309
0.461655
0.461976
0.462279
0.462571
0.462855
0.463134
0.463411
0.463689
0.463969
0.464253
0.464543
0.464841
0.465145
0.46546
0.465778
0.466097
0.466419
0.466745
0.467078
0.467404
0.467727
0.468048
0.468369
0.468688
0.469003
0.469313
0.469617
0.469913
0.470202
0.470483
0.470759
0.471026
0.47129
0.471544
0.471799
0.472042
0.472292
0.472526
0.472778
0.473002
0.473263
0.473474
0.473757
0.473946
0.474266
0.474422
0.474798
0.474916
0.475349
0.475391
0.475969
0.475511
0.477236
0.356442
0.358936
0.35999
0.360791
0.361823
0.363023
0.364432
0.366195
0.368169
0.370333
0.372645
0.375029
0.377487
0.37998
0.382406
0.384761
0.38701
0.389159
0.391209
0.393164
0.395034
0.396827
0.398558
0.400239
0.401882
0.403502
0.405108
0.406713
0.408287
0.409832
0.411366
0.412886
0.414386
0.415859
0.417293
0.418682
0.420017
0.421304
0.422525
0.423718
0.424808
0.425803
0.426726
0.427599
0.428427
0.429228
0.430001
0.430759
0.431501
0.432232
0.432954
0.43367
0.434379
0.435085
0.435787
0.436487
0.437186
0.437887
0.438587
0.439292
0.439996
0.440708
0.441429
0.442155
0.442883
0.44361
0.44435
0.445094
0.445836
0.446569
0.447291
0.447999
0.448689
0.449363
0.450015
0.450656
0.451283
0.451898
0.452494
0.453078
0.453641
0.454196
0.454727
0.455259
0.455761
0.456278
0.456752
0.457263
0.457706
0.458226
0.458632
0.459175
0.459525
0.460111
0.460404
0.461038
0.461245
0.462022
0.461661
0.463693
0.200958
0.1989
0.199017
0.200912
0.204243
0.208711
0.213887
0.21961
0.225647
0.232043
0.238538
0.245019
0.251609
0.258018
0.263977
0.269702
0.27512
0.280349
0.285386
0.290242
0.294934
0.299478
0.303895
0.308197
0.312403
0.316514
0.320547
0.324497
0.328377
0.332159
0.335872
0.339461
0.342937
0.346278
0.349462
0.352509
0.355425
0.358215
0.360896
0.363464
0.365956
0.368379
0.370721
0.373004
0.375204
0.377363
0.379436
0.38148
0.383467
0.38541
0.387305
0.389149
0.390944
0.392694
0.394398
0.396063
0.397689
0.399282
0.400843
0.402375
0.403881
0.405362
0.40682
0.408254
0.409663
0.411047
0.412399
0.413722
0.415015
0.416281
0.417514
0.418719
0.419891
0.421033
0.422146
0.42322
0.424251
0.425251
0.426216
0.427159
0.428069
0.428967
0.429829
0.430692
0.431512
0.432349
0.433128
0.433953
0.43469
0.435515
0.436202
0.437046
0.437668
0.438549
0.439104
0.440033
0.440479
0.441565
0.441406
0.443828
0.0988009
0.0982443
0.0981036
0.0985193
0.09942
0.100862
0.102749
0.105059
0.107857
0.111343
0.114758
0.118424
0.122942
0.127168
0.13254
0.13802
0.143975
0.1503
0.156669
0.163104
0.169596
0.176114
0.18265
0.189169
0.195663
0.202093
0.208479
0.214777
0.221003
0.22709
0.233108
0.238714
0.244163
0.249234
0.254013
0.258758
0.263371
0.267872
0.272264
0.276562
0.280758
0.28488
0.2889
0.292868
0.296706
0.300541
0.304173
0.307916
0.311466
0.314965
0.318345
0.321601
0.324761
0.327835
0.330819
0.333732
0.336561
0.339337
0.34205
0.344704
0.347303
0.349853
0.352351
0.354801
0.357197
0.359547
0.361842
0.36409
0.36628
0.368425
0.370507
0.372546
0.374517
0.37645
0.378312
0.38014
0.381908
0.383641
0.385327
0.386979
0.388573
0.390144
0.391655
0.393157
0.394591
0.396039
0.397399
0.398809
0.400096
0.401483
0.402691
0.404073
0.405186
0.406584
0.4076
0.409036
0.409899
0.411478
0.411716
0.414685
0.0623811
0.0616012
0.0609019
0.0604208
0.0600305
0.0598103
0.0596629
0.0597033
0.0598631
0.0602012
0.0606889
0.0613036
0.0621167
0.0630981
0.0639541
0.0652147
0.0666074
0.0679194
0.0696465
0.0713261
0.0735639
0.0759238
0.0787331
0.0816994
0.0849568
0.088522
0.0923568
0.0964244
0.100745
0.105309
0.110105
0.1153
0.120994
0.126979
0.133081
0.139295
0.145555
0.151856
0.158139
0.164405
0.170602
0.17674
0.182775
0.18872
0.194542
0.200249
0.205839
0.211269
0.216643
0.221734
0.226631
0.231267
0.235783
0.240199
0.244507
0.248765
0.252874
0.257137
0.261159
0.265137
0.269066
0.27294
0.276743
0.280485
0.284149
0.28775
0.291266
0.294719
0.298075
0.301365
0.304541
0.307659
0.310648
0.313602
0.316414
0.319214
0.321872
0.324537
0.327126
0.329633
0.332049
0.334447
0.336757
0.339064
0.34127
0.343506
0.345614
0.347792
0.349799
0.351933
0.353829
0.355936
0.357703
0.359803
0.361426
0.363551
0.364984
0.367236
0.368035
0.371628
0.0496415
0.0488678
0.0481333
0.0474587
0.0467284
0.0460575
0.045333
0.0446556
0.0438517
0.0430945
0.0422115
0.041429
0.0405461
0.0397353
0.0390541
0.0384295
0.0379717
0.0375717
0.0373502
0.0371119
0.0370659
0.036983
0.0371548
0.0372558
0.0376788
0.0382803
0.0386556
0.039218
0.0400959
0.0411203
0.0423072
0.0436552
0.0451884
0.0469563
0.048916
0.0511482
0.0535689
0.0562735
0.0591621
0.0623513
0.0657195
0.0693867
0.0732165
0.0773394
0.0815972
0.0861371
0.0907722
0.0956775
0.100622
0.105903
0.111373
0.117123
0.122943
0.12883
0.134725
0.140644
0.146512
0.152356
0.158141
0.163861
0.169487
0.175029
0.180446
0.185759
0.190929
0.195993
0.200904
0.205721
0.210311
0.214772
0.219021
0.223182
0.22719
0.231158
0.234981
0.238786
0.242453
0.246127
0.249659
0.25323
0.256617
0.260096
0.263373
0.266665
0.269832
0.273069
0.276102
0.279253
0.282143
0.28522
0.287947
0.290961
0.2935
0.296473
0.298802
0.301792
0.303838
0.306925
0.308568
0.312717
0.0381302
0.0370367
0.0360161
0.0349425
0.0339195
0.0329136
0.0319996
0.0311316
0.0303634
0.0296538
0.0290327
0.0283993
0.0277315
0.0271053
0.0265603
0.0260759
0.0256518
0.0252681
0.0249344
0.0246289
0.024368
0.0241263
0.0239251
0.0237416
0.0235929
0.0234642
0.0233795
0.0232939
0.0232611
0.0232244
0.0232614
0.0232776
0.0233889
0.0234617
0.0236473
0.023889
0.0240448
0.0243352
0.0246704
0.0251254
0.0255819
0.0261743
0.0267894
0.0275649
0.0283857
0.0293776
0.0304486
0.0316951
0.0330491
0.0346004
0.0362877
0.0382226
0.0403168
0.0426769
0.0451949
0.047996
0.0509583
0.054205
0.0576085
0.0612886
0.0651144
0.0692004
0.0734066
0.0778449
0.0823673
0.0870862
0.0918484
0.0967688
0.101763
0.106947
0.112142
0.117474
0.122695
0.127996
0.133142
0.13835
0.143365
0.148438
0.153284
0.158198
0.162852
0.167592
0.172042
0.176609
0.180836
0.185245
0.189249
0.193521
0.197298
0.201383
0.204863
0.208813
0.212002
0.215893
0.218794
0.222703
0.225369
0.229284
0.23184
0.236441
0.0278576
0.0269577
0.0260632
0.0253258
0.024696
0.0241388
0.0236343
0.0231699
0.0227413
0.022339
0.0219577
0.0216018
0.0212654
0.0209522
0.020658
0.0203874
0.0201346
0.0199034
0.019687
0.0194906
0.0193059
0.0191394
0.0189815
0.0188402
0.0187052
0.0185861
0.0184713
0.0183715
0.0182745
0.0181925
0.0181119
0.0180466
0.017982
0.0179341
0.0178766
0.0178442
0.017808
0.0177968
0.017762
0.0177752
0.0177431
0.01778
0.0177546
0.01781
0.0178087
0.0178703
0.0179165
0.0179763
0.018123
0.0181814
0.0183669
0.0184467
0.0186477
0.0187415
0.0189635
0.0192984
0.0195834
0.0200465
0.0204417
0.0210631
0.0216381
0.0224268
0.0231792
0.0241825
0.0251437
0.0263937
0.0275899
0.0291143
0.0305702
0.0323993
0.0341457
0.0363108
0.0383718
0.0408902
0.0432713
0.0461488
0.0488448
0.0520776
0.0550715
0.0586451
0.0619064
0.0657956
0.0692798
0.0734506
0.0771015
0.0815137
0.0852675
0.0898802
0.093667
0.0985279
0.102351
0.107412
0.111181
0.116402
0.119929
0.125235
0.128441
0.133751
0.137915
0.142419
0.0225275
0.0220345
0.0215606
0.0211099
0.0206881
0.0202945
0.0199243
0.0195809
0.019257
0.0189593
0.0186877
0.0184423
0.0182151
0.0180085
0.0178144
0.0176369
0.0174676
0.0173125
0.0171643
0.0170291
0.0168984
0.0167795
0.0166632
0.0165579
0.0164537
0.0163595
0.0162653
0.0161801
0.0160938
0.016016
0.0159359
0.0158641
0.0157893
0.0157226
0.0156523
0.0155905
0.0155236
0.01547
0.0154105
0.0153657
0.0153122
0.0152753
0.0152276
0.015197
0.0151555
0.01513
0.0150944
0.0150745
0.0150434
0.0150317
0.0150045
0.0149998
0.0149783
0.0149791
0.014963
0.0149698
0.0149644
0.0149784
0.0149861
0.0150089
0.0150322
0.0150683
0.0151115
0.0151637
0.0152328
0.0153108
0.0153765
0.0155202
0.0155976
0.0157873
0.0158872
0.0161385
0.0162746
0.0166043
0.0167839
0.01722
0.0174533
0.018022
0.0183335
0.0190531
0.0194575
0.0203717
0.0208786
0.0220332
0.0226544
0.0240795
0.0248384
0.0265514
0.0274656
0.0294927
0.0305722
0.0329413
0.0341942
0.036924
0.0383562
0.0413885
0.0429108
0.0462647
0.0477694
0.0531876
0.0186839
0.0184554
0.0182319
0.0180118
0.0177898
0.017565
0.0173484
0.0171371
0.0169385
0.0167483
0.0165719
0.0164037
0.0162485
0.0161009
0.0159648
0.0158353
0.0157155
0.015601
0.0154924
0.0153874
0.0152873
0.0151907
0.0150986
0.0150103
0.0149258
0.0148455
0.0147681
0.0146953
0.0146243
0.0145582
0.0144929
0.0144326
0.0143723
0.0143173
0.0142615
0.0142114
0.0141599
0.0141145
0.0140672
0.0140263
0.0139831
0.0139466
0.0139071
0.0138749
0.0138386
0.0138103
0.0137768
0.0137519
0.0137205
0.0136987
0.0136688
0.0136499
0.0136214
0.0136051
0.0135775
0.0135636
0.0135368
0.0135248
0.013499
0.0134892
0.013465
0.0134559
0.0134335
0.0134242
0.0134011
0.0133941
0.013375
0.0133726
0.0133583
0.0133591
0.0133491
0.0133527
0.0133463
0.013354
0.0133513
0.0133648
0.013369
0.0133894
0.0134033
0.0134313
0.0134598
0.0135057
0.0135536
0.0136376
0.0136722
0.013763
0.0137977
0.0139477
0.0140023
0.0142002
0.0142932
0.0145564
0.0146428
0.0150278
0.0151125
0.0155928
0.0156834
0.0166474
0.0164373
0.0179733
0.0161379
0.0160115
0.0158821
0.0157441
0.0156041
0.0154599
0.0153185
0.0151761
0.0150393
0.0149033
0.0147742
0.0146466
0.0145267
0.0144086
0.0142984
0.01419
0.0140895
0.0139906
0.0138994
0.0138097
0.0137275
0.0136465
0.0135725
0.0134996
0.013433
0.0133673
0.0133075
0.0132483
0.0131945
0.0131413
0.013093
0.0130452
0.0130017
0.0129588
0.0129196
0.012881
0.0128455
0.0128107
0.0127783
0.012747
0.0127173
0.0126889
0.0126615
0.012636
0.0126106
0.0125875
0.012564
0.0125433
0.0125215
0.012503
0.0124826
0.0124661
0.012447
0.0124325
0.0124145
0.0124018
0.0123848
0.0123737
0.0123575
0.0123481
0.0123326
0.0123248
0.0123098
0.0123035
0.0122889
0.012284
0.0122697
0.0122663
0.0122522
0.01225
0.0122361
0.0122351
0.0122214
0.0122215
0.0122079
0.0122091
0.0121956
0.0121979
0.0121846
0.0121882
0.0121749
0.0121801
0.0121669
0.0121748
0.0121619
0.0121726
0.0121598
0.0121738
0.0121615
0.0121796
0.0121683
0.0121911
0.012182
0.0122099
0.0122046
0.0122368
0.0122419
0.0122753
0.01229
0.0123578
0.0143865
0.0143136
0.0142364
0.0141493
0.0140592
0.0139635
0.0138692
0.0137723
0.0136796
0.0135858
0.0134976
0.0134092
0.0133273
0.0132453
0.0131703
0.013095
0.0130271
0.0129585
0.0128973
0.012835
0.0127802
0.0127237
0.0126745
0.0126232
0.0125791
0.0125323
0.0124926
0.0124498
0.012414
0.0123747
0.0123424
0.0123062
0.0122769
0.0122435
0.0122169
0.0121859
0.0121617
0.0121329
0.0121108
0.0120837
0.0120634
0.0120379
0.0120193
0.0119952
0.011978
0.0119553
0.0119395
0.011918
0.0119034
0.0118831
0.0118698
0.0118505
0.0118384
0.0118202
0.011809
0.0117918
0.0117817
0.0117653
0.0117561
0.0117406
0.0117322
0.0117175
0.0117099
0.0116959
0.011689
0.0116756
0.0116694
0.0116565
0.011651
0.0116386
0.0116336
0.0116216
0.0116171
0.0116055
0.0116014
0.0115901
0.0115864
0.0115754
0.011572
0.0115613
0.0115582
0.0115478
0.0115449
0.0115349
0.0115322
0.0115226
0.0115202
0.0115107
0.0115086
0.0114994
0.0114974
0.0114885
0.0114868
0.0114779
0.0114756
0.0114655
0.0114601
0.0114453
0.0114747
0.0114079
0.0131106
0.0130715
0.0130286
0.0129759
0.0129198
0.0128575
0.0127955
0.0127301
0.0126671
0.0126019
0.0125405
0.0124777
0.0124195
0.0123602
0.0123059
0.0122504
0.0122003
0.0121489
0.0121029
0.0120553
0.0120133
0.0119694
0.0119311
0.0118906
0.0118557
0.0118184
0.0117867
0.0117522
0.0117235
0.0116916
0.0116655
0.0116359
0.0116123
0.0115849
0.0115634
0.0115379
0.0115185
0.0114947
0.0114771
0.0114549
0.0114389
0.0114181
0.0114037
0.0113841
0.011371
0.0113526
0.0113407
0.0113232
0.0113125
0.0112959
0.0112862
0.0112704
0.0112616
0.0112466
0.0112386
0.0112243
0.0112171
0.0112035
0.011197
0.0111839
0.011178
0.0111654
0.0111602
0.0111481
0.0111433
0.0111317
0.0111274
0.0111161
0.0111123
0.0111014
0.0110979
0.0110873
0.0110841
0.0110739
0.011071
0.0110611
0.0110584
0.0110489
0.0110463
0.0110371
0.0110347
0.0110259
0.0110235
0.011015
0.0110128
0.0110046
0.0110023
0.0109945
0.0109922
0.0109847
0.0109824
0.0109753
0.0109728
0.010966
0.0109634
0.010957
0.0109541
0.0109481
0.0109445
0.0109376
0.0122267
0.0122089
0.0121887
0.0121589
0.0121263
0.012087
0.0120481
0.0120046
0.0119632
0.0119183
0.0118768
0.0118325
0.0117923
0.0117496
0.0117116
0.0116713
0.0116359
0.0115982
0.0115656
0.0115304
0.0115005
0.0114679
0.0114405
0.0114102
0.0113852
0.011357
0.0113342
0.0113079
0.0112869
0.0112623
0.0112431
0.01122
0.0112024
0.0111806
0.0111644
0.0111439
0.0111291
0.0111096
0.011096
0.0110776
0.0110651
0.0110477
0.0110362
0.0110196
0.0110091
0.0109932
0.0109836
0.0109684
0.0109596
0.010945
0.0109369
0.010923
0.0109155
0.010902
0.0108952
0.0108822
0.0108759
0.0108634
0.0108576
0.0108455
0.0108402
0.0108285
0.0108236
0.0108122
0.0108077
0.0107967
0.0107925
0.0107818
0.0107779
0.0107675
0.0107639
0.0107537
0.0107503
0.0107404
0.0107373
0.0107277
0.0107247
0.0107153
0.0107124
0.0107034
0.0107006
0.0106918
0.0106891
0.0106806
0.0106779
0.0106697
0.010667
0.0106591
0.0106564
0.0106488
0.0106461
0.0106388
0.010636
0.010629
0.010626
0.0106195
0.0106162
0.01061
0.0106077
0.0105989
0.011619
0.0116129
0.0116055
0.0115891
0.0115704
0.0115449
0.0115199
0.0114898
0.0114617
0.0114295
0.0114003
0.0113676
0.0113386
0.0113064
0.0112784
0.0112472
0.0112207
0.0111909
0.011166
0.0111377
0.0111145
0.0110878
0.0110662
0.0110411
0.0110212
0.0109974
0.0109791
0.0109567
0.0109398
0.0109188
0.0109032
0.0108833
0.010869
0.0108501
0.010837
0.0108191
0.010807
0.01079
0.0107788
0.0107626
0.0107524
0.0107369
0.0107274
0.0107126
0.0107039
0.0106896
0.0106816
0.0106679
0.0106605
0.0106473
0.0106404
0.0106277
0.0106214
0.0106091
0.0106033
0.0105913
0.010586
0.0105744
0.0105695
0.0105583
0.0105537
0.0105428
0.0105386
0.010528
0.0105241
0.0105138
0.0105102
0.0105002
0.0104968
0.010487
0.0104839
0.0104744
0.0104714
0.0104622
0.0104593
0.0104503
0.0104476
0.0104388
0.0104362
0.0104277
0.0104251
0.0104169
0.0104143
0.0104063
0.0104038
0.010396
0.0103935
0.010386
0.0103834
0.0103762
0.0103734
0.0103666
0.0103637
0.010357
0.0103537
0.0103481
0.0103482
0.0103425
0.0103077
0.0103541
0.0111848
0.0111853
0.011185
0.0111763
0.0111658
0.0111487
0.0111322
0.0111105
0.0110908
0.0110666
0.0110454
0.0110201
0.0109986
0.0109732
0.010952
0.010927
0.0109067
0.0108826
0.0108634
0.0108402
0.0108222
0.0108
0.0107833
0.0107622
0.0107466
0.0107265
0.0107121
0.0106929
0.0106796
0.0106614
0.0106491
0.0106317
0.0106203
0.0106037
0.0105932
0.0105773
0.0105677
0.0105524
0.0105435
0.0105288
0.0105206
0.0105065
0.010499
0.0104853
0.0104783
0.0104651
0.0104587
0.0104459
0.01044
0.0104275
0.0104221
0.0104099
0.0104049
0.0103931
0.0103885
0.010377
0.0103727
0.0103615
0.0103576
0.0103466
0.010343
0.0103323
0.010329
0.0103185
0.0103155
0.0103052
0.0103024
0.0102924
0.0102897
0.01028
0.0102775
0.0102679
0.0102655
0.0102562
0.0102539
0.0102448
0.0102426
0.0102338
0.0102316
0.010223
0.0102208
0.0102125
0.0102103
0.0102022
0.0101999
0.0101921
0.0101898
0.0101823
0.0101798
0.0101726
0.01017
0.0101631
0.0101603
0.0101539
0.0101511
0.0101445
0.0101376
0.0101322
0.0101599
0.0100985
0.0108707
0.0108752
0.0108788
0.0108747
0.010869
0.0108571
0.0108459
0.0108297
0.0108153
0.0107965
0.0107804
0.0107603
0.0107436
0.010723
0.0107063
0.0106858
0.0106696
0.0106495
0.0106341
0.0106146
0.0106
0.0105811
0.0105675
0.0105493
0.0105366
0.0105191
0.0105074
0.0104905
0.0104796
0.0104634
0.0104533
0.0104377
0.0104284
0.0104133
0.0104048
0.0103902
0.0103823
0.0103681
0.0103609
0.0103472
0.0103406
0.0103271
0.0103211
0.010308
0.0103026
0.0102897
0.0102848
0.0102722
0.0102677
0.0102554
0.0102514
0.0102392
0.0102356
0.0102237
0.0102205
0.0102087
0.0102059
0.0101943
0.0101918
0.0101803
0.0101782
0.0101669
0.0101651
0.0101538
0.0101523
0.0101412
0.01014
0.010129
0.010128
0.0101171
0.0101164
0.0101055
0.010105
0.0100942
0.0100939
0.0100832
0.0100831
0.0100725
0.0100726
0.010062
0.0100622
0.0100517
0.010052
0.0100416
0.0100421
0.0100318
0.0100323
0.0100221
0.0100226
0.0100125
0.0100131
0.0100031
0.0100039
0.00999414
0.00999401
0.00998457
0.00998865
0.0099765
0.00997259
0.00996344
0.010635
0.0106424
0.0106478
0.0106462
0.0106432
0.0106348
0.0106268
0.0106144
0.0106034
0.0105885
0.0105757
0.0105594
0.0105458
0.0105289
0.0105152
0.0104981
0.0104846
0.0104677
0.0104547
0.0104381
0.0104257
0.0104096
0.0103979
0.0103823
0.0103714
0.0103562
0.010346
0.0103314
0.0103218
0.0103077
0.0102988
0.0102851
0.0102769
0.0102635
0.0102559
0.0102429
0.0102359
0.0102233
0.0102168
0.0102044
0.0101985
0.0101864
0.010181
0.010169
0.0101641
0.0101524
0.0101478
0.0101363
0.0101322
0.0101208
0.0101171
0.0101059
0.0101026
0.0100915
0.0100885
0.0100775
0.0100749
0.010064
0.0100617
0.0100509
0.0100489
0.0100382
0.0100365
0.0100259
0.0100245
0.0100139
0.0100127
0.0100023
0.0100013
0.00999092
0.0099902
0.00997983
0.00997932
0.009969
0.00996868
0.0099584
0.00995826
0.00994802
0.00994804
0.00993785
0.00993801
0.00992787
0.00992817
0.00991808
0.00991849
0.00990845
0.00990896
0.00989899
0.00989958
0.0098897
0.00989032
0.00988044
0.00988124
0.00987176
0.00987202
0.00986208
0.00986316
0.00985121
0.00987598
0.0098175
0.0104602
0.0104672
0.0104732
0.0104732
0.0104719
0.0104657
0.0104598
0.0104499
0.0104412
0.0104289
0.0104185
0.0104048
0.0103935
0.0103792
0.0103676
0.0103531
0.0103416
0.010327
0.0103159
0.0103016
0.0102909
0.0102769
0.0102667
0.0102531
0.0102434
0.0102302
0.0102211
0.0102083
0.0101998
0.0101872
0.0101793
0.0101671
0.0101596
0.0101478
0.0101408
0.0101292
0.0101227
0.0101114
0.0101054
0.0100943
0.0100887
0.0100778
0.0100725
0.0100619
0.010057
0.0100465
0.010042
0.0100317
0.0100274
0.0100173
0.0100134
0.0100033
0.00999971
0.00998984
0.00998647
0.00997673
0.00997361
0.009964
0.00996112
0.00995162
0.00994896
0.00993958
0.00993711
0.00992786
0.00992557
0.00991643
0.00991429
0.00990528
0.00990328
0.00989439
0.0098925
0.00988374
0.00988194
0.00987331
0.00987159
0.0098631
0.00986142
0.00985309
0.00985143
0.00984327
0.0098416
0.00983363
0.00983193
0.00982416
0.0098224
0.00981486
0.009813
0.0098057
0.00980372
0.00979669
0.00979458
0.00978791
0.00978534
0.00977867
0.00977723
0.00977182
0.00976769
0.00976775
0.00973748
0.00977907
0.0103255
0.0103319
0.0103382
0.010339
0.0103388
0.0103341
0.0103297
0.0103215
0.0103145
0.0103041
0.0102954
0.0102837
0.0102741
0.0102617
0.0102518
0.0102391
0.0102291
0.0102164
0.0102067
0.0101941
0.0101847
0.0101724
0.0101634
0.0101514
0.0101428
0.010131
0.0101229
0.0101115
0.0101038
0.0100926
0.0100853
0.0100744
0.0100676
0.0100569
0.0100504
0.01004
0.0100339
0.0100237
0.010018
0.0100079
0.0100025
0.00999269
0.00998761
0.00997791
0.00997314
0.00996359
0.0099591
0.00994968
0.00994546
0.00993618
0.00993221
0.00992304
0.00991931
0.00991026
0.00990676
0.00989782
0.00989453
0.0098857
0.00988261
0.00987388
0.00987098
0.00986236
0.00985962
0.0098511
0.00984852
0.0098401
0.00983766
0.00982935
0.00982703
0.00981882
0.0098166
0.0098085
0.00980637
0.00979838
0.00979631
0.00978845
0.00978643
0.0097787
0.0097767
0.00976911
0.00976712
0.00975969
0.00975768
0.00975042
0.00974838
0.0097413
0.0097392
0.00973231
0.00973012
0.00972346
0.00972119
0.00971483
0.00971216
0.00970572
0.00970429
0.00969906
0.009695
0.00969528
0.00966551
0.00970643
0.0102242
0.0102302
0.0102364
0.0102374
0.0102379
0.0102339
0.0102306
0.0102236
0.0102178
0.0102086
0.0102013
0.0101909
0.0101827
0.0101717
0.010163
0.0101517
0.010143
0.0101316
0.010123
0.0101117
0.0101033
0.0100922
0.0100841
0.0100732
0.0100654
0.0100547
0.0100472
0.0100369
0.0100297
0.0100196
0.0100127
0.0100028
0.00999631
0.00998664
0.0099804
0.00997095
0.00996499
0.00995575
0.00995005
0.00994099
0.00993554
0.00992666
0.00992144
0.00991273
0.00990773
0.00989918
0.00989437
0.00988599
0.00988137
0.00987314
0.00986868
0.0098606
0.0098563
0.00984838
0.00984422
0.00983645
0.00983242
0.0098248
0.00982088
0.00981343
0.0098096
0.00980231
0.00979856
0.00979143
0.00978774
0.00978079
0.00977713
0.00977036
0.00976672
0.00976014
0.00975649
0.00975012
0.00974644
0.00974028
0.00973655
0.00973062
0.0097268
0.00972112
0.0097172
0.00971178
0.00970773
0.0097026
0.00969838
0.00969356
0.00968915
0.00968467
0.00968003
0.00967592
0.00967102
0.00966728
0.00966209
0.00965885
0.00965318
0.00965021
0.00964496
0.00964245
0.00963273
0.00963367
0.009633
0.00962498
0.010149
0.0101543
0.0101604
0.0101611
0.010162
0.0101582
0.0101555
0.0101488
0.0101439
0.0101353
0.0101289
0.0101191
0.0101119
0.0101014
0.0100938
0.010083
0.0100754
0.0100645
0.0100568
0.0100461
0.0100386
0.0100279
0.0100207
0.0100103
0.0100033
0.00999307
0.00998636
0.00997637
0.00996992
0.00996016
0.00995398
0.00994444
0.00993851
0.00992917
0.00992349
0.00991435
0.0099089
0.00989995
0.00989472
0.00988595
0.00988091
0.00987231
0.00986746
0.00985903
0.00985435
0.00984607
0.00984155
0.00983343
0.00982905
0.00982109
0.00981684
0.00980903
0.0098049
0.00979724
0.00979322
0.00978571
0.00978179
0.00977444
0.00977059
0.00976341
0.00975962
0.00975261
0.00974887
0.00974203
0.00973832
0.00973166
0.00972796
0.00972148
0.00971778
0.0097115
0.00970776
0.0097017
0.0096979
0.00969206
0.00968819
0.00968259
0.00967862
0.00967327
0.00966917
0.0096641
0.00965985
0.00965507
0.00965065
0.00964618
0.00964155
0.00963743
0.00963255
0.00962881
0.00962365
0.00962029
0.00961483
0.00961198
0.00960605
0.00960333
0.00959753
0.00959595
0.00958908
0.00959003
0.00956011
0.00960223
0.0100883
0.010093
0.0100987
0.010099
0.0101
0.0100961
0.0100939
0.0100873
0.010083
0.0100746
0.010069
0.0100594
0.0100531
0.0100429
0.0100362
0.0100257
0.0100189
0.0100084
0.0100017
0.0099912
0.00998463
0.0099743
0.00996794
0.00995778
0.00995166
0.00994169
0.00993581
0.00992604
0.0099204
0.00991082
0.00990541
0.00989602
0.00989082
0.00988161
0.00987661
0.00986757
0.00986277
0.00985389
0.00984926
0.00984054
0.00983608
0.0098275
0.00982319
0.00981475
0.00981058
0.00980229
0.00979824
0.00979009
0.00978615
0.00977815
0.00977432
0.00976645
0.00976271
0.00975499
0.00975133
0.00974376
0.00974017
0.00973275
0.00972923
0.00972196
0.00971848
0.00971137
0.00970792
0.00970098
0.00969754
0.00969079
0.00968734
0.00968077
0.0096773
0.00967092
0.00966741
0.00966124
0.00965767
0.00965172
0.00964806
0.00964235
0.00963858
0.00963312
0.00962922
0.00962403
0.00961997
0.00961508
0.00961084
0.00960626
0.00960181
0.00959757
0.00959288
0.00958901
0.00958405
0.00958055
0.00957526
0.00957221
0.00956671
0.0095641
0.00955743
0.00955512
0.00954987
0.00954554
0.00954139
0.00953691
0.0100409
0.0100449
0.0100502
0.01005
0.010051
0.0100471
0.0100452
0.0100387
0.0100349
0.0100267
0.0100217
0.0100124
0.0100067
0.0099969
0.00999093
0.00998077
0.00997475
0.00996448
0.00995854
0.00994826
0.0099425
0.00993229
0.00992673
0.00991661
0.00991128
0.00990127
0.00989617
0.00988628
0.0098814
0.00987162
0.00986696
0.00985729
0.00985283
0.00984328
0.00983902
0.00982957
0.0098255
0.00981616
0.00981226
0.00980303
0.00979929
0.00979016
0.00978657
0.00977756
0.00977411
0.0097652
0.00976188
0.00975308
0.00974988
0.0097412
0.00973811
0.00972954
0.00972655
0.0097181
0.0097152
0.00970689
0.00970406
0.00969589
0.00969312
0.0096851
0.00968238
0.00967451
0.00967182
0.00966412
0.00966145
0.00965391
0.00965124
0.00964389
0.00964119
0.00963405
0.00963129
0.00962437
0.00962154
0.00961485
0.00961192
0.00960548
0.00960242
0.00959627
0.00959305
0.0095872
0.00958379
0.00957827
0.00957465
0.00956948
0.0095656
0.00956082
0.00955665
0.0095523
0.00954779
0.00954389
0.00953897
0.00953559
0.00953034
0.0095276
0.00952134
0.00951833
0.00950984
0.00950547
0.00953025
0.00947597
0.0100072
0.0100106
0.0100152
0.0100147
0.0100154
0.0100114
0.0100094
0.010003
0.00999916
0.00999117
0.00998618
0.00997714
0.00997151
0.00996183
0.00995591
0.00994587
0.00993988
0.00992965
0.00992375
0.00991342
0.00990767
0.00989731
0.00989175
0.00988139
0.00987605
0.00986571
0.00986062
0.00985031
0.00984549
0.00983524
0.00983068
0.00982048
0.0098162
0.00980607
0.00980206
0.00979198
0.00978825
0.00977823
0.00977476
0.00976479
0.00976159
0.00975167
0.00974875
0.00973883
0.00973614
0.00972623
0.00972378
0.00971388
0.00971168
0.0097018
0.00969984
0.00968998
0.00968826
0.00967842
0.00967693
0.00966711
0.00966586
0.00965605
0.00965502
0.00964522
0.0096444
0.00963462
0.00963401
0.00962423
0.00962382
0.00961405
0.00961382
0.00960406
0.009604
0.00959425
0.00959435
0.00958461
0.00958487
0.00957513
0.00957554
0.00956581
0.00956635
0.00955664
0.0095573
0.00954761
0.00954838
0.00953872
0.00953958
0.00952997
0.00953089
0.00952133
0.00952232
0.00951282
0.00951385
0.00950443
0.00950546
0.00949608
0.00949724
0.00948813
0.00948845
0.00947957
0.0094838
0.00947237
0.00946869
0.00946076
0.00998169
0.00998465
0.00998849
0.00998755
0.00998765
0.00998333
0.00998066
0.0099739
0.00996928
0.00996079
0.00995489
0.00994527
0.00993863
0.00992834
0.00992133
0.0099107
0.00990362
0.00989287
0.00988583
0.0098748
0.00986779
0.00985674
0.00984996
0.00983906
0.00983264
0.00982196
0.00981597
0.00980555
0.00979999
0.00978982
0.00978469
0.00977475
0.00977004
0.00976031
0.00975598
0.00974644
0.00974246
0.00973307
0.00972943
0.00972016
0.00971683
0.00970766
0.00970459
0.00969555
0.00969278
0.00968383
0.00968132
0.00967244
0.00967017
0.00966135
0.0096593
0.00965051
0.00964868
0.00963992
0.00963828
0.00962954
0.00962809
0.00961937
0.0096181
0.00960938
0.00960829
0.00959958
0.00959865
0.00958995
0.00958918
0.00958047
0.00957985
0.00957115
0.00957066
0.00956196
0.00956161
0.00955291
0.00955268
0.00954399
0.00954388
0.00953519
0.00953519
0.00952651
0.00952661
0.00951794
0.00951813
0.00950948
0.00950976