/*--------------------------------*- C++ -*----------------------------------*\
  =========                 |
  \\      /  F ield         | OpenFOAM: The Open Source CFD Toolbox
   \\    /   O peration     | Website:  https://openfoam.org
    \\  /    A nd           | Version:  8
     \\/     M anipulation  |
\*---------------------------------------------------------------------------*/
FoamFile
{
    version     2.0;
    format      ascii;
    class       volScalarField;
    location    "0.999962";
    object      epsilon;
}
// * * * * * * * * * * * * * * * * * * * * * * * * * * * * * * * * * * * * * //

dimensions      [0 2 -3 0 0 0 0];

internalField   nonuniform List<scalar> 
6800
(
3649.58
12377.2
10584.7
8382.35
6403.89
4371.74
2624.02
1319.96
705.835
431.477
2858.78
8320.22
8119.79
7157.68
5001.21
2761.59
1354.11
720.366
404.626
274.159
2892.35
7202.17
7139.56
6049.87
3484.36
1675.86
861.775
460.557
269.861
168.539
3003.04
6404.18
6607.29
5124.39
2380.86
1094.46
505.972
283.377
176.05
127.255
3047.27
6182.07
6217.96
3806.93
1546.65
666.574
361.207
221.764
144.67
105.618
3118.38
6208.51
5911.91
2808.24
1082.24
516.812
274.749
161.49
110.344
87.5854
3153.83
6663.63
5364
1839.64
744.385
358.843
205.14
139.24
99.994
82.0012
3202.44
7052.96
4436.26
1505.43
624.313
313.335
183.623
117.571
85.2181
72.6521
3226.74
7568.27
3694.23
1091.19
451.836
239.768
146.875
102.804
80.8764
70.0711
3259.88
7885.67
2873.3
951.662
409.862
222.281
137.179
96.5307
73.5228
64.4864
18066.8
21518
20382.3
20520.7
22229.3
24558.7
26992.4
28976.9
30015.8
30274.8
17755.3
21595
20694.1
21580.4
24700.5
28736.9
32913.7
36515.3
39063.9
40026.3
82148.5
28397.1
22221.9
24057.2
29513.7
35991
41413.8
44801.6
46386.9
46285.7
80281.4
31830.8
24356.1
29067.8
37743.4
45007.6
48277
48070.1
47146.2
43437.8
18577.4
26324.1
29510.7
40727.6
50037.3
51632.3
50139.4
45339.3
40680.6
30382.4
18636.9
30354.2
45310.7
57823.4
56931.6
52272
44023.5
31368.2
23289.4
13286.4
81313.2
57925
68176.8
63556
53555.6
36346.6
22041.6
13092.6
9281.83
5528.87
82838.7
79338.7
66816.7
48181.8
25246.7
14825.9
9604.52
6330.45
4785.81
2871.88
17482.8
47793.3
35777.8
19582.5
12181.3
8231.78
5712.65
3980
2993.02
1703.57
10729.5
19895.9
15334.2
10581.8
7844
5775.15
4065.38
2783.95
1601.73
800.007
29296
26614.5
23969
21597
19581
17891.9
16467.3
15253.5
14210.1
13304.6
12511.6
11810.9
11187
10627.5
10122.2
9663.28
9243.98
8858.88
8503.51
8174.17
7867.8
7581.86
7314.24
7063.13
6827.08
6604.93
6395.52
6197.83
6010.92
5833.91
5666.05
5506.61
5354.95
5210.48
5072.64
4940.93
4814.91
4694.14
4578.27
4466.97
4359.96
4256.96
4157.73
4062.09
3969.85
3880.85
3794.94
3711.99
3631.88
3554.5
3479.73
3407.47
3337.63
3270.11
3204.83
3141.69
3080.63
3021.55
2964.39
2909.08
2855.53
2803.68
2753.46
2704.79
2657.62
2611.85
2567.44
2524.29
2482.36
2441.57
2401.86
2363.17
2325.46
2288.66
2252.74
2217.66
2183.39
2149.89
2117.15
2085.14
2053.85
2023.25
1993.36
1964.12
1935.58
1907.64
1880.44
1853.72
1827.83
1802.24
1777.68
1753.03
1729.91
1705.9
1684.48
1660.53
1641.58
1616.28
1602.26
1568.06
38962.1
35157.2
31393.3
28153.3
25430
23134.9
21199.6
19544.2
18123.8
16896.2
15825.6
14883.7
14048
13300.8
12628
12018.3
11462.5
10953
10483.6
10049.4
9646.17
9270.56
8919.72
8591.13
8283.32
7994.78
7723.5
7467.88
7226.59
6998.45
6782.43
6577.57
6383.01
6197.94
6021.63
5853.41
5692.69
5538.92
5391.62
5250.39
5114.82
4984.51
4859.19
4738.6
4622.53
4510.78
4403.14
4299.46
4199.55
4103.26
4010.42
3920.91
3834.58
3751.29
3670.92
3593.34
3518.44
3446.12
3376.25
3308.74
3243.49
3180.39
3119.36
3060.31
3003.14
2947.75
2894.06
2841.97
2791.41
2742.29
2694.53
2648.07
2602.84
2558.79
2515.85
2473.99
2433.16
2393.32
2354.45
2316.51
2279.49
2243.34
2208.08
2173.64
2140.08
2107.25
2075.34
2044.03
2013.73
1983.8
1955.13
1926.36
1899.42
1871.45
1846.55
1818.7
1796.7
1767.36
1751.18
1711.68
45218.3
41514.3
37363.5
33748.5
30669
28030.9
25771.9
23855.5
22206.2
20770.9
19510.7
18395.2
17400.1
16505.7
15696.6
14959.8
14284.3
13661.8
13085.3
12549.3
12049.3
11581.6
11143.1
10731.3
10343.5
9977.51
9632
9305.59
8996.97
8704.9
8428.13
8165.48
7915.86
7678.22
7451.68
7235.39
7028.62
6830.72
6641.04
6459.26
6284.37
6116
5954.05
5798.33
5648.6
5504.6
5366.09
5232.82
5104.56
4981.1
4862.2
4747.68
4637.35
4531.02
4428.52
4329.68
4234.34
4142.36
4053.57
3967.86
3885.04
3805.07
3727.82
3653.13
3580.86
3510.88
3443.08
3377.32
3313.52
3251.56
3191.35
3132.81
3075.86
3020.43
2966.45
2913.86
2862.61
2812.66
2763.96
2716.47
2670.19
2625.05
2581.08
2538.16
2496.4
2455.59
2415.96
2377.11
2339.56
2302.48
2267.02
2231.42
2198.18
2163.61
2132.95
2098.58
2071.6
2035.45
2015.62
1967.06
41723.3
38638.8
35414.2
32515.7
29999.4
27804
25874.4
24175.2
22683.6
21370.9
20209.3
19174.4
18245.4
17405.7
16642.5
15942.3
15295.3
14693.8
14132.2
13606
13111.6
12646.2
12207.3
11792.9
11401
11030.1
10678.6
10345.2
10028.5
9727.41
9440.68
9167.36
8906.38
8656.8
8417.87
8188.76
7968.8
7757.3
7553.94
7357.76
7169.55
6988.8
6814.78
6647.03
6485.15
6328.9
6177.98
6032.22
5891.38
5755.31
5623.8
5496.7
5373.81
5255
5140.09
5028.94
4921.4
4817.32
4716.57
4619
4524.51
4432.91
4344.05
4257.84
4174.19
4092.97
4014.09
3937.44
3862.92
3790.42
3719.87
3651.16
3584.23
3519
3455.44
3393.41
3332.88
3273.82
3216.2
3160
3105.2
3051.73
2999.63
2948.77
2899.27
2850.85
2803.86
2757.73
2713.18
2669.09
2627.02
2584.62
2545.19
2503.95
2467.6
2426.56
2394.55
2351.47
2328.03
2270.03
27380.2
24297.4
21850.6
19986
18566.7
17466.3
16584.9
15865.3
15262.5
14748.9
14302.4
13905.7
13545
13215.1
12906.8
12603.6
12304.9
12010.9
11723.5
11443.5
11171.4
10907.2
10651.3
10403.6
10164.3
9933.24
9710.18
9494.86
9286.85
9085.83
8891.11
8702.7
8519.34
8341.04
8167.63
7998.15
7832.33
7670.06
7511.09
7355.69
7203.23
7054
6908.08
6765.67
6626.68
6491.24
6359.23
6230.69
6105.52
5983.72
5865.17
5749.83
5637.59
5528.37
5422.09
5318.66
5218
5120.02
5024.61
4931.71
4841.23
4753.08
4667.17
4583.42
4501.73
4422.02
4344.21
4268.22
4193.96
4121.39
4050.41
3981
3913.09
3846.65
3781.6
3718.01
3655.88
3595.11
3535.69
3477.55
3420.72
3365.09
3310.74
3257.5
3205.58
3154.6
3105.06
3056.18
3009.01
2962.01
2917.27
2871.81
2829.74
2785.24
2746.36
2701.85
2667.57
2620.71
2595.53
2532.15
11596.5
10090
8970.33
8136.07
7501.06
7012.36
6629.54
6329.87
6092.85
5910.78
5769.66
5661.3
5580.19
5527.28
5481.19
5475.66
5484.15
5506.02
5543.8
5590.18
5641.02
5693.25
5745.16
5795.63
5843.49
5887.81
5927.69
5962.54
5991.9
6015.24
6032.24
6043.07
6042.83
6037.71
6025.69
6002.91
5972.99
5937.01
5895.76
5850.2
5800.91
5748.67
5693.8
5637.08
5578.5
5518.9
5457.99
5396.58
5334.45
5272.07
5209.33
5146.56
5083.68
5020.75
4957.86
4894.95
4832.31
4769.68
4707.32
4645.39
4583.87
4522.81
4462.26
4402.25
4342.81
4283.94
4225.64
4167.92
4110.77
4054.22
3998.25
3942.89
3888.13
3833.99
3780.5
3727.6
3675.37
3623.78
3572.92
3522.74
3473.34
3424.61
3376.73
3329.48
3283.19
3237.39
3192.73
3148.29
3105.36
3062.13
3021.07
2978.77
2939.89
2898.02
2861.86
2819.58
2787.51
2742.81
2719.09
2658.05
4979
4403.3
3929.71
3545.87
3229.27
2966.95
2747.07
2561.65
2404.64
2272.17
2160.72
2067.15
1988.24
1924.32
1871.04
1829.63
1798.73
1778.2
1766.45
1767.81
1771.73
1785.26
1804.46
1832.32
1867.27
1908.37
1955.37
2008.27
2065.4
2127.13
2191.33
2259.76
2329.02
2402.43
2479.77
2559.94
2641.39
2723.2
2804.16
2883.52
2960.34
3034.06
3104.02
3169.85
3231.12
3287.65
3339.22
3385.83
3427.36
3464.19
3495.68
3522.89
3544.37
3560.72
3572.5
3579.9
3584.46
3582.85
3580.95
3576.17
3568.87
3559.45
3548.1
3535.02
3520.29
3504.06
3486.39
3467.41
3447.17
3425.81
3403.35
3379.95
3355.57
3330.37
3304.35
3277.62
3250.28
3222.33
3193.99
3165.16
3136.1
3106.69
3077.15
3047.39
3017.72
2987.74
2958.13
2928.04
2898.75
2868.55
2839.83
2809.42
2781.64
2750.74
2724.37
2692.47
2668.59
2634.42
2616.53
2568.69
2602.89
2309.01
2055.37
1841.62
1657.32
1497.94
1357.72
1236.94
1131.9
1040.95
961.617
891.365
829.512
775.221
727.851
686.401
650.589
619.265
592.534
569.451
550.566
534.018
521.4
510.476
503.552
497.855
497.052
498.515
500.767
506.198
514.458
525.799
539.921
557.086
577.071
600.248
626.241
655.552
687.586
722.878
760.757
801.771
845.201
891.448
939.874
990.649
1043.32
1097.71
1153.7
1210.64
1268.94
1327.43
1387.26
1448.1
1509.3
1570.44
1631.12
1690.79
1748.94
1805.36
1859.56
1911.44
1960.58
2007.01
2050.39
2090.83
2128.07
2162.3
2193.35
2221.38
2246.38
2268.45
2287.33
2303.47
2316.91
2327.96
2336.81
2343.59
2348.65
2351.82
2353.8
2353.82
2353.01
2351.26
2348.01
2343.79
2338.68
2332.6
2325.94
2318.18
2310.28
2300.91
2292.08
2281.13
2271.64
2258.99
2249.57
2234.84
2226.99
2204.32
1532.9
1343.92
1176.36
1031.09
906.286
799.153
707.675
629.627
562.768
505.689
456.262
415.017
380.138
350.289
324.576
302.216
282.711
265.531
250.417
236.964
225.058
214.386
204.914
196.393
188.831
182.045
176.058
170.714
166.087
161.977
158.549
155.564
153.287
151.383
150.248
149.414
149.555
150.154
151.049
152.871
155.226
158.605
162.534
167.586
173.292
180.278
188.036
197.242
207.36
219.081
231.866
246.495
262.344
280.305
299.61
321.183
344.093
369.371
395.903
424.794
454.798
487.055
520.22
555.443
591.281
628.905
666.769
706.089
745.216
785.478
825.104
865.546
905.354
945.732
984.971
1024.38
1062.21
1099.9
1135.62
1171.02
1204.11
1236.79
1266.87
1296.57
1323.47
1350.03
1373.65
1397.08
1417.44
1437.84
1455.01
1472.5
1486.61
1501.37
1512.34
1524.62
1532.43
1542.99
1548.37
1558.19
688.916
587.278
507.095
443.953
393.4
352.108
317.783
288.837
264.117
242.797
224.225
207.946
193.593
180.883
169.573
159.475
150.415
142.268
134.9
128.23
122.15
116.616
111.538
106.898
102.613
98.6889
95.0456
91.7061
88.5893
85.7331
83.0562
80.606
78.3045
76.2007
74.2273
72.4267
70.7174
69.1696
67.7347
66.4371
65.2517
64.2012
63.2488
62.4356
61.6926
61.1214
60.5687
60.2659
59.9222
59.8999
60.0408
60.3589
60.6638
61.5196
62.1347
63.148
64.236
66.0347
67.6459
70.4393
72.8046
76.7129
80.125
85.2884
89.8909
96.4639
102.379
110.492
117.816
127.588
136.427
147.974
158.415
171.846
183.963
199.36
213.184
230.585
246.085
265.467
282.54
303.807
322.264
345.246
364.813
389.272
409.599
435.254
455.93
482.481
503.073
530.236
550.268
577.86
597.159
625.049
643.081
671.214
684.463
724.472
273.897
256.543
239.506
223.14
207.597
193.079
179.695
167.464
156.353
146.292
137.196
128.975
121.542
114.812
108.706
103.156
98.0985
93.4783
89.2385
85.3467
81.7587
78.4538
75.3917
72.5624
69.9276
67.4864
65.2008
63.0784
61.0805
59.222
57.4627
55.8241
54.2643
52.8101
51.4184
50.1201
48.8714
47.707
46.5798
45.5313
44.5093
43.5631
42.6329
41.7778
40.9289
40.1558
39.3793
38.6806
37.9703
37.3399
36.6919
36.1292
35.5397
35.0429
34.5106
34.0771
33.6025
33.2326
32.8257
32.5231
32.1975
31.9673
31.7369
31.5899
31.4748
31.423
31.4421
31.5222
31.6634
31.9486
32.2223
32.7515
33.1785
34.0117
34.6326
35.8327
36.6956
38.3491
39.4904
41.7185
43.1956
46.1004
47.9803
51.6723
54.0293
58.6268
61.5172
67.1445
70.6114
77.376
81.4595
89.4631
94.1863
103.495
108.929
119.452
125.995
137.458
142.703
163.018
170.468
159.826
149.657
140.06
131.243
123.186
115.861
109.2
103.152
97.6455
92.6342
88.0562
83.8733
80.0355
76.5129
73.2661
70.2717
67.4995
64.9393
62.5621
60.3559
58.2974
56.3784
54.5802
52.8968
51.3134
49.8254
48.421
47.0964
45.8423
44.655
43.5281
42.4569
41.4381
40.4657
39.5397
38.652
37.8063
36.9921
36.2164
35.4663
34.7523
34.0586
33.3994
32.7559
32.1459
31.547
30.981
30.4219
29.8951
29.3715
28.8799
28.3881
27.9279
27.465
27.033
26.5958
26.1893
25.7749
25.3917
24.9983
24.6407
24.2706
23.9399
23.5942
23.2908
22.967
22.6905
22.388
22.1395
21.8585
21.6372
21.378
21.181
20.9444
20.7695
20.5562
20.4039
20.2214
20.0933
19.9519
19.8508
19.7671
19.7026
19.6896
19.6948
19.7572
19.8223
19.9399
20.1195
20.2973
20.61
20.9154
21.3464
21.8956
22.4135
22.9711
23.4969
24.6038
25.9209
114.715
109.23
103.954
98.9103
94.1425
89.6545
85.4599
81.5384
77.8906
74.4883
71.3285
68.3809
65.6428
63.0842
60.7047
58.4757
56.3992
54.4485
52.6277
50.9114
49.3058
47.787
46.3633
45.0117
43.7423
42.5329
41.395
40.3072
39.2822
38.299
37.3715
36.4789
35.636
34.8222
34.0531
33.308
32.6036
31.9188
31.271
30.6392
30.0416
29.4566
28.9033
28.3598
27.846
27.3396
26.8611
26.3878
25.9412
25.4977
25.0798
24.6632
24.2713
23.879
23.5109
23.1405
22.794
22.4436
22.117
21.7847
21.4763
21.1605
20.8689
20.5682
20.2922
20.0053
19.7437
19.4695
19.2214
18.959
18.7235
18.4719
18.2483
18.0067
17.7945
17.5621
17.3607
17.1368
16.9458
16.7299
16.5489
16.3405
16.1695
15.9691
15.809
15.6171
15.4685
15.2849
15.1483
14.9729
14.8493
14.6821
14.5724
14.414
14.3202
14.1721
14.0875
13.9526
13.8892
13.7379
82.6603
79.5503
76.4726
73.4355
70.4839
67.6394
64.9296
62.3538
59.9254
57.6328
55.4832
53.4593
51.5661
49.784
48.1178
46.547
45.0778
43.6894
42.3894
41.1574
40.0024
38.9039
37.8729
36.8887
35.9638
35.0774
34.2434
33.4408
32.685
31.9547
31.2666
30.5989
29.9696
29.3563
28.7785
28.2128
27.6801
27.1561
26.6632
26.176
25.7183
25.2636
24.8371
24.4114
24.0129
23.613
23.2398
22.863
22.5125
22.1566
21.8269
21.49
21.1792
20.8594
20.566
20.2618
19.9844
19.6945
19.4319
19.155
18.906
18.6411
18.4048
18.1508
17.9263
17.6824
17.469
17.2343
17.0314
16.8052
16.612
16.3938
16.2099
15.999
15.8239
15.6197
15.453
15.255
15.0963
14.9039
14.753
14.5657
14.4222
14.2396
14.1032
13.9249
13.7955
13.6213
13.4986
13.3282
13.2123
13.0456
12.9361
12.7731
12.6711
12.5131
12.419
12.2669
12.1621
11.989
63.6821
61.8006
59.9058
57.999
56.117
54.2757
52.5004
50.7905
49.1608
47.6034
46.1284
44.7237
43.3975
42.1355
40.9453
39.8118
38.7428
37.7226
36.7599
35.8386
34.9685
34.1331
33.3435
32.5828
31.8631
31.1674
30.5088
29.8696
29.2644
28.6748
28.1166
27.5705
27.0537
26.5461
26.0659
25.5924
25.1449
24.7018
24.2836
23.8676
23.4758
23.0843
22.7163
22.3468
22.0006
21.6511
21.3246
20.9933
20.6849
20.3702
20.0785
19.779
19.5027
19.2171
18.9551
18.6824
18.4337
18.1728
17.9365
17.6865
17.4619
17.222
17.0083
16.7778
16.5743
16.3525
16.1586
15.9449
15.7601
15.5537
15.3775
15.1781
15.01
14.817
14.6566
14.4695
14.3166
14.135
13.9891
13.8126
13.6735
13.5018
13.3692
13.2019
13.0756
12.9123
12.7922
12.6326
12.5183
12.3621
12.2536
12.1007
11.9977
11.8472
11.7496
11.6028
11.5124
11.3687
11.2709
11.1093
52.2661
51.0328
49.7737
48.4828
47.1898
45.9043
44.6495
43.4234
42.2419
41.098
40.0043
38.9502
37.9469
36.9817
36.0649
35.1829
34.3459
33.5396
32.7747
32.0363
31.3356
30.6573
30.0137
29.3888
28.7957
28.2181
27.6699
27.1343
26.626
26.1277
25.6551
25.1901
24.7495
24.3143
23.9024
23.4939
23.1078
22.7234
22.3607
21.998
21.6565
21.3135
20.9914
20.6662
20.3618
20.053
19.7649
19.471
19.1979
18.9177
18.6585
18.3909
18.1446
17.8886
17.6544
17.4092
17.1862
16.951
16.7385
16.5126
16.3101
16.0928
15.8996
15.6903
15.5059
15.304
15.128
14.933
14.7649
14.5763
14.4157
14.233
14.0795
13.9024
13.7557
13.5838
13.4436
13.2765
13.1425
12.9799
12.852
12.6935
12.5714
12.4167
12.3002
12.1492
12.0381
11.8904
11.7846
11.6399
11.5393
11.3974
11.3017
11.1622
11.0716
10.9347
10.8469
10.7136
10.6542
10.4491
45.3132
44.4234
43.5079
42.5572
41.5958
40.6288
39.677
38.7368
37.8238
36.9306
36.0705
35.2335
34.4315
33.6529
32.9091
32.1871
31.4986
30.8297
30.1924
29.5723
28.9817
28.4058
27.8575
27.3216
26.8115
26.3115
25.8359
25.3682
24.9236
24.4851
24.0686
23.6564
23.2654
22.877
22.509
22.1423
21.7954
21.4483
21.1208
20.7916
20.4817
20.169
19.8754
19.5778
19.2992
19.0155
18.7509
18.4799
18.2283
17.9691
17.7296
17.4814
17.2532
17.0153
16.7977
16.5692
16.3616
16.1419
15.9437
15.7322
15.543
15.3391
15.1582
14.9616
14.7887
14.5987
14.4333
14.2496
14.0914
13.9135
13.7621
13.5897
13.4449
13.2775
13.139
12.9763
12.8439
12.6857
12.559
12.4049
12.2839
12.1336
12.018
11.8713
11.7609
11.6175
11.5122
11.3719
11.2716
11.1341
11.0385
10.9037
10.8128
10.6802
10.5941
10.4639
10.3804
10.2534
10.197
10.0021
40.9319
40.2256
39.4976
38.7362
37.9625
37.1782
36.402
35.6292
34.8745
34.1302
33.4098
32.7033
32.0232
31.3581
30.7202
30.0968
29.5002
28.9169
28.3596
27.814
27.2933
26.7825
26.2955
25.8166
25.3604
24.9108
24.4827
24.0597
23.6574
23.2586
22.8798
22.5031
22.1459
21.7894
21.452
21.114
20.7947
20.4737
20.1712
19.8658
19.5788
19.2878
19.0151
18.7373
18.4779
18.2125
17.9655
17.7115
17.4762
17.2327
17.0083
16.7747
16.5605
16.3361
16.1315
15.9157
15.7202
15.5124
15.3255
15.1252
14.9464
14.7532
14.5821
14.3954
14.2317
14.0511
13.8944
13.7196
13.5695
13.4001
13.2564
13.092
12.9544
12.7947
12.6629
12.5077
12.3815
12.2304
12.1097
11.9624
11.8469
11.7032
11.5928
11.4525
11.347
11.2098
11.1091
10.9748
10.8788
10.7471
10.6556
10.5264
10.4394
10.3121
10.2293
10.105
10.0282
9.90637
9.82314
9.68608
38.0242
37.4208
36.7994
36.1483
35.4856
34.8113
34.1419
33.4723
32.8163
32.166
31.5346
30.9123
30.3115
29.721
29.1531
28.5955
28.0608
27.5355
27.0327
26.5383
26.0657
25.6001
25.1557
24.7169
24.2986
23.8846
23.4903
23.099
22.727
22.3566
22.005
21.6538
21.3211
20.9876
20.6723
20.3551
20.056
19.7538
19.4696
19.1815
18.9112
18.6359
18.3786
18.1152
17.87
17.6178
17.3839
17.1421
16.9188
16.6867
16.4734
16.2503
16.0465
15.8318
15.6369
15.4302
15.2437
15.0444
14.8659
14.6735
14.5027
14.3168
14.1532
13.9734
13.8167
13.6427
13.4926
13.324
13.1801
13.0165
12.8787
12.7199
12.5878
12.4334
12.3069
12.1567
12.0356
11.8893
11.7733
11.6306
11.5196
11.3804
11.2742
11.1381
11.0367
10.9036
10.8067
10.6764
10.5839
10.4562
10.368
10.2427
10.1588
10.0354
9.95582
9.83468
9.75754
9.63932
9.5869
9.40617
36.0028
35.4605
34.9034
34.3203
33.7271
33.1228
32.5221
31.9196
31.3282
30.7404
30.1682
29.6026
29.0553
28.5158
27.9959
27.4839
26.9919
26.5072
26.0425
25.5842
25.1456
24.7123
24.2981
23.8881
23.4969
23.1086
22.7387
22.3705
22.0203
21.6707
21.3388
21.0065
20.6916
20.3752
20.0761
19.7744
19.49
19.2021
18.9314
18.6561
18.3982
18.1348
17.8889
17.6364
17.4018
17.1596
16.9355
16.703
16.4888
16.2652
16.0604
15.8453
15.6493
15.4422
15.2546
15.0548
14.8752
14.6824
14.5104
14.3242
14.1594
13.9793
13.8214
13.6471
13.4958
13.3269
13.1818
13.0181
12.879
12.7201
12.5868
12.4323
12.3046
12.1544
12.0319
11.8857
11.7684
11.6259
11.5135
11.3746
11.267
11.1313
11.0284
10.8958
10.7974
10.6677
10.5736
10.4466
10.3568
10.2322
10.1466
10.0244
9.94281
9.82246
9.7447
9.62722
9.55504
9.4397
9.36137
9.23204
34.5516
34.0475
33.5309
32.9916
32.444
31.886
31.3313
30.7743
30.227
29.6821
29.1509
28.6248
28.115
27.6114
27.1254
26.6458
26.1843
25.7288
25.2915
24.8594
24.4454
24.0356
23.6436
23.2548
22.8834
22.5143
22.1623
21.8114
21.4774
21.1435
20.8263
20.5081
20.2067
19.9031
19.6163
19.3264
19.0532
18.776
18.5156
18.2502
18.0018
17.7474
17.5103
17.2662
17.0397
16.8052
16.5887
16.3632
16.1561
15.9391
15.741
15.5319
15.3422
15.1406
14.959
14.7643
14.5904
14.4023
14.2357
14.0538
13.8942
13.7181
13.5651
13.3945
13.2479
13.0825
12.942
12.7813
12.6467
12.4906
12.3616
12.2098
12.0862
11.9383
11.8201
11.6759
11.5627
11.422
11.3137
11.1763
11.0728
10.9385
10.8396
10.708
10.6137
10.4848
10.3949
10.2684
10.1828
10.0586
9.97722
9.85494
9.77789
9.65748
9.58389
9.46551
9.3983
9.27973
9.22836
9.05562
33.4764
32.9965
32.5059
31.9956
31.4786
30.9524
30.4294
29.9041
29.3876
28.873
28.371
27.8733
27.3905
26.9131
26.4517
25.996
25.5569
25.1232
24.7061
24.2938
23.8981
23.5062
23.1308
22.7582
22.4019
22.0475
21.7091
21.3716
21.05
20.7283
20.4224
20.1154
19.8242
19.5309
19.2534
18.9729
18.7084
18.4398
18.1873
17.9299
17.6887
17.4417
17.2113
16.9741
16.7537
16.5256
16.3148
16.0953
15.8935
15.682
15.4888
15.2849
15.0999
14.9031
14.7258
14.5357
14.3658
14.182
14.0191
13.8413
13.6852
13.5129
13.3633
13.1963
13.0528
12.8908
12.7532
12.5958
12.464
12.311
12.1846
12.0357
11.9146
11.7696
11.6536
11.5121
11.4011
11.2631
11.1569
11.0219
10.9204
10.7884
10.6914
10.5622
10.4696
10.3429
10.2547
10.1303
10.0463
9.92417
9.84429
9.72409
9.6484
9.53001
9.45769
9.3413
9.27526
9.15866
9.10814
8.93821
32.6581
32.1937
31.7206
31.2299
30.7345
30.2306
29.7304
29.2279
28.7341
28.2417
27.7614
27.2848
26.8223
26.3645
25.922
25.4844
25.0626
24.6455
24.2442
23.8471
23.4658
23.0878
22.7255
22.3656
22.0212
21.6784
21.3509
21.024
20.7123
20.4003
20.1034
19.8053
19.5223
19.2372
18.9673
18.6943
18.4366
18.175
17.9288
17.6778
17.4425
17.2015
16.9763
16.7447
16.5292
16.3063
16.1
15.8853
15.6877
15.4808
15.2914
15.0918
14.9103
14.7175
14.5435
14.3572
14.1903
14.0101
13.8501
13.6756
13.5221
13.3531
13.2059
13.0419
12.9007
12.7416
12.6062
12.4515
12.3217
12.1713
12.0468
11.9004
11.7811
11.6384
11.5242
11.385
11.2756
11.1397
11.035
10.9021
10.802
10.672
10.5764
10.4491
10.3578
10.2329
10.1459
10.0233
9.94048
9.82004
9.74125
9.62271
9.54805
9.43127
9.35997
9.24511
9.17996
9.06495
9.01512
8.84765
32.0241
31.5698
31.1086
30.6317
30.1517
29.6641
29.1809
28.6953
28.2187
27.7431
27.2796
26.819
26.3725
25.9299
25.5022
25.0788
24.6708
24.2667
23.8782
23.493
23.1233
22.7564
22.4047
22.0549
21.7202
21.3866
21.0679
20.7494
20.4458
20.1415
19.852
19.561
19.2847
19.0061
18.7423
18.4753
18.2232
17.967
17.726
17.4801
17.2495
17.0131
16.7923
16.5649
16.3535
16.1345
15.9319
15.7209
15.5268
15.3233
15.1371
14.9406
14.7621
14.5723
14.401
14.2175
14.0532
13.8757
13.718
13.546
13.3948
13.2281
13.083
12.9212
12.782
12.6249
12.4913
12.3387
12.2106
12.062
11.9392
11.7946
11.6768
11.5358
11.423
11.2854
11.1774
11.043
10.9396
10.8083
10.7094
10.5808
10.4863
10.3604
10.2702
10.1467
10.0607
9.93944
9.85756
9.73835
9.6605
9.54315
9.46939
9.35377
9.28332
9.16953
9.10517
8.99123
8.94189
8.77632
31.5338
31.0859
30.6325
30.1653
29.6967
29.2212
28.7508
28.2782
27.8149
27.3524
26.902
26.4541
26.0201
25.5896
25.1738
24.7616
24.3646
23.971
23.5926
23.217
22.8566
22.4984
22.1552
21.8133
21.4864
21.16
20.8483
20.5364
20.2392
19.9409
19.6571
19.3715
19.1005
18.8268
18.5678
18.3053
18.0575
17.8055
17.5684
17.3263
17.0992
16.8663
16.6489
16.4247
16.2163
16.0003
15.8004
15.5922
15.4006
15.1996
15.0158
14.8217
14.6454
14.4578
14.2886
14.1071
13.9447
13.7691
13.6132
13.4431
13.2934
13.1285
12.9849
12.8248
12.687
12.5315
12.3992
12.2481
12.1212
11.9741
11.8525
11.7092
11.5925
11.4529
11.3411
11.2048
11.0977
10.9646
10.8621
10.732
10.6339
10.5065
10.4128
10.288
10.1986
10.0761
9.99085
9.87064
9.78942
9.67124
9.59405
9.47777
9.40438
9.28951
9.22065
9.10838
9.04327
8.93518
8.86269
8.74058
31.1726
30.7279
30.2792
29.8181
29.3573
28.8901
28.4289
27.9656
27.512
27.059
26.6182
26.1797
25.7549
25.3331
24.926
24.522
24.133
23.7467
23.3756
23.0068
22.653
22.3008
21.9635
21.6271
21.3054
20.9839
20.677
20.3695
20.0764
19.782
19.5021
19.22
18.9524
18.6819
18.426
18.1664
17.9214
17.6721
17.4375
17.1978
16.9731
16.7425
16.5271
16.3051
16.0986
15.8846
15.6866
15.4803
15.2903
15.0911
14.9088
14.7165
14.5415
14.3557
14.1877
14.0079
13.8467
13.6727
13.5179
13.3493
13.2007
13.0373
12.8946
12.736
12.5991
12.445
12.3136
12.1639
12.0378
11.8921
11.7711
11.6293
11.5132
11.375
11.2637
11.1288
11.0223
10.8905
10.7885
10.6597
10.5621
10.436
10.3427
10.2192
10.1301
10.0089
9.92399
9.805
9.72413
9.60714
9.53027
9.41515
9.34209
9.22834
9.1598
9.04865
8.98393
8.87701
8.80486
8.68361
30.9124
30.4684
30.0212
29.5632
29.1064
28.6442
28.1882
27.7305
27.2825
26.8352
26.4
25.9669
25.5473
25.1305
24.728
24.3283
23.9435
23.5611
23.1937
22.8281
22.4775
22.1282
21.7936
21.4596
21.1403
20.8209
20.5161
20.2104
19.9194
19.6267
19.3486
19.0682
18.8024
18.5336
18.2794
18.0214
17.7782
17.5305
17.2977
17.0597
16.8367
16.6078
16.3941
16.1737
15.9687
15.7563
15.5598
15.355
15.1665
14.969
14.788
14.5974
14.4238
14.2396
14.0729
13.895
13.7349
13.5628
13.4091
13.2424
13.0949
12.9334
12.7917
12.6351
12.499
12.347
12.2163
12.0687
11.9432
11.7997
11.6792
11.5396
11.4239
11.2879
11.1769
11.0444
10.9378
10.8086
10.7063
10.5802
10.4822
10.3589
10.265
10.1444
10.0545
9.93638
9.85039
9.73463
9.65246
9.53888
9.46044
9.34891
9.27413
9.1643
9.09329
8.98545
8.91651
8.81124
8.76455
8.60308
30.6981
30.2538
29.8071
29.3505
28.8954
28.4352
27.9809
27.5249
27.0779
26.6315
26.1964
25.7636
25.3436
24.9267
24.5236
24.124
23.7385
23.3565
22.9886
22.6221
22.2704
21.92
21.5847
21.2502
20.931
20.612
20.3081
20.0037
19.7144
19.4238
19.1482
18.8704
18.6076
18.3418
18.091
17.8364
17.5968
17.3526
17.1235
16.889
16.6699
16.4444
16.2347
16.0179
15.8171
15.6083
15.4159
15.2147
15.0301
14.836
14.6589
14.4714
14.3014
14.1202
13.957
13.7817
13.625
13.4553
13.3048
13.1403
12.9957
12.8362
12.6974
12.5426
12.4092
12.2588
12.1307
11.9845
11.8614
11.7193
11.6011
11.4626
11.3491
11.2143
11.1053
10.9738
10.8692
10.7408
10.6405
10.5151
10.4189
10.2963
10.2042
10.0842
9.996
9.8785
9.79408
9.6789
9.59819
9.48517
9.40808
9.29715
9.22359
9.11427
9.04406
8.93731
8.87199
8.76718
8.69615
8.57859
30.5426
30.0908
29.6335
29.1628
28.6923
28.215
27.7442
27.2714
26.81
26.3502
25.9049
25.4632
25.0379
24.6169
24.2133
23.8137
23.4316
23.0528
22.6916
22.3343
21.9937
21.6555
21.3331
21.0118
20.7057
20.3996
20.1082
19.8158
19.538
19.2581
18.9928
18.7245
18.4706
18.2131
17.9701
17.7226
17.4897
17.2516
17.0284
16.7991
16.585
16.364
16.1585
15.9454
15.7482
15.5425
15.3531
15.1544
14.9725
14.7805
14.6058
14.4201
14.2522
14.0725
13.9111
13.7371
13.5821
13.4134
13.2645
13.1009
12.9578
12.799
12.6615
12.5073
12.3752
12.2253
12.0984
11.9525
11.8307
11.6887
11.5718
11.4333
11.3212
11.1861
11.0785
10.9467
10.8436
10.7148
10.616
10.49
10.3954
10.272
10.1816
10.0607
9.9743
9.85567
9.77324
9.65673
9.57818
9.46362
9.38888
9.27607
9.2052
9.09402
9.02626
8.91685
8.85491
8.74527
8.6978
8.53848
30.0094
29.5371
29.0726
28.6074
28.1519
27.6976
27.255
26.8148
26.3877
25.9638
25.5537
25.1469
24.7544
24.3649
23.9898
23.6172
23.259
22.9027
22.5605
22.2196
21.8927
21.5663
21.2538
20.9411
20.6423
20.3423
20.0564
19.7686
19.4947
19.2184
18.956
18.6904
18.439
18.1835
17.9424
17.6966
17.4653
17.2285
17.0066
16.7784
16.5653
16.3453
16.1408
15.9285
15.732
15.527
15.3383
15.1402
14.9589
14.7674
14.5932
14.4079
14.2405
14.0612
13.9003
13.7266
13.5719
13.4035
13.2549
13.0916
12.9488
12.7902
12.653
12.499
12.3672
12.2174
12.0908
11.9451
11.8235
11.6816
11.5649
11.4265
11.3145
11.1796
11.0722
10.9404
10.8375
10.7087
10.6101
10.4841
10.3897
10.2664
10.1761
10.0552
9.96896
9.85036
9.76805
9.65158
9.57314
9.45863
9.38397
9.27125
9.20045
9.0894
9.02172
8.9125
8.85067
8.74134
8.69403
8.53505
54.5501
58.5563
61.5277
66.7523
73.5067
80.4882
95.2127
112.996
147.716
282.222
48.7608
50.105
53.0103
55.818
60.6386
66.6716
73.5453
87.2668
100.556
179.205
44.6414
45.9895
46.7941
49.3915
51.1488
56.3566
59.753
69.6869
76.5005
119.165
42.2802
43.1521
43.5733
45.1639
46.0755
49.1815
51.1557
57.4057
61.4672
84.9677
40.3218
40.8818
41.146
42.181
42.7278
44.6038
45.751
49.4481
51.8624
64.9023
38.8689
39.1827
39.3248
39.9739
40.3068
41.4803
42.1619
44.355
45.761
53.0069
37.7308
37.8775
37.9296
38.3097
38.496
39.2235
39.6284
40.9559
41.7729
45.8422
36.8409
36.8507
36.8464
37.0256
37.1132
37.5329
37.7629
38.5603
39.0339
41.372
36.1453
36.0544
35.9998
36.0298
36.0435
36.2421
36.3519
36.7982
37.0599
38.4328
35.5925
35.4465
35.3205
35.2541
35.2139
35.2535
35.2774
35.479
35.6006
36.4045
35.1422
34.9628
34.779
34.6586
34.5395
34.4794
34.4431
34.4758
34.5019
34.9479
34.7962
34.5604
34.3604
34.1702
34.0201
33.8757
33.7739
33.692
33.6505
33.8566
34.5118
34.2559
34.0124
33.8038
33.587
33.426
33.2281
33.1226
32.937
33.0284
34.2787
34.0273
33.7312
33.5232
33.2444
33.0738
32.8076
32.6722
32.3774
32.3887
34.0972
33.8511
33.5134
33.3047
32.98
32.799
32.4827
32.3235
31.992
31.8958
33.9582
33.7244
33.3482
33.1442
32.7816
32.5936
32.2407
32.0595
31.7187
31.5346
33.864
33.6116
33.2375
33.0042
32.6496
32.4207
32.0795
31.8462
31.5168
31.2765
33.7945
33.5058
33.1495
32.877
32.5389
32.27
31.9408
31.6682
31.3429
31.065
33.7627
33.4513
33.1001
32.8037
32.4684
32.1755
31.8457
31.5493
31.2194
30.9171
33.5449
33.182
32.8082
32.4655
32.1055
31.7739
31.4192
31.0923
30.7379
30.4123
53.9542
59.807
69.1811
85.3581
115.431
175.609
330.852
888.587
5132.45
3167.88
54.4244
60.231
70.5157
86.3991
115.429
178.5
349.139
921.605
5488.7
3219.94
54.4464
60.0066
71.2003
89.5316
123.769
192.402
377.131
989.158
5872.35
3267.49
55.0605
60.6377
71.6341
89.4257
123.73
195.805
396.052
1044.9
6298.31
3305.45
55.0062
60.5438
73.1736
94.0824
134.463
216.062
445.03
1131.03
6705.18
3330.93
56.3411
62.166
73.2991
94.268
135.207
219.349
464.104
1236.32
7167.29
3345.14
56.4994
62.72
76.8873
100.937
150.334
249.896
544.477
1346.69
7583.76
3331.08
58.7889
65.3699
77.905
102.785
154.082
255.883
568.705
1534.38
7990.48
3311.04
59.4299
66.8618
83.9574
113.642
176.172
303.2
691.642
1800.27
8144.68
3299.46
63.1026
70.9557
86.5715
118.353
185.198
321.623
741.904
2321.28
8063.27
3275.39
54.8803
62.2397
72.3271
80.7929
118.577
131.048
365.612
638.035
3523.61
2701.91
55.6636
60.3301
70.9298
81.286
91.586
161.347
204.617
764.965
3108.62
2660.67
55.6801
60.4485
70.7305
80.488
93.9289
154.09
219.737
728.319
3134.6
2662
55.2713
60.4782
70.1992
80.4894
98.1721
150.914
245.248
719.373
3289.81
2683.17
55.1581
60.2536
69.6622
81.0964
101.668
151.27
262.275
726.506
3490.93
2758.9
54.8476
60.1596
69.1023
81.5014
103.192
153.564
273.832
750.116
3676.21
2802.54
54.5501
59.8029
69.3051
81.4895
104.225
156.018
283.778
765.193
3949.17
2898.89
54.1746
59.6092
68.796
83.3333
106.431
157.104
293
796.422
4165.53
2942.3
53.7592
59.2198
68.552
83.1695
109.511
163.69
301.263
816.212
4495.01
3037.57
53.6849
59.3499
68.6811
84.2078
110
165.784
315.621
845.275
4770.14
3086.68
13886.2
10422.4
8079.86
6429.74
5227.73
4327.31
3636.69
3096.2
2665.77
2317.75
2032.58
1796.15
1598.05
1430.51
1287.59
1164.76
1058.43
965.819
884.671
813.19
749.909
693.632
643.369
598.3
557.738
521.107
487.918
457.757
430.267
405.147
382.131
360.995
341.539
323.592
307.002
291.638
277.38
264.129
251.789
240.283
229.534
219.48
210.061
201.227
192.929
185.126
177.778
170.853
164.315
158.142
152.301
146.774
141.535
136.568
131.85
127.37
123.107
119.053
115.188
111.508
107.993
104.642
101.436
98.3759
95.4432
92.6423
89.9528
87.3825
84.91
82.5458
80.2677
78.0886
75.9853
73.9729
72.0274
70.166
68.3635
66.6398
64.9677
63.3704
61.8185
60.3386
58.8988
57.5297
56.1969
54.9356
53.709
52.5578
51.4431
50.4118
49.4221
48.5433
47.7465
47.0969
46.5776
46.3053
46.5098
47.0167
49.1717
52.7184
13884.6
10419.5
8076.64
6426.51
5224.66
4324.45
3634.07
3093.81
2663.59
2315.76
2030.77
1794.49
1596.53
1429.1
1286.3
1163.56
1057.33
964.794
883.719
812.302
749.081
692.857