/*--------------------------------*- C++ -*----------------------------------*\
  =========                 |
  \\      /  F ield         | OpenFOAM: The Open Source CFD Toolbox
   \\    /   O peration     | Website:  https://openfoam.org
    \\  /    A nd           | Version:  8
     \\/     M anipulation  |
\*---------------------------------------------------------------------------*/
FoamFile
{
    version     2.0;
    format      ascii;
    class       volScalarField;
    location    "0.999962";
    object      k;
}
// * * * * * * * * * * * * * * * * * * * * * * * * * * * * * * * * * * * * * //

dimensions      [0 2 -2 0 0 0 0];

internalField   nonuniform List<scalar> 
6800
(
56.7195
124.866
116.307
101.902
88.9872
67.9996
47.1317
28.8526
19.0538
15.0524
43.8748
95.7868
98.0234
92.4392
74.5167
48.7402
29.3136
19.8727
14.3039
10.8151
44.4152
87.5953
91.5514
82.1134
56.4162
33.614
22.1291
15.1831
10.2591
7.71065
45.6608
82.1075
86.0458
72.5665
42.9226
26.2558
16.2136
10.9007
7.9958
6.57241
46.0003
80.1367
82.5084
59.5755
32.5144
18.9643
12.548
9.31912
7.07172
5.57994
46.6973
81.2301
79.1244
47.5888
25.6894
16.3528
11.0208
7.72694
5.80838
4.94963
46.8884
85.0179
74.0555
37.1343
21.1376
12.9638
8.85464
6.68619
5.4008
4.72514
47.3288
89.0209
65.1883
31.2718
17.9415
11.8675
8.21548
6.1951
4.86865
4.31629
47.4695
93.3426
56.467
27.2552
15.7843
9.98476
7.03346
5.49778
4.61906
4.19847
47.8331
96.3829
48.5491
23.7691
13.5905
9.46372
6.71725
5.30472
4.37058
3.94686
344.309
448.138
466.527
478.441
499.138
527.88
558.476
584.825
599.277
603.482
313.951
430.35
455.96
479.453
513.066
554.915
596.712
630.577
650.683
656.73
268.257
386.344
436.688
481.65
536.142
591.802
632.835
656.775
667.538
661.467
248.951
352.042
424.791
495.879
568.519
613.7
629.929
620.541
598.672
543.824
265.582
355.946
447.225
542.108
593.558
592.554
569.301
509.907
457.595
346.421
273.48
386.327
517.783
583.67
571.436
517.825
437.397
320.961
249.223
159.164
262.708
447.158
571.108
545.777
462.124
328.035
220.226
149.061
119.895
81.4208
252.943
489.678
490.583
378.941
233.074
160.493
119.489
88.5092
75.2006
52.3486
245.739
388.32
306.908
189.596
135.955
105.944
82.8929
65.3392
55.4552
35.597
154.936
185.027
152.721
119.836
101.096
84.1435
65.6665
50.9127
32.7529
20.7418
594.523
563.428
529.939
498.123
469.843
445.253
423.846
405.205
388.848
374.349
361.382
349.698
339.097
329.42
320.535
312.331
304.716
297.612
290.955
284.692
278.779
273.18
267.865
262.81
257.995
253.402
249.015
244.822
240.809
236.962
233.27
229.724
226.315
223.033
219.87
216.817
213.867
211.011
208.243
205.557
202.949
200.412
197.945
195.543
193.204
190.926
188.706
186.543
184.435
182.38
180.378
178.427
176.525
174.671
172.865
171.104
169.388
167.715
166.085
164.497
162.949
161.44
159.968
158.533
157.133
155.765
154.429
153.122
151.843
150.589
149.36
148.153
146.967
145.8
144.652
143.521
142.408
141.31
140.229
139.163
138.112
137.077
136.058
135.055
134.067
133.095
132.14
131.199
130.277
129.367
128.478
127.595
126.744
125.878
125.076
124.207
123.481
122.564
121.96
120.816
648.806
615.268
578.029
543.703
513.286
486.489
462.992
442.353
424.12
407.922
393.437
380.393
368.568
357.781
347.877
338.731
330.236
322.305
314.865
307.859
301.24
294.968
289.012
283.347
277.95
272.801
267.886
263.189
258.691
254.374
250.233
246.26
242.443
238.772
235.235
231.823
228.524
225.332
222.237
219.234
216.317
213.482
210.724
208.04
205.428
202.884
200.407
197.994
195.646
193.36
191.133
188.963
186.85
184.791
182.785
180.83
178.926
177.071
175.264
173.503
171.787
170.115
168.484
166.894
165.342
163.826
162.345
160.896
159.478
158.089
156.726
155.389
154.076
152.785
151.516
150.267
149.038
147.829
146.637
145.465
144.311
143.174
142.056
140.957
139.875
138.811
137.766
136.739
135.73
134.736
133.766
132.802
131.874
130.93
130.055
129.109
128.318
127.319
126.666
125.419
655.728
628.996
593.733
561.17
532.116
506.211
483.225
462.822
444.691
428.531
414.058
401.013
389.182
378.382
368.455
359.268
350.71
342.693
335.147
328.015
321.253
314.826
308.705
302.867
297.293
291.968
286.88
282.005
277.354
272.917
268.669
264.587
260.656
256.862
253.191
249.634
246.179
242.82
239.55
236.362
233.254
230.222
227.264
224.377
221.558
218.807
216.122
213.5
210.94
208.44
206.001
203.622
201.302
199.039
196.832
194.681
192.583
190.538
188.544
186.599
184.703
182.853
181.047
179.285
177.563
175.881
174.234
172.62
171.039
169.489
167.968
166.475
165.008
163.566
162.148
160.752
159.379
158.027
156.696
155.387
154.098
152.83
151.582
150.356
149.15
147.964
146.799
145.653
144.529
143.421
142.34
141.265
140.231
139.178
138.204
137.148
136.268
135.156
134.43
133.04
531.924
513.39
491.978
471.751
453.627
437.313
422.577
409.364
397.528
386.923
377.378
368.714
360.807
353.533
346.766
340.408
334.378
328.626
323.114
317.817
312.717
307.802
303.062
298.491
294.084
289.836
285.741
281.796
277.982
274.289
270.718
267.259
263.903
260.638
257.456
254.349
251.307
248.328
245.405
242.537
239.722
236.957
234.24
231.575
228.958
226.394
223.879
221.416
219.003
216.642
214.33
212.068
209.855
207.689
205.57
203.497
201.47
199.486
197.546
195.647
193.79
191.972
190.192
188.449
186.741
185.065
183.425
181.816
180.235
178.681
177.152
175.646
174.162
172.698
171.254
169.83
168.424
167.037
165.669
164.32
162.989
161.677
160.384
159.111
157.855
156.62
155.403
154.205
153.028
151.864
150.728
149.595
148.505
147.389
146.361
145.238
144.309
143.124
142.352
140.875
323.554
303.07
287.329
275.98
268.102
262.784
259.153
256.777
255.238
254.394
253.956
253.753
253.755
253.792
253.67
253.356
252.818
252.127
251.306
250.378
249.364
248.28
247.144
245.97
244.771
243.555
242.33
241.095
239.858
238.607
237.349
236.07
234.761
233.419
232.038
230.616
229.154
227.655
226.125
224.568
222.988
221.396
219.789
218.18
216.563
214.954
213.341
211.741
210.149
208.568
206.998
205.439
203.892
202.358
200.838
199.332
197.841
196.366
194.907
193.464
192.039
190.63
189.238
187.861
186.5
185.152
183.817
182.493
181.18
179.878
178.586
177.303
176.029
174.765
173.508
172.261
171.023
169.795
168.576
167.368
166.171
164.986
163.812
162.651
161.502
160.368
159.246
158.137
157.044
155.96
154.899
153.835
152.812
151.757
150.789
149.719
148.841
147.708
146.97
145.561
147.623
137.233
129.217
123.258
118.84
115.693
113.503
112.119
111.429
111.489
111.808
112.492
113.78
115.157
117.063
119.389
122.024
124.917
127.967
131.109
134.296
137.481
140.643
143.756
146.804
149.76
152.621
155.364
157.987
160.46
162.802
164.897
166.766
168.418
169.857
171.113
172.203
173.145
173.953
174.643
175.222
175.708
176.098
176.419
176.648
176.835
176.917
176.999
176.989
176.938
176.824
176.653
176.431
176.164
175.853
175.502
175.113
174.691
174.238
173.758
173.253
172.726
172.177
171.609
171.021
170.416
169.791
169.15
168.491
167.817
167.124
166.419
165.696
164.961
164.211
163.451
162.679
161.899
161.111
160.318
159.517
158.713
157.904
157.096
156.283
155.473
154.662
153.853
153.047
152.24
151.443
150.636
149.855
149.04
148.292
147.451
146.764
145.862
145.272
144.148
76.8183
71.7452
67.3423
63.6769
60.5425
57.9019
55.6267
53.7186
52.1023
50.7783
49.7082
48.8577
48.2263
47.8126
47.4603
47.3888
47.483
47.6716
48.1123
48.7063
49.5185
50.4977
51.699
53.0691
54.6309
56.3765
58.2905
60.362
62.5724
64.9249
67.3832
70.0249
72.8263
75.7747
78.8154
81.93
85.0754
88.2357
91.3739
94.4783
97.519
100.489
103.364
106.142
108.806
111.355
113.783
116.078
118.266
120.291
122.166
123.891
125.477
126.94
128.287
129.535
130.685
131.754
132.747
133.666
134.516
135.303
136.027
136.692
137.296
137.845
138.335
138.774
139.155
139.487
139.76
139.991
140.162
140.297
140.374
140.422
140.417
140.39
140.328
140.227
140.093
139.937
139.751
139.549
139.319
139.079
138.812
138.539
138.241
137.938
137.615
137.283
136.941
136.577
136.227
135.825
135.487
135.031
134.719
134.131
49.5044
46.2365
43.2633
40.6393
38.236
36.0747
34.0619
32.2581
30.5712
29.0568
27.6349
26.3544
25.1479
24.064
23.1142
22.2644
21.5448
20.9076
20.3901
19.9244
19.5785
19.2601
19.0751
18.8997
18.8773
18.9195
18.9968
19.1628
19.4201
19.7733
20.22
20.7653
21.4091
22.1687
23.0296
24.0183
25.1075
26.3298
27.6499
29.1059
30.6559
32.3389
34.1087
36.0037
37.9743
40.0581
42.2026
44.4448
46.7287
49.1101
51.5626
54.084
56.6483
59.249
61.8586
64.4723
67.0647
69.631
72.1522
74.6229
77.0259
79.3611
81.6109
83.7803
85.8529
87.8394
89.7232
91.5212
93.2003
94.785
96.2566
97.6439
98.9274
100.14
101.26
102.321
103.301
104.232
105.092
105.913
106.665
107.387
108.043
108.677
109.245
109.801
110.289
110.773
111.186
111.605
111.946
112.303
112.576
112.874
113.081
113.329
113.476
113.677
113.781
113.959
33.2764
30.695
28.3012
26.0833
24.0817
22.2669
20.6538
19.2099
17.9314
16.7943
15.7817
14.8841
14.0745
13.3557
12.7251
12.1655
11.6695
11.2238
10.8269
10.467
10.1461
9.85314
9.59256
9.35478
9.14403
8.95365
8.78924
8.63895
8.5151
8.40247
8.31976
8.244
8.20305
8.16472
8.16626
8.18519
8.21582
8.28196
8.36377
8.49147
8.6342
8.82829
9.04158
9.31318
9.61061
9.97245
10.369
10.8353
11.3449
11.932
12.5713
13.3033
14.0957
14.9911
15.95
17.0189
18.1515
19.397
20.7032
22.1204
23.5927
25.1704
26.7932
28.5111
30.26
32.0905
33.9351
35.8458
37.7652
39.7485
41.7177
43.7332
45.7122
47.7203
49.6709
51.6375
53.528
55.4263
57.2324
59.0429
60.7469
62.4564
64.0462
65.6481
67.1156
68.6084
69.9509
71.3378
72.5547
73.8284
74.9079
76.0808
77.0267
78.1163
78.9271
79.9525
80.6364
81.6141
82.2118
83.2875
19.0655
17.3089
15.8062
14.5709
13.5382
12.6575
11.8942
11.2241
10.6305
10.0995
9.6205
9.18772
8.7944
8.43691
8.11047
7.81289
7.53992
7.2902
7.05983
6.84835
6.65202
6.4713
6.30251
6.1469
6.00075
5.86606
5.73892
5.62193
5.51096
5.40921
5.3123
5.22394
5.13963
5.06341
4.98944
4.92413
4.86079
4.80584
4.75114
4.70721
4.66087
4.62806
4.59039
4.56796
4.5406
4.5274
4.51276
4.50903
4.51453
4.52103
4.54944
4.57144
4.60794
4.65206
4.70293
4.78288
4.85947
4.98503
5.09505
5.27771
5.43842
5.68342
5.90518
6.22305
6.51461
6.91445
7.28306
7.77254
8.22442
8.81123
9.35388
10.046
10.6856
11.4891
12.2288
13.1471
13.9871
15.0209
15.9578
17.1041
18.1301
19.3821
20.4845
21.8319
22.9937
24.4229
25.6235
27.1196
28.3357
29.8967
31.1155
32.7256
33.9186
35.5663
36.6998
38.3697
39.415
41.0929
42.1382
44.0558
10.8068
10.3391
9.87706
9.4289
8.99928
8.59258
8.21063
7.85536
7.52529
7.22102
6.94132
6.68471
6.44819
6.23072
6.0294
5.84361
5.67072
5.51059
5.3608
5.22168
5.09091
4.96924
4.85428
4.74717
4.64544
4.55051
4.45986
4.37516
4.29381
4.21776
4.14426
4.07556
4.00875
3.94635
3.88532
3.82841
3.77235
3.72073
3.66948
3.62271
3.57562
3.53319
3.48984
3.45124
3.41137
3.3762
3.3395
3.3076
3.27374
3.24523
3.21407
3.18887
3.16051
3.13845
3.11289
3.09402
3.07187
3.05637
3.03841
3.02671
3.01388
3.00672
3.00018
2.99842
2.99979
3.00501
3.01239
3.03032
3.04468
3.07693
3.09987
3.14987
3.18371
3.25595
3.30329
3.40344
3.46747
3.60205
3.68675
3.86302
3.97236
4.1991
4.33689
4.62349
4.79402
5.14858
5.35651
5.78599
6.03487
6.54643
6.83889
7.43966
7.77746
8.47212
8.85879
9.63683
10.0778
10.9302
11.3166
12.7634
7.76254
7.46662
7.17788
6.89872
6.634
6.38409
6.1511
5.93351
5.73195
5.54431
5.37066
5.20882
5.0588
4.91865
4.78834
4.66622
4.55222
4.44499
4.34446
4.24954
4.1602
4.0756
3.9957
3.91988
3.84803
3.77976
3.71481
3.65304
3.59402
3.53782
3.48388
3.4325
3.38293
3.33572
3.28994
3.2464
3.20396
3.16367
3.12419
3.08681
3.04999
3.01523
2.98079
2.94842
2.91609
2.88589
2.85544
2.82718
2.79838
2.77187
2.74453
2.7196
2.69355
2.67006
2.64517
2.62297
2.59912
2.57807
2.55517
2.53521
2.51326
2.49439
2.47354
2.4558
2.43592
2.41959
2.40102
2.38632
2.3691
2.356
2.34014
2.32859
2.31405
2.30405
2.29092
2.2825
2.27111
2.26443
2.25545
2.25065
2.24511
2.24324
2.24248
2.24576
2.24788
2.25563
2.26206
2.27808
2.28931
2.3158
2.33363
2.3731
2.39772
2.45395
2.49233
2.56141
2.60062
2.70987
2.75543
2.95745
5.91692
5.74848
5.58269
5.41957
5.26175
5.10928
4.96395
4.82486
4.69329
4.5679
4.44977
4.33734
4.23162
4.13096
4.03637
3.94619
3.86146
3.78053
3.70446
3.63162
3.56311
3.49735
3.43542
3.3758
3.3196
3.26534
3.21412
3.16454
3.11769
3.07222
3.02921
2.98736
2.94774
2.90909
2.87245
2.83664
2.80263
2.76931
2.73763
2.70653
2.6769
2.64779
2.62
2.59265
2.56651
2.54076
2.5161
2.49181
2.4685
2.44553
2.42345
2.40168
2.38072
2.36004
2.34011
2.32043
2.30143
2.28267
2.26454
2.24662
2.22928
2.21214
2.19553
2.17911
2.16317
2.14741
2.1321
2.11695
2.10223
2.08765
2.07348
2.05943
2.04578
2.03222
2.01909
2.00597
1.99333
1.98064
1.9685
1.95621
1.94455
1.93269
1.92151
1.9102
1.8996
1.88887
1.87888
1.86878
1.85947
1.85006
1.84156
1.83289
1.82535
1.81748
1.81117
1.80417
1.79915
1.79297
1.78997
1.7851
4.74129
4.6375
4.53266
4.42637
4.32111
4.21723
4.11674
4.01912
3.92591
3.8361
3.75101
3.66933
3.59228
3.51839
3.44888
3.38213
3.31945
3.25911
3.20252
3.14787
3.09664
3.04698
3.00046
2.95515
2.91273
2.87122
2.83237
2.79417
2.75844
2.72312
2.69013
2.65735
2.62677
2.59623
2.56778
2.53921
2.51265
2.48582
2.46093
2.43564
2.41225
2.38832
2.36627
2.34357
2.32273
2.30114
2.28139
2.2608
2.24207
2.22239
2.20458
2.18574
2.16879
2.15071
2.13455
2.11718
2.10175
2.08501
2.07027
2.05413
2.04002
2.02442
2.01091
1.9958
1.98285
1.96819
1.95578
1.94153
1.92962
1.91575
1.90431
1.89079
1.8798
1.8666
1.85605
1.84314
1.83299
1.82035
1.8106
1.7982
1.78884
1.77666
1.76766
1.75568
1.74706
1.73526
1.727
1.71537
1.70747
1.69599
1.68846
1.67712
1.66995
1.65876
1.65196
1.64092
1.63435
1.62327
1.6184
1.60216
3.97186
3.90541
3.83719
3.76658
3.6957
3.62471
3.55539
3.48722
3.42159
3.35766
3.29663
3.23745
3.18124
3.12681
3.07527
3.02532
2.97811
2.93226
2.88898
2.84681
2.80704
2.76816
2.7315
2.69553
2.66165
2.62825
2.59682
2.5657
2.53646
2.50736
2.48007
2.45276
2.4272
2.40149
2.37749
2.35321
2.3306
2.3076
2.28625
2.26441
2.24421
2.22341
2.20424
2.18438
2.16617
2.14717
2.12982
2.11161
2.09507
2.07756
2.06176
2.04492
2.02981
2.01356
1.9991
1.98342
1.96955
1.95439
1.94109
1.9264
1.91364
1.8994
1.88714
1.87331
1.86153
1.84807
1.83674
1.82364
1.81273
1.79995
1.78945
1.77697
1.76686
1.75466
1.74491
1.73298
1.72359
1.71189
1.70284
1.69137
1.68265
1.67138
1.66299
1.65191
1.64383
1.63293
1.62516
1.61441
1.60694
1.59634
1.58916
1.5787
1.5718
1.56143
1.5548
1.54461
1.53839
1.52834
1.52151
1.51009
3.47404
3.42913
3.38248
3.33309
3.28293
3.23176
3.18135
3.13099
3.08216
3.0339
2.98757
2.94204
2.89862
2.85604
2.8156
2.77595
2.73839
2.7015
2.66663
2.63231
2.59989
2.56788
2.53769
2.50776
2.47957
2.4515
2.42511
2.39872
2.37394
2.34905
2.32573
2.30219
2.28018
2.25786
2.23705
2.21582
2.19609
2.17586
2.15712
2.1378
2.11996
2.10146
2.08446
2.06671
2.05047
2.03342
2.01789
2.00147
1.9866
1.97075
1.95649
1.94119
1.9275
1.9127
1.89955
1.8852
1.87256
1.85864
1.84648
1.83297
1.82126
1.80811
1.79684
1.78404
1.77317
1.7607
1.75021
1.73804
1.72793
1.71603
1.70627
1.69464
1.68522
1.67382
1.66473
1.65355
1.64477
1.63381
1.62534
1.61457
1.60639
1.5958
1.58791
1.57749
1.56988
1.55962
1.55228
1.54216
1.5351
1.5251
1.5183
1.50843
1.50189
1.49211
1.48583
1.47617
1.47001
1.46053
1.45631
1.44164
3.15256
3.11967
3.0853
3.04827
3.01036
2.97112
2.93225
2.89292
2.85459
2.81625
2.7793
2.74256
2.70741
2.67255
2.63935
2.60643
2.57519
2.54418
2.51482
2.48561
2.45802
2.43048
2.40452
2.37852
2.35406
2.32947
2.30637
2.28306
2.26121
2.23907
2.21836
2.19728
2.17762
2.1575
2.13879
2.11956
2.10173
2.0833
2.06627
2.04858
2.03231
2.0153
1.99971
1.98332
1.96838
1.95257
1.93822
1.92294
1.90916
1.89438
1.88112
1.86681
1.85405
1.84016
1.82787
1.81439
1.80254
1.78943
1.77801
1.76525
1.75423
1.7418
1.73117
1.71905
1.70878
1.69694
1.68702
1.67545
1.66587
1.65456
1.64529
1.63422
1.62526
1.6144
1.60575
1.5951
1.58674
1.57628
1.5682
1.55791
1.55011
1.53999
1.53245
1.52249
1.51521
1.50539
1.49837
1.48868
1.48192
1.47235
1.46583
1.45637
1.45009
1.44071
1.43466
1.42544
1.41975
1.41065
1.4044
1.39405
2.93902
2.91284
2.88542
2.85552
2.8248
2.79267
2.76074
2.72809
2.69618
2.66393
2.63278
2.60149
2.5715
2.54148
2.51286
2.48422
2.45704
2.42981
2.40405
2.37818
2.35378
2.3292
2.30608
2.28271
2.26078
2.23853
2.2177
2.19648
2.17668
2.1564
2.13754
2.11814
2.10014
2.08155
2.06436
2.0465
2.03005
2.01288
1.99713
1.98059
1.96547
1.94951
1.935
1.91958
1.90563
1.89072
1.87729
1.86284
1.84992
1.8359
1.82344
1.80984
1.79783
1.7846
1.77301
1.76015
1.74896
1.73643
1.72562
1.71341
1.70297
1.69105
1.68096
1.66933
1.65957
1.6482
1.63876
1.62763
1.61851
1.60761
1.59878
1.5881
1.57956
1.56908
1.56082
1.55053
1.54253
1.53243
1.52469
1.51476
1.50727
1.4975
1.49026
1.48063
1.47364
1.46414
1.45739
1.44802
1.4415
1.43225
1.42596
1.41682
1.41075
1.40169
1.39585
1.38691
1.38116
1.37238
1.36847
1.35478
2.79195
2.76964
2.74623
2.72059
2.69419
2.66645
2.63881
2.6104
2.58256
2.55426
2.52686
2.49918
2.4726
2.44584
2.42029
2.39458
2.37015
2.34554
2.32224
2.29871
2.27651
2.25403
2.23289
2.21139
2.19124
2.17067
2.15145
2.13174
2.11339
2.09448
2.07694
2.05876
2.04198
2.02448
2.0084
1.99155
1.97612
1.95985
1.94504
1.92932
1.91508
1.89987
1.88617
1.87143
1.85824
1.84395
1.83124
1.81736
1.8051
1.79161
1.77979
1.76666
1.75524
1.74246
1.73144
1.71897
1.70833
1.69617
1.68588
1.674
1.66407
1.65245
1.64285
1.63149
1.6222
1.61108
1.6021
1.5912
1.58251
1.57182
1.56343
1.55293
1.54481
1.5345
1.52665
1.51651
1.50893
1.49894
1.49162
1.48178
1.47471
1.46501
1.45819
1.44862
1.44204
1.43258
1.42624
1.4169
1.4108
1.40155
1.39568
1.38652
1.38089
1.37181
1.36636
1.35738
1.35233
1.34329
1.33938
1.32609
2.68645
2.66653
2.6455
2.62251
2.59883
2.57393
2.54907
2.52348
2.49833
2.47272
2.44783
2.42266
2.39839
2.37392
2.35048
2.32685
2.30432
2.28159
2.26
2.23818
2.21753
2.19659
2.17684
2.15674
2.13785
2.11854
2.10046
2.0819
2.06458
2.04672
2.03011
2.0129
1.99696
1.98035
1.96504
1.949
1.93428
1.91876
1.90459
1.88956
1.87592
1.86135
1.8482
1.83405
1.82138
1.80763
1.7954
1.78203
1.77022
1.7572
1.74579
1.73311
1.72209
1.70972
1.69906
1.68699
1.67669
1.6649
1.65493
1.64341
1.63377
1.62249
1.61317
1.60213
1.59311
1.58229
1.57356
1.56295
1.55451
1.54409
1.53593
1.52569
1.51779
1.50772
1.50009
1.49018
1.4828
1.47305
1.46592
1.4563
1.44941
1.43993
1.43328
1.42391
1.4175
1.40825
1.40207
1.39292
1.38697
1.37792
1.37218
1.36322
1.35772
1.34883
1.3435
1.33471
1.32977
1.32092
1.31709
1.30408
2.60941
2.59071
2.57116
2.54986
2.52798
2.50498
2.482
2.45833
2.43503
2.41128
2.38816
2.36473
2.34211
2.31927
2.29733
2.2752
2.25405
2.23269
2.21236
2.19179
2.17227
2.15248
2.13375
2.1147
2.09674
2.07839
2.06115
2.04347
2.02691
2.00986
1.99394
1.97747
1.96217
1.94624
1.93151
1.91609
1.9019
1.88697
1.87329
1.8588
1.8456
1.83154
1.8188
1.80513
1.79282
1.77953
1.76764
1.75469
1.7432
1.73058
1.71947
1.70716
1.69641
1.6844
1.67399
1.66227
1.65219
1.64073
1.63098
1.61976
1.61033
1.59935
1.59021
1.57945
1.57061
1.56006
1.55149
1.54114
1.53285
1.52268
1.51466
1.50467
1.4969
1.48707
1.47956
1.46988
1.46262
1.45308
1.44606
1.43666
1.42987
1.4206
1.41404
1.40489
1.39856
1.38951
1.38341
1.37446
1.36859
1.35972
1.35407
1.34529
1.33985
1.33112
1.32595
1.31737
1.31241
1.30411
1.29848
1.28902
2.55128
2.53334
2.51473
2.49455
2.47389
2.45219
2.43053
2.40819
2.38621
2.36379
2.34194
2.31978
2.29836
2.27671
2.25589
2.23487
2.21474
2.19442
2.17502
2.1554
2.13674
2.11782
2.09987
2.08163
2.06437
2.04677
2.03018
2.01318
1.99721
1.98079
1.96541
1.94953
1.93471
1.91933
1.90504
1.89014
1.87635
1.8619
1.84858
1.83454
1.82168
1.80804
1.79561
1.78233
1.77031
1.75738
1.74576
1.73316
1.72191
1.70962
1.69873
1.68674
1.67619
1.66448
1.65426
1.64282
1.63292
1.62173
1.61214
1.60119
1.5919
1.58117
1.57217
1.56165
1.55294
1.54261
1.53418
1.52404
1.51587
1.50591
1.498
1.4882
1.48054
1.47091
1.46349
1.454
1.44683
1.43747
1.43054
1.42131
1.41461
1.4055
1.39903
1.39003
1.38378
1.37489
1.36887
1.36006
1.35426
1.34555
1.33997
1.33133
1.32596
1.31736
1.31226
1.30381
1.29892
1.29075
1.28521
1.27586
2.50693
2.48946
2.47144
2.45199
2.43218
2.41138
2.39067
2.36929
2.34829
2.32682
2.30593
2.28471
2.2642
2.24344
2.22348
2.2033
2.18396
2.16442
2.14575
2.12686
2.10887
2.09062
2.07329
2.05567
2.03897
2.02195
2.00586
1.98941
1.97389
1.95798
1.94301
1.9276
1.91316
1.89822
1.88427
1.86978
1.8563
1.84224
1.8292
1.81553
1.80292
1.78963
1.77742
1.76448
1.75266
1.74006
1.7286
1.71632
1.70522
1.69324
1.68248
1.67078
1.66035
1.64892
1.63881
1.62764
1.61783
1.60691
1.59739
1.5867
1.57747
1.567
1.55805
1.54779
1.5391
1.52904
1.52061
1.51074
1.50256
1.49287
1.48494
1.47541
1.46772
1.45835
1.45089
1.44167
1.43445
1.42536
1.41836
1.40941
1.40263
1.3938
1.38724
1.37853
1.37218
1.36358
1.35744
1.34893
1.34301
1.33459
1.32887
1.32054
1.31503
1.30676
1.30146
1.29328
1.28807
1.28004
1.27647
1.26404
2.47278
2.45556
2.43795
2.41895
2.39974
2.37954
2.35953
2.33882
2.31855
2.29777
2.27761
2.25706
2.23726
2.21714
2.19785
2.17828
2.15958
2.1406
2.12254
2.10417
2.08673
2.06898
2.05216
2.03499
2.01877
2.00217
1.98652
1.97045
1.95534
1.93978
1.92519
1.91011
1.89601
1.88139
1.86775
1.85355
1.84036
1.82656
1.81379
1.80037
1.78801
1.77495
1.76297
1.75025
1.73864
1.72624
1.71498
1.70289
1.69197
1.68017
1.66958
1.65806
1.64778
1.63652
1.62655
1.61554
1.60586
1.59509
1.58569
1.57515
1.56603
1.5557
1.54685
1.53672
1.52813
1.5182
1.50986
1.50011
1.49202
1.48245
1.4746
1.46518
1.45757
1.44831
1.44092
1.43181
1.42465
1.41567
1.40873
1.39988
1.39316
1.38443
1.37792
1.36931
1.36301
1.3545
1.34841
1.34
1.33411
1.32579
1.32011
1.31187
1.30639
1.29821
1.29292
1.28487
1.2799
1.27193
1.26646
1.25744
2.44588
2.42881
2.41144
2.39275
2.37397
2.35422
2.33473
2.31452
2.29482
2.27456
2.25498
2.23495
2.21573
2.19611
2.17738
2.15829
2.14012
2.12159
2.10402
2.08608
2.06911
2.05174
2.03535
2.01854
2.00273
1.98645
1.97117
1.9554
1.94064
1.92536
1.91108
1.89625
1.88245
1.86804
1.85468
1.84069
1.82775
1.81413
1.8016
1.78835
1.7762
1.7633
1.75151
1.73894
1.72751
1.71525
1.70415
1.69219
1.68143
1.66974
1.65929
1.64788
1.63774
1.62658
1.61673
1.60581
1.59625
1.58557
1.57629
1.56583
1.55681
1.54656
1.53781
1.52776
1.51926
1.5094
1.50115
1.49147
1.48346
1.47395
1.46618
1.45683
1.44929
1.44009
1.43277
1.42372
1.41662
1.40771
1.40083
1.39204
1.38537
1.3767
1.37025
1.36169
1.35544
1.34699
1.34095
1.33259
1.32675
1.31848
1.31285
1.30466
1.29923
1.2911
1.28585
1.27785
1.27292
1.26501
1.25959
1.2506
2.42559
2.40854
2.3913
2.3728
2.35432
2.33488
2.31579
2.29595
2.27668
2.25681
2.23768
2.21805
2.19926
2.18003
2.16172
2.14298
2.12522
2.10701
2.08982
2.07217
2.05555
2.03843
2.02237
2.00579
1.99027
1.97418
1.95918
1.94358
1.92907
1.91392
1.89988
1.88517
1.87157
1.85727
1.84411
1.83019
1.81744
1.8039
1.79153
1.77834
1.76635
1.7535
1.74187
1.72934
1.71805
1.70583
1.69487
1.68294
1.67231
1.66065
1.65033
1.63893
1.62891
1.61777
1.60804
1.59714
1.5877
1.57703
1.56785
1.55741
1.5485
1.53826
1.52961
1.51957
1.51117
1.50133
1.49317
1.48351
1.47559
1.46609
1.45841
1.44908
1.44162
1.43244
1.4252
1.41617
1.40915
1.40026
1.39345
1.38468
1.37809
1.36944
1.36305
1.35452
1.34834
1.33991
1.33393
1.3256
1.31982
1.31159
1.30599
1.29785
1.29245
1.28438
1.27918
1.27119
1.26608
1.25823
1.25474
1.24252
2.41087
2.39379
2.37654
2.35813
2.33977
2.32052
2.30162
2.28201
2.26296
2.24334
2.22443
2.20503
2.18646
2.16743
2.14931
2.13075
2.11315
2.09509
2.07805
2.06051
2.04401
2.02698
2.01102
1.99449
1.97905
1.96301
1.94808
1.93249
1.91805
1.90292
1.88895
1.87424
1.86072
1.84642
1.83334
1.81942
1.80676
1.79322
1.78096
1.76776
1.75589
1.74303
1.73152
1.71897
1.70781
1.69555
1.68473
1.67277
1.66228
1.65058
1.64041
1.62898
1.61912
1.60794
1.59838
1.58744
1.57817
1.56746
1.55847
1.54797
1.53926
1.52897
1.52052
1.51042
1.50223
1.49232
1.48438
1.47464
1.46695
1.45737
1.44992
1.4405
1.43328
1.424
1.41701
1.40787
1.4011
1.3921
1.38555
1.37666
1.37033
1.36156
1.35543
1.34677
1.34085
1.33229
1.32658
1.31811
1.3126
1.30421
1.29891
1.29059
1.2855
1.27726
1.27232
1.26416
1.25958
1.25137
1.24781
1.23575
2.39894
2.38179
2.36448
2.34608
2.32773
2.30853
2.28962
2.27003
2.25093
2.23128
2.21226
2.19279
2.17407
2.15495
2.13666
2.11801
2.10024
2.08211
2.06489
2.0472
2.03049
2.01331
1.99715
1.98051
1.96493
1.94883
1.93382
1.91825
1.90378
1.88872
1.87478
1.86018
1.84674
1.83259
1.81961
1.80588
1.79335
1.78
1.76789
1.7549
1.74318
1.73054
1.7192
1.70689
1.69592
1.68391
1.67328
1.66157
1.65127
1.63982
1.62984
1.61865
1.60896
1.59801
1.58862
1.57789
1.56878
1.55828
1.54944
1.53913
1.53056
1.52045
1.51213
1.50221
1.49414
1.48439
1.47656
1.46697
1.45939
1.44995
1.4426
1.43332
1.42618
1.41704
1.41013
1.40112
1.39443
1.38554
1.37906
1.37029
1.36402
1.35536
1.3493
1.34074
1.33489
1.32642
1.32077
1.31239
1.30694
1.29864
1.29338
1.28516
1.28011
1.27195
1.26706
1.25898
1.25444
1.24632
1.24279
1.23084
2.39028
2.37265
2.3547
2.33542
2.31612
2.29584
2.27587
2.25519
2.23512
2.21454
2.19478
2.17463
2.15544
2.13591
2.11743
2.09863
2.08091
2.06284
2.04589
2.02865
2.0125
1.99598
1.98053
1.96463
1.94981
1.93446
1.92018
1.90532
1.89154
1.87713
1.86381
1.84981
1.83692
1.82329
1.8108
1.79752
1.78541
1.77246
1.76071
1.74808
1.73667
1.72434
1.71326
1.70121
1.69046
1.67868
1.66823
1.6567
1.64656
1.63528
1.62542
1.61438
1.6048
1.59399
1.58469
1.57408
1.56505
1.55465
1.54588
1.53567
1.52715
1.51714
1.50886
1.49902
1.491
1.48132
1.47353
1.46402
1.45646
1.4471
1.43977
1.43055
1.42344
1.41436
1.40746
1.39851
1.39183
1.38301
1.37654
1.36782
1.36156
1.35295
1.3469
1.33839
1.33254
1.32413
1.31848
1.31015
1.3047
1.29645
1.2912
1.28302
1.27796
1.26982
1.265
1.25701
1.25238
1.24464
1.23939
1.23056
2.36067
2.34174
2.32319
2.30401
2.28534
2.26615
2.24759
2.2286
2.21034
2.19168
2.17383
2.15561
2.13825
2.12051
2.10367
2.08642
2.0701
2.05335
2.03754
2.02126
2.00595
1.99013
1.97529
1.95991
1.94552
1.93056
1.91661
1.90204
1.88851
1.87432
1.86119
1.84736
1.83461
1.82112
1.80875
1.79558
1.78356
1.77071
1.75904
1.74648
1.73514
1.72288
1.71186
1.69986
1.68915
1.67742
1.66702
1.65554
1.64543
1.63419
1.62436
1.61335
1.60381
1.59302
1.58374
1.57316
1.56415
1.55378
1.54502
1.53484
1.52634
1.51634
1.50809
1.49826
1.49025
1.48059
1.47281
1.46332
1.45576
1.44642
1.43909
1.42989
1.42278
1.41372
1.40683
1.39789
1.39121
1.3824
1.37593
1.36723
1.36097
1.35237
1.34632
1.33782
1.33197
1.32356
1.31792
1.30959
1.30415
1.2959
1.29066
1.28249
1.27743
1.2693
1.26449
1.25651
1.2519
1.24419
1.23896
1.23012
3.54987
3.67253
3.88125
4.0449
4.41846
4.64553
5.27939
5.98982
7.06847
11.0241
3.26603
3.31248
3.47505
3.60087
3.81742
4.11999
4.36898
5.00085
5.48153
7.96228
3.0547
3.12538
3.17188
3.30733
3.39338
3.65164
3.8027
4.25294
4.53858
6.02395
2.93488
2.98769
3.01303
3.10091
3.14998
3.31063
3.40821
3.70767
3.8935
4.79366
2.84209
2.88028
2.89707
2.95805
2.98904
3.09054
3.1506
3.33723
3.45499
4.00178
2.76757
2.79342
2.80494
2.84771
2.86873
2.93703
2.97516
3.09231
3.16484
3.49383
2.71055
2.72707
2.73396
2.76292
2.77665
2.82304
2.8478
2.92374
2.96864
3.16692
2.66584
2.6749
2.6788
2.69722
2.70587
2.73645
2.75241
2.80186
2.83026
2.95043
2.62918
2.63333
2.63464
2.64556
2.65033
2.66976
2.6794
2.71129
2.72874
2.80369
2.59986
2.5996
2.59933
2.60413
2.60618
2.61715
2.62244
2.64187
2.65158
2.69983
2.57664
2.57367
2.57092
2.57125
2.57119
2.57569
2.57779
2.58789
2.59276
2.62259
2.55787
2.55321
2.54816
2.54573
2.54292
2.54281
2.54254
2.54594
2.54747
2.56467
2.54307
2.53636
2.53023
2.52525
2.52082
2.51734
2.51448
2.51282
2.51189
2.52009
2.53102
2.52315
2.51553
2.5093
2.50264
2.4978
2.49169
2.48834
2.48238
2.48579
2.5213
2.51321
2.50371
2.49711
2.48812
2.48258
2.47374
2.46919
2.45851
2.45885
2.51391
2.50598
2.49478
2.48812
2.47723
2.47125
2.46031
2.45468
2.44286
2.43863
2.50783
2.50018
2.48766
2.48093
2.46884
2.4623
2.45029
2.44349
2.43147
2.42408
2.50356
2.49472
2.48241
2.47417
2.46241
2.45409
2.44244
2.4336
2.42183
2.41234
2.50144
2.49153
2.47941
2.46995
2.45832
2.44871
2.43705
2.4269
2.41492
2.4041
2.48931
2.47668
2.46333
2.45135
2.43837
2.42661
2.41357
2.4017
2.38832
2.37617
3.41047
3.67401
4.08666
4.74264
5.94861
7.67241
11.6707
22.1464
71.9775
49.3779
3.43799
3.71885
4.11739
4.76785
5.93384
8.13918
12.7484
22.8125
74.556
49.7012
3.4377
3.7125
4.19862
4.9011
6.25677
8.16114
12.7601
24.0465
78.5826
49.9227
3.47675
3.7313
4.1999
4.89282
6.25579
8.77962
14.0718
24.5671
81.92
50.0111
3.47747
3.7522
4.30448
5.0853
6.64877
8.83642
14.1724
26.6346
85.8801
49.9547
3.54713
3.7862
4.31205
5.10133
6.68917
9.62127
15.9486
27.3682
89.7806
49.7878
3.56174
3.86767
4.4741
5.37239
7.20541
9.76689
16.2444
30.1479
93.6245
49.2871
3.67227
3.93002
4.52205
5.44738
7.32462
10.8421
18.348
31.7875
97.1758
48.7486
3.70804
4.06633
4.77649
5.86245
8.08135
11.1657
19.3008
36.2948
98.5867
48.4335
3.8787
4.18609
4.88791
6.03259
8.32943
12.7473
21.7522
41.38
97.8982
48.0227
3.42397
3.66194
4.03384
4.43556
5.51354
6.34476
11.7948
16.7242
52.5201
46.1055
3.4259
3.63823
3.99948
4.40876
5.07696
6.9696
9.62964
19.1387
48.6603
44.0809
3.43625
3.65614
4.02943
4.44977
5.195
7.0952
9.66802
19.6853
49.5786
43.7819
3.42838
3.66647
4.02293
4.48793
5.30782
7.12985
9.9124
20.0084
52.5759
44.3097
3.42361
3.67074
4.01065
4.53013
5.37919
7.11229
10.3321
20.0244
55.0145
44.7588
3.41714
3.69156
3.99265
4.5432
5.42454
7.14058
10.671
20.4612
57.4397
45.9272
3.41018
3.67191
4.05438
4.54321
5.4366
7.20601
10.8647
20.3944
60.3296
46.4348
3.39845
3.66591
4.03477
4.66961
5.46922
7.19373
11.0942
21.1298
62.3704
47.4798
3.38344
3.64222
4.02813
4.66097
5.71025
7.3342
10.9637
20.9162
65.9644
47.9066
3.39336
3.67611
4.02658
4.68531
5.68315
7.61472
11.7599
21.7848
68.001
48.7601
57.852
49.6857
43.4318
38.5054
34.534
31.2705
28.5449
26.2369
24.2591
22.5467
21.0506
19.7329
18.5639
17.5204
16.5833
15.7376
14.9705
14.2719
13.6331
13.0468
12.5069
12.0082
11.5462
11.1171
10.7175
10.3445
9.99555
9.66852
9.36132
9.07234
8.7999
8.54277
8.29958
8.06938
7.85101
7.64377
7.44666
7.25913
7.08035
6.9099
6.74703
6.59144
6.44246
6.2999
6.16313
6.03204
5.90604
5.7851
5.66867
5.55676
5.44884
5.34499
5.2447
5.14807
5.05462
4.9645
4.87722
4.79297
4.71127
4.63233
4.55569
4.4816
4.40955
4.33987
4.27201
4.20638
4.14236
4.08044
4.01993
3.96142
3.90417
3.84881
3.79458
3.74214
3.69071
3.64101
3.59221
3.5451
3.49879
3.45415
3.41025
3.36803
3.32651
3.28672
3.24765
3.21045
3.17404
3.13978
3.10656
3.07599
3.04704
3.02175
2.99936
2.98274
2.972
2.97231
2.99843
3.03137
3.12235
3.27904
57.8485
49.6785
43.4225
38.495
34.5231
31.2594
28.5338
26.2259
24.2484
22.5363
21.0405
19.7231
18.5544
17.5112