/*--------------------------------*- C++ -*----------------------------------*\
  =========                 |
  \\      /  F ield         | OpenFOAM: The Open Source CFD Toolbox
   \\    /   O peration     | Website:  https://openfoam.org
    \\  /    A nd           | Version:  8
     \\/     M anipulation  |
\*---------------------------------------------------------------------------*/
FoamFile
{
    version     2.0;
    format      ascii;
    class       volScalarField;
    location    "0.999962";
    object      nut;
}
// * * * * * * * * * * * * * * * * * * * * * * * * * * * * * * * * * * * * * //

dimensions      [0 2 -1 0 0 0 0];

internalField   nonuniform List<scalar> 
6800
(
0.0793348
0.113374
0.115021
0.111493
0.111289
0.0951921
0.0761906
0.0567613
0.0462919
0.0472602
0.0606027
0.0992474
0.106502
0.107444
0.0999252
0.0774207
0.057112
0.0493407
0.045509
0.0383973
0.0613838
0.0958828
0.105658
0.100306
0.0822104
0.0606797
0.0511418
0.0450485
0.0351011
0.0317485
0.062484
0.0947425
0.100851
0.0924853
0.0696435
0.0566884
0.0467601
0.0377388
0.0326836
0.0305504
0.0624962
0.0934915
0.098535
0.083908
0.0615179
0.0485585
0.0392315
0.0352453
0.031111
0.0265316
0.0629356
0.0956508
0.0953094
0.0725801
0.0548817
0.0465687
0.0397859
0.0332745
0.0275172
0.0251742
0.0627387
0.0976231
0.0920171
0.0674621
0.0540203
0.0421507
0.0343981
0.0288958
0.0262533
0.0245049
0.0629524
0.101124
0.0862115
0.0584637
0.0464042
0.0404531
0.0330811
0.0293791
0.0250339
0.0230789
0.0628504
0.103611
0.0776797
0.0612693
0.0496261
0.0374221
0.0303133
0.026461
0.0237425
0.0226405
0.063168
0.106024
0.0738283
0.0534299
0.0405577
0.036263
0.0296032
0.0262362
0.023383
0.0217409
0.59055
0.839973
0.961043
1.00394
1.00869
1.02119
1.03994
1.06229
1.07683
1.08266
0.499619
0.771849
0.904167
0.958684
0.959142
0.964397
0.973632
0.980041
0.975453
0.969775
0.0788399
0.473061
0.77233
0.867881
0.876552
0.875792
0.870321
0.866529
0.864568
0.850768
0.0694791
0.350416
0.666786
0.761347
0.770711
0.753128
0.739751
0.720956
0.684185
0.612761
0.341708
0.433168
0.609979
0.649418
0.633687
0.612037
0.581765
0.51612
0.463251
0.355491
0.361177
0.442521
0.532521
0.530242
0.516208
0.461678
0.391121
0.295569
0.240028
0.171604
0.0763885
0.31067
0.430569
0.42181
0.358884
0.266453
0.198033
0.152736
0.139383
0.107914
0.0695113
0.272005
0.324177
0.268228
0.193653
0.156362
0.133789
0.111374
0.106348
0.0858789
0.310871
0.283958
0.236943
0.165209
0.136565
0.122715
0.108253
0.0965399
0.0924734
0.0669434
0.201358
0.154862
0.136893
0.122139
0.117266
0.110337
0.0954616
0.083798
0.0602773
0.0483998
1.08585
1.0735
1.0545
1.03401
1.01464
0.99724
0.981834
0.968771
0.957644
0.947964
0.939429
0.931844
0.925071
0.918996
0.913519
0.90855
0.904011
0.899838
0.895975
0.892379
0.889014
0.885858
0.882887
0.880096
0.877468
0.874974
0.872606
0.870368
0.868252
0.86624
0.86433
0.862523
0.860819
0.859216
0.857709
0.856289
0.85495
0.85368
0.852475
0.851324
0.850222
0.849165
0.848154
0.847185
0.846258
0.845371
0.844522
0.84371
0.84294
0.84221
0.841522
0.840874
0.840266
0.839699
0.839171
0.838684
0.838237
0.837833
0.83747
0.837149
0.836869
0.836632
0.836433
0.836273
0.836147
0.836054
0.835988
0.835946
0.835923
0.835914
0.835915
0.835923
0.835933
0.835943
0.835949
0.835952
0.835947
0.835937
0.83592
0.835898
0.835869
0.835842
0.835806
0.835782
0.835745
0.835736
0.835699
0.83572
0.83568
0.835748
0.835695
0.835832
0.835741
0.835973
0.835842
0.836164
0.835947
0.836473
0.835501
0.83777
0.972367
0.969072
0.957869
0.945011
0.932427
0.920709
0.910043
0.901079
0.893244
0.886354
0.880301
0.874978
0.870292
0.866161
0.8625
0.859228
0.856274
0.85358
0.851102
0.848805
0.846665
0.844668
0.842796
0.841063
0.839402
0.837778
0.836234
0.834799
0.833437
0.83212
0.830897
0.829782
0.828776
0.827871
0.827054
0.826314
0.825639
0.825015
0.824436
0.823886
0.823368
0.822888
0.822443
0.822028
0.821639
0.821274
0.820925
0.820604
0.820318
0.82006
0.819826
0.819615
0.819426
0.819261
0.81912
0.819005
0.818918
0.818859
0.818831
0.818833
0.818866
0.818931
0.819022
0.81914
0.81928
0.819443
0.819622
0.819813
0.820014
0.82022
0.82043
0.82064
0.820848
0.821051
0.821247
0.821436
0.821614
0.821785
0.821945
0.822101
0.822245
0.822392
0.822526
0.822672
0.822799
0.822955
0.823077
0.823259
0.823371
0.823596
0.823687
0.823978
0.824022
0.82441
0.824403
0.824882
0.824783
0.82548
0.824574
0.827075
0.855807
0.857711
0.849136
0.839802
0.830913
0.822752
0.815445
0.80813
0.801468
0.795706
0.790846
0.786783
0.783424
0.780675
0.778402
0.776523
0.774958
0.773651
0.772555
0.771634
0.770863
0.770223
0.769708
0.769297
0.769032
0.76894
0.769001
0.769154
0.769512
0.77009
0.770806
0.771611
0.77247
0.77336
0.77426
0.775152
0.776025
0.776865
0.777673
0.778422
0.779182
0.779956
0.780712
0.781439
0.782127
0.782778
0.783395
0.783975
0.784512
0.78502
0.785506
0.78598
0.786444
0.786905
0.787366
0.787831
0.788303
0.788783
0.789276
0.78978
0.790303
0.79083
0.791358
0.791892
0.792432
0.792984
0.793523
0.794058
0.79459
0.795121
0.795648
0.79617
0.796683
0.797186
0.797676
0.798154
0.798619
0.799075
0.799517
0.799953
0.800374
0.800795
0.801197
0.801611
0.801997
0.802414
0.802784
0.803217
0.803565
0.804034
0.804345
0.804878
0.805131
0.805759
0.805947
0.806672
0.806731
0.8077
0.806907
0.809819
0.610327
0.613922
0.615115
0.615992
0.617346
0.61904
0.621133
0.623868
0.626997
0.630476
0.634226
0.638119
0.642155
0.646264
0.650273
0.654172
0.657903
0.661473
0.664884
0.668141
0.671259
0.674254
0.677149
0.679963
0.682718
0.685438
0.688135
0.690836
0.693486
0.696086
0.698672
0.701235
0.703766
0.706255
0.708676
0.711022
0.713279
0.715456
0.717521
0.719539
0.721382
0.723066
0.724626
0.726102
0.727503
0.728858
0.730165
0.731445
0.732699
0.733934
0.735154
0.736362
0.737559
0.738748
0.739932
0.741112
0.74229
0.743469
0.744649
0.745835
0.74702
0.748218
0.749431
0.750652
0.751878
0.7531
0.754345
0.755597
0.756844
0.758078
0.759291
0.760482
0.761642
0.762776
0.763872
0.764948
0.766002
0.767035
0.768036
0.769017
0.769963
0.770895
0.771787
0.772681
0.773523
0.774391
0.775186
0.776045
0.776787
0.77766
0.778338
0.779251
0.779834
0.780819
0.781306
0.782373
0.782713
0.78402
0.783395
0.786829
0.344112
0.340226
0.340047
0.342984
0.348424
0.355828
0.364454
0.37403
0.384157
0.394907
0.405834
0.416747
0.427853
0.438659
0.448705
0.458363
0.467502
0.476328
0.484832
0.493033
0.500961
0.508641
0.516109
0.523385
0.530501
0.537459
0.544287
0.550975
0.557547
0.563955
0.570246
0.57633
0.582222
0.587888
0.593286
0.598454
0.6034
0.608135
0.612683
0.617041
0.621269
0.625382
0.629357
0.633232
0.636965
0.640628
0.644147
0.647615
0.650987
0.654283
0.657498
0.660626
0.663669
0.666635
0.669525
0.672347
0.675103
0.677801
0.680445
0.68304
0.68559
0.688098
0.690565
0.692992
0.695377
0.697719
0.700006
0.702245
0.704431
0.706572
0.708657
0.710695
0.712677
0.714607
0.716487
0.718303
0.720046
0.721735
0.723365
0.724958
0.726495
0.728011
0.729467
0.730923
0.732308
0.733721
0.735037
0.736429
0.737672
0.739065
0.740223
0.741647
0.742694
0.74418
0.745114
0.746681
0.74743
0.749263
0.748986
0.753084
0.169131
0.167985
0.167523
0.168056
0.169452
0.171788
0.174893
0.178732
0.183407
0.189263
0.195001
0.201174
0.208798
0.215929
0.225012
0.234279
0.244355
0.255064
0.265848
0.276748
0.287745
0.298791
0.309867
0.320918
0.331928
0.342831
0.353661
0.364342
0.374905
0.385232
0.395443
0.404957
0.414205
0.422814
0.430926
0.438983
0.446817
0.45446
0.461918
0.469217
0.476345
0.483346
0.490174
0.496913
0.503433
0.509947
0.516117
0.522474
0.528503
0.534446
0.540187
0.545715
0.551082
0.556302
0.561368
0.566314
0.571118
0.575829
0.580435
0.584939
0.589351
0.593677
0.597916
0.602072
0.606138
0.610124
0.614016
0.617829
0.621544
0.625181
0.628712
0.63217
0.635511
0.638788
0.641945
0.645043
0.648042
0.650979
0.653836
0.656635
0.659337
0.661999
0.664559
0.667105
0.669533
0.671986
0.674291
0.676677
0.678857
0.681205
0.68325
0.68559
0.687475
0.68984
0.69156
0.693989
0.695449
0.698122
0.698523
0.70355
0.106667
0.105208
0.103862
0.102916
0.102155
0.101699
0.101377
0.101385
0.101603
0.102131
0.10292
0.103929
0.105279
0.106918
0.108348
0.110467
0.112811
0.115022
0.117938
0.120775
0.12456
0.128553
0.133309
0.138333
0.14385
0.149891
0.15639
0.163285
0.17061
0.178349
0.186482
0.195293
0.204949
0.2151
0.225452
0.235993
0.246614
0.257306
0.267969
0.278602
0.289121
0.299539
0.309783
0.319875
0.329759
0.339448
0.34894
0.358161
0.367285
0.37593
0.384247
0.392121
0.399791
0.40729
0.414607
0.421838
0.428816
0.436056
0.442885
0.449641
0.456313
0.46289
0.469349
0.475701
0.481923
0.488036
0.494005
0.499867
0.505564
0.51115
0.516541
0.521834
0.526907
0.531921
0.536694
0.541447
0.545958
0.550481
0.554875
0.55913
0.563229
0.567298
0.571217
0.575132
0.578875
0.582668
0.586246
0.589939
0.593344
0.596963
0.60018
0.603752
0.606749
0.61031
0.613063
0.616664
0.619095
0.622912
0.62427
0.630359
0.0847374
0.0833274
0.0819581
0.0807114
0.0793928
0.0781904
0.0769075
0.0757134
0.0743124
0.0729976
0.0714756
0.0701284
0.0686155
0.0672281
0.0660628
0.0649958
0.0642129
0.0635294
0.0631493
0.0627419
0.0626606
0.0625179
0.0628066
0.0629764
0.063691
0.0647079
0.0653432
0.0662953
0.0677811
0.0695151
0.0715245
0.0738069
0.0764029
0.0793966
0.0827153
0.0864958
0.0905956
0.0951768
0.10007
0.105473
0.111179
0.117393
0.123883
0.13087
0.138087
0.145782
0.15364
0.161956
0.17034
0.179295
0.18857
0.19832
0.20819
0.218175
0.228174
0.238214
0.248168
0.258082
0.267896
0.277602
0.287148
0.29655
0.305742
0.314758
0.323531
0.332126
0.34046
0.348635
0.356426
0.363998
0.37121
0.378272
0.385076
0.391812
0.398301
0.404759
0.410984
0.41722
0.423215
0.429277
0.435026
0.440932
0.446494
0.452082
0.457457
0.46295
0.468098
0.473446
0.478351
0.483572
0.4882
0.493315
0.497624
0.502668
0.506622
0.511694
0.515168
0.520407
0.523199
0.530235
0.0650132
0.0630961
0.0612791
0.0593841
0.0575906
0.0558383
0.0542509
0.0527486
0.051421
0.0501979
0.0491285
0.0480419
0.0468996
0.0458303
0.0449
0.044074
0.0433513
0.0426978
0.0421298
0.0416104
0.0411669
0.0407564
0.0404149
0.0401036
0.0398515
0.0396337
0.0394902
0.0393455
0.0392903
0.0392285
0.0392916
0.0393195
0.0395083
0.0396322
0.0399467
0.0403561
0.0406204
0.0411124
0.0416802
0.0424506
0.0432236
0.0442262
0.0452676
0.0465801
0.0479694
0.0496481
0.0514606
0.0535703
0.0558618
0.0584873
0.061343
0.0646178
0.0681625
0.0721574
0.0764199
0.0811618
0.086177
0.0916743
0.0974375
0.10367
0.110149
0.11707
0.124195
0.131713
0.139375
0.147371
0.155441
0.163779
0.172244
0.18103
0.189835
0.198873
0.207725
0.216711
0.225436
0.234266
0.24277
0.251373
0.259592
0.267925
0.275818
0.283857
0.291405
0.299151
0.306321
0.3138
0.320593
0.327838
0.334247
0.341177
0.347082
0.353783
0.359194
0.365795
0.370719
0.37735
0.381876
0.388518
0.392859
0.400666
0.0474869
0.0459133
0.0443416
0.0430407
0.0419304
0.0409507
0.0400664
0.039255
0.0385082
0.0378096
0.0371496
0.0365349
0.0359556
0.035417
0.0349123
0.0344488
0.0340162
0.0336213
0.033252
0.0329174
0.0326029
0.0323197
0.0320515
0.0318117
0.0315829
0.0313811
0.0311869
0.0310182
0.0308543
0.0307158
0.0305799
0.03047
0.0303613
0.0302809
0.0301844
0.0301302
0.0300697
0.0300514
0.0299935
0.0300165
0.029963
0.030026
0.0299839
0.0300784
0.0300771
0.0301819
0.0302607
0.0303625
0.0306112
0.0307108
0.031025
0.0311607
0.0315012
0.0316606
0.0320365
0.0326033
0.0330858
0.0338693
0.0345381
0.0355892
0.0365619
0.037896
0.0391688
0.0408657
0.0424917
0.044606
0.0466295
0.0492081
0.0516711
0.0547652
0.05772
0.0613829
0.0648702
0.0691314
0.0731609
0.0780302
0.0825933
0.0880646
0.0931327
0.0991817
0.104703
0.111288
0.117188
0.12425
0.130434
0.137906
0.144265
0.152078
0.158493
0.166728
0.173206
0.181781
0.188168
0.197014
0.202992
0.211985
0.21742
0.22642
0.233477
0.241117
0.0383753
0.0375011
0.0366591
0.0358581
0.0351105
0.0344155
0.0337645
0.0331629
0.0325973
0.032079
0.0316072
0.0311817
0.0307887
0.0304321
0.0300979
0.0297927
0.0295024
0.0292366
0.0289834
0.0287526
0.0285298
0.0283275
0.0281299
0.0279512
0.0277745
0.0276151
0.0274556
0.0273118
0.027166
0.0270348
0.0268999
0.026779
0.026653
0.0265409
0.0264227
0.0263189
0.0262066
0.0261167
0.0260167
0.0259417
0.025852
0.0257904
0.0257104
0.0256595
0.02559
0.0255476
0.0254881
0.025455
0.0254032
0.025384
0.0253387
0.0253313
0.0252955
0.0252973
0.0252707
0.0252828
0.0252741
0.0252982
0.0253117
0.0253508
0.0253905
0.0254521
0.0255254
0.0256141
0.0257312
0.0258635
0.0259749
0.0262181
0.0263493
0.0266702
0.0268394
0.0272645
0.0274949
0.0280525
0.0283564
0.0290938
0.0294885
0.0304499
0.030977
0.0321935
0.0328776
0.0344231
0.0352806
0.0372327
0.0382835
0.0406931
0.0419768
0.0448733
0.0464198
0.0498477
0.051674
0.0556806
0.0578003
0.0624176
0.0648409
0.0699706
0.0725469
0.0782214
0.0807683
0.0899366
0.0318132
0.0313938
0.030984
0.030582
0.0301799
0.0297767
0.0293907
0.0290165
0.0286663
0.0283325
0.0280238
0.0277307
0.0274608
0.0272051
0.0269699
0.0267467
0.0265405
0.0263441
0.0261581
0.0259785
0.0258078
0.0256434
0.0254868
0.0253369
0.0251936
0.0250577
0.0249268
0.0248037
0.024684
0.0245724
0.0244624
0.0243609
0.0242594
0.0241669
0.0240731
0.023989
0.0239025
0.0238265
0.0237471
0.0236786
0.0236061
0.023545
0.0234789
0.0234251
0.0233644
0.0233172
0.0232611
0.0232196
0.0231671
0.0231307
0.0230808
0.0230493
0.0230015
0.0229746
0.0229283
0.0229053
0.0228604
0.0228406
0.0227974
0.0227812
0.0227408
0.0227257
0.0226882
0.0226728
0.022634
0.0226226
0.0225906
0.0225868
0.0225629
0.0225645
0.0225478
0.0225542
0.0225436
0.0225568
0.0225525
0.0225754
0.0225828
0.0226175
0.0226411
0.0226886
0.022737
0.0228148
0.0228959
0.023038
0.0230967
0.0232502
0.0233091
0.0235628
0.0236553
0.0239898
0.0241473
0.0245922
0.0247385
0.0253892
0.0255327
0.0263446
0.026498
0.0281273
0.0277728
0.0303688
0.0274671
0.0272276
0.026983
0.0267258
0.0264677
0.0262053
0.0259499
0.0256951
0.0254514
0.0252109
0.0249836
0.0247602
0.024551
0.0243457
0.0241548
0.0239675
0.0237943
0.0236244
0.0234681
0.0233147
0.0231742
0.0230362
0.0229102
0.0227862
0.0226732
0.0225618
0.0224605
0.0223604
0.0222696
0.0221798
0.0220984
0.0220179
0.0219448
0.0218726
0.0218068
0.021742
0.0216824
0.0216242
0.0215699
0.0215175
0.0214677
0.0214204
0.0213745
0.0213318
0.0212895
0.021251
0.0212117
0.0211772
0.0211407
0.02111
0.0210759
0.0210486
0.0210167
0.0209926
0.0209626
0.0209415
0.0209131
0.0208948
0.0208678
0.0208522
0.0208263
0.0208134
0.0207884
0.020778
0.0207536
0.0207457
0.0207218
0.0207162
0.0206926
0.0206892
0.0206659
0.0206644
0.0206414
0.0206418
0.0206189
0.0206212
0.0205985
0.0206027
0.0205802
0.0205865
0.0205643
0.0205731
0.020551
0.0205646
0.0205429
0.0205612
0.0205396
0.0205635
0.0205428
0.0205734
0.0205546
0.0205932
0.020578
0.0206252
0.0206165
0.0206709
0.0206797
0.0207363
0.0207613
0.0208761
0.0244759
0.0243315
0.0241792
0.0240122
0.023842
0.0236645
0.0234913
0.0233154
0.0231479
0.0229802
0.0228232
0.0226669
0.0225226
0.022379
0.0222481
0.0221173
0.0219994
0.0218809
0.0217755
0.0216685
0.0215744
0.0214777
0.0213938
0.0213063
0.0212313
0.0211519
0.0210846
0.0210122
0.0209517
0.0208854
0.0208309
0.0207699
0.0207207
0.0206646
0.02062
0.020568
0.0205276
0.0204792
0.0204423
0.020397
0.0203631
0.0203205
0.0202894
0.0202492
0.0202206
0.0201826
0.0201563
0.0201204
0.0200963
0.0200623
0.0200402
0.0200081
0.0199879
0.0199575
0.0199391
0.0199103
0.0198935
0.0198662
0.0198509
0.0198251
0.0198112
0.0197866
0.0197741
0.0197506
0.0197393
0.0197168
0.0197066
0.0196851
0.0196759
0.0196551
0.019647
0.0196268
0.0196195
0.0195999
0.0195933
0.0195743
0.0195682
0.0195498
0.0195442
0.0195263
0.0195211
0.0195038
0.0194989
0.0194822
0.0194778
0.0194616
0.0194576
0.0194418
0.0194384
0.019423
0.0194198
0.0194048
0.019402
0.0193871
0.0193834
0.0193665
0.0193574
0.0193325
0.0193824
0.0192697
0.0222952
0.0222118
0.0221208
0.0220149
0.0219049
0.0217863
0.0216698
0.0215486
0.0214329
0.0213146
0.0212038
0.0210916
0.020988
0.0208832
0.0207875
0.0206906
0.0206031
0.0205138
0.0204341
0.0203521
0.0202797
0.0202045
0.0201389
0.0200698
0.0200103
0.0199468
0.0198931
0.0198347
0.019786
0.0197322
0.0196882
0.0196385
0.0195987
0.0195526
0.0195167
0.0194739
0.0194414
0.0194016
0.0193722
0.019335
0.0193085
0.0192737
0.0192496
0.019217
0.0191952
0.0191644
0.0191447
0.0191156
0.0190978
0.0190702
0.0190541
0.0190278
0.0190133
0.0189883
0.0189751
0.0189513
0.0189394
0.0189166
0.0189059
0.018884
0.0188744
0.0188534
0.0188448
0.0188246
0.0188168
0.0187973
0.0187902
0.0187715
0.0187651
0.0187469
0.0187411
0.0187235
0.0187182
0.0187012
0.0186963
0.0186799
0.0186754
0.0186594
0.0186552
0.0186398
0.0186359
0.018621
0.0186172
0.0186029
0.0185993
0.0185855
0.0185819
0.0185687
0.018565
0.0185524
0.0185487
0.0185367
0.0185327
0.0185213
0.0185169
0.0185063
0.0185015
0.0184915
0.0184856
0.018474
0.0207823
0.0207377
0.0206878
0.0206229
0.020555
0.020477
0.0204009
0.0203181
0.02024
0.0201569
0.0200804
0.02
0.0199273
0.0198511
0.0197833
0.0197121
0.0196497
0.0195837
0.0195268
0.0194658
0.019414
0.0193578
0.0193108
0.0192589
0.0192161
0.0191681
0.0191292
0.0190846
0.0190492
0.0190076
0.0189752
0.0189363
0.0189067
0.0188701
0.0188431
0.0188086
0.0187838
0.0187513
0.0187286
0.0186979
0.0186771
0.018648
0.0186289
0.0186012
0.0185838
0.0185574
0.0185414
0.0185162
0.0185015
0.0184773
0.0184639
0.0184406
0.0184283
0.0184059
0.0183946
0.018373
0.0183626
0.0183417
0.0183322
0.018312
0.0183033
0.0182837
0.0182757
0.0182566
0.0182493
0.0182308
0.018224
0.018206
0.0181997
0.0181822
0.0181763
0.0181593
0.0181537
0.0181372
0.018132
0.0181158
0.0181109
0.0180952
0.0180905
0.0180753
0.0180707
0.0180559
0.0180515
0.0180372
0.0180328
0.018019
0.0180147
0.0180014
0.017997
0.0179842
0.0179797
0.0179675
0.0179628
0.0179512
0.0179462
0.0179353
0.0179299
0.0179195
0.0179157
0.0179008
0.0197398
0.0197173
0.0196911
0.0196507
0.0196078
0.0195546
0.0195033
0.0194442
0.0193895
0.0193285
0.0192736
0.0192132
0.0191599
0.0191016
0.0190511
0.0189956
0.0189483
0.018896
0.0188521
0.0188029
0.0187624
0.0187163
0.0186791
0.0186359
0.0186018
0.0185613
0.0185301
0.0184922
0.0184635
0.0184279
0.0184016
0.0183681
0.0183441
0.0183124
0.0182904
0.0182604
0.0182402
0.0182117
0.0181932
0.0181661
0.0181491
0.0181232
0.0181075
0.0180828
0.0180684
0.0180446
0.0180313
0.0180085
0.0179963
0.0179742
0.017963
0.0179417
0.0179314
0.0179108
0.0179013
0.0178814
0.0178726
0.0178533
0.0178452
0.0178265
0.017819
0.0178008
0.0177939
0.0177762
0.0177698
0.0177526
0.0177467
0.0177299
0.0177244
0.017708
0.0177029
0.0176869
0.0176821
0.0176665
0.0176619
0.0176468
0.0176423
0.0176276
0.0176233
0.017609
0.0176048
0.0175909
0.0175868
0.0175733
0.0175691
0.0175562
0.0175519
0.0175394
0.017535
0.017523
0.0175184
0.017507
0.0175022
0.0174911
0.0174854
0.0174762
0.0174764
0.0174669
0.0174081
0.0174867
0.0189927
0.0189833
0.0189709
0.018945
0.0189174
0.0188796
0.0188437
0.0187998
0.01876
0.0187132
0.0186722
0.018625
0.0185845
0.0185381
0.0184993
0.0184546
0.018418
0.0183753
0.0183412
0.0183007
0.0182691
0.0182307
0.0182016
0.0181654
0.0181386
0.0181043
0.0180796
0.0180471
0.0180245
0.0179937
0.0179729
0.0179436
0.0179245
0.0178966
0.0178791
0.0178524
0.0178363
0.0178107
0.017796
0.0177714
0.0177579
0.0177343
0.0177218
0.017699
0.0176876
0.0176655
0.0176549
0.0176335
0.0176238
0.0176031
0.0175941
0.0175739
0.0175657
0.017546
0.0175384
0.0175192
0.0175123
0.0174935
0.0174871
0.0174688
0.0174629
0.017445
0.0174396
0.0174221
0.0174171
0.0174
0.0173953
0.0173786
0.0173742
0.0173579
0.0173538
0.0173378
0.0173339
0.0173183
0.0173146
0.0172993
0.0172957
0.0172808
0.0172773
0.0172628
0.0172592
0.0172452
0.0172416
0.017228
0.0172243
0.0172112
0.0172074
0.0171947
0.0171907
0.0171786
0.0171743
0.0171628
0.0171581
0.0171473
0.0171427
0.0171316
0.0171201
0.0171111
0.017158
0.0170543
0.0184501
0.0184492
0.0184448
0.0184281
0.0184097
0.0183819
0.0183557
0.0183219
0.0182917
0.0182547
0.0182228
0.0181848
0.0181528
0.0181149
0.018084
0.018047
0.0180175
0.0179818
0.0179542
0.0179199
0.0178943
0.0178615
0.0178377
0.0178064
0.0177845
0.0177546
0.0177344
0.0177058
0.0176873
0.0176599
0.0176429
0.0176165
0.0176009
0.0175756
0.0175613
0.0175368
0.0175237
0.0175
0.017488
0.017465
0.0174541
0.0174317
0.0174218
0.0173999
0.0173909
0.0173695
0.0173614
0.0173404
0.0173331
0.0173125
0.0173059
0.0172856
0.0172798
0.0172598
0.0172546
0.017235
0.0172304
0.017211
0.017207
0.0171878
0.0171844
0.0171654
0.0171626
0.0171438
0.0171414
0.0171228
0.0171209
0.0171024
0.0171009
0.0170825
0.0170815
0.0170632
0.0170625
0.0170444
0.017044
0.017026
0.017026
0.0170081
0.0170083
0.0169905
0.016991
0.0169733
0.016974
0.0169565
0.0169573
0.01694
0.0169409
0.0169238
0.0169248
0.0169079
0.0169089
0.0168921
0.0168934
0.0168771
0.0168769
0.0168611
0.016868
0.0168476
0.0168411
0.0168257
0.0180412
0.0180464
0.0180465
0.0180354
0.0180226
0.0180015
0.0179816
0.0179549
0.017931
0.0179012
0.0178754
0.0178442
0.0178179
0.0177864
0.0177607
0.0177296
0.0177049
0.0176747
0.0176514
0.0176222
0.0176003
0.0175722
0.0175518
0.0175249
0.017506
0.0174801
0.0174626
0.0174376
0.0174215
0.0173974
0.0173825
0.0173593
0.0173456
0.0173231
0.0173104
0.0172886
0.017277
0.0172558
0.0172451
0.0172244
0.0172146
0.0171943
0.0171854
0.0171655
0.0171573
0.0171378
0.0171303
0.0171111
0.0171044
0.0170854
0.0170793
0.0170606
0.0170552
0.0170366
0.0170318
0.0170135
0.0170092
0.016991
0.0169873
0.0169693
0.016966
0.0169482
0.0169454
0.0169276
0.0169253
0.0169077
0.0169058
0.0168883
0.0168868
0.0168693
0.0168682
0.0168508
0.01685
0.0168327
0.0168323
0.016815
0.0168148
0.0167976
0.0167978
0.0167806
0.016781
0.0167639
0.0167645
0.0167475
0.0167483
0.0167314
0.0167324
0.0167156
0.0167167
0.0167001
0.0167012
0.0166846
0.016686
0.0166701
0.0166706
0.0166539
0.0166557
0.0166356
0.0166775
0.0165788
0.0177361
0.0177417
0.0177441
0.0177366
0.0177278
0.0177113
0.0176958
0.0176739
0.0176545
0.0176296
0.0176082
0.0175818
0.0175598
0.017533
0.0175111
0.0174845
0.0174634
0.0174374
0.0174172
0.017392
0.017373
0.0173486
0.0173308
0.0173072
0.0172906
0.0172679
0.0172523
0.0172304
0.0172159
0.0171948
0.0171813
0.0171607
0.0171482
0.0171283
0.0171166
0.0170972
0.0170864
0.0170674
0.0170574
0.0170389
0.0170295
0.0170114
0.0170027
0.0169849
0.0169768
0.0169593
0.0169519
0.0169347
0.0169277
0.0169108
0.0169043
0.0168876
0.0168817
0.0168652
0.0168597
0.0168434
0.0168383
0.0168222
0.0168175
0.0168016
0.0167973
0.0167816
0.0167776
0.0167621
0.0167583
0.016743
0.0167395
0.0167244
0.0167211
0.0167062
0.0167031
0.0166884
0.0166855
0.016671
0.0166682
0.0166539
0.0166512
0.0166372
0.0166345
0.0166208
0.016618
0.0166046
0.0166018
0.0165888
0.0165858
0.0165732
0.0165701
0.0165578
0.0165546
0.0165428
0.0165393
0.0165281
0.0165238
0.0165126
0.0165102
0.0165011
0.0164942
0.0164944
0.0164434
0.0165136
0.0174993
0.017505
0.017509
0.017504
0.0174979
0.0174846
0.0174723
0.017454
0.017438
0.0174168
0.0173987
0.017376
0.0173572
0.0173339
0.017315
0.0172918
0.0172735
0.0172507
0.0172331
0.0172109
0.0171942
0.0171727
0.0171569
0.0171361
0.0171212
0.0171011
0.0170871
0.0170676
0.0170545
0.0170356
0.0170233
0.0170049
0.0169934
0.0169755
0.0169646
0.0169471
0.016937
0.0169199
0.0169103
0.0168936
0.0168846
0.0168681
0.0168597
0.0168436
0.0168357
0.0168197
0.0168123
0.0167966
0.0167896
0.0167741
0.0167676
0.0167523
0.0167462
0.016731
0.0167253
0.0167103
0.0167049
0.0166902
0.0166851
0.0166705
0.0166657
0.0166513
0.0166468
0.0166325
0.0166283
0.0166142
0.0166102
0.0165962
0.0165924
0.0165786
0.016575
0.0165614
0.0165578
0.0165444
0.016541
0.0165278
0.0165245
0.0165115
0.0165082
0.0164954
0.0164921
0.0164796
0.0164763
0.0164641
0.0164607
0.0164488
0.0164453
0.0164338
0.0164301
0.0164189
0.0164152
0.0164045
0.0164
0.0163892
0.0163869
0.0163781
0.0163713
0.0163718
0.0163216
0.0163907
0.0173196
0.0173253
0.0173302
0.0173264
0.0173224
0.0173112
0.0173014
0.0172855
0.0172722
0.0172535
0.0172382
0.0172181
0.0172019
0.0171812
0.0171648
0.0171441
0.017128
0.0171075
0.017092
0.017072
0.0170571
0.0170377
0.0170235
0.0170047
0.0169911
0.0169729
0.0169601
0.0169424
0.0169302
0.016913
0.0169015
0.0168848
0.0168738
0.0168575
0.0168471
0.0168312
0.0168213
0.0168058
0.0167963
0.0167811
0.0167721
0.0167572
0.0167485
0.016734
0.0167257
0.0167114
0.0167035
0.0166895
0.0166818
0.0166681
0.0166607
0.0166472
0.0166401
0.0166268
0.01662
0.016607
0.0166003
0.0165876
0.0165811
0.0165686
0.0165622
0.01655
0.0165438
0.0165319
0.0165258
0.0165141
0.016508
0.0164967
0.0164906
0.0164796
0.0164735
0.0164628
0.0164567
0.0164463
0.0164401
0.0164302
0.0164238
0.0164142
0.0164077
0.0163986
0.0163918
0.0163832
0.0163761
0.016368
0.0163607
0.0163531
0.0163454
0.0163385
0.0163302
0.016324
0.0163153
0.0163098
0.0163003
0.0162953
0.0162865
0.0162823
0.016266
0.0162676
0.0162665
0.016253
0.0171845
0.0171899
0.0171954
0.017192
0.0171893
0.017179
0.017171
0.0171564
0.0171451
0.0171277
0.0171144
0.0170956
0.0170814
0.0170619
0.0170476
0.017028
0.0170137
0.0169944
0.0169806
0.0169616
0.0169483
0.0169298
0.0169171
0.0168991
0.016887
0.0168695
0.016858
0.016841
0.01683
0.0168135
0.016803
0.0167869
0.0167769
0.0167612
0.0167517
0.0167363
0.0167272
0.0167122
0.0167035
0.0166888
0.0166804
0.016666
0.016658
0.0166439
0.0166361
0.0166222
0.0166147
0.0166012
0.0165939
0.0165806
0.0165735
0.0165605
0.0165536
0.0165408
0.0165341
0.0165216
0.0165151
0.0165028
0.0164964
0.0164844
0.0164781
0.0164663
0.0164601
0.0164486
0.0164425
0.0164313
0.0164251
0.0164143
0.0164081
0.0163976
0.0163913
0.0163811
0.0163748
0.016365
0.0163585
0.0163491
0.0163425
0.0163335
0.0163266
0.0163181
0.016311
0.0163029
0.0162955
0.016288
0.0162802
0.0162733
0.0162651
0.0162589
0.0162502
0.0162446
0.0162354
0.0162306
0.0162206
0.0162161
0.0162063
0.0162037
0.0161922
0.0161938
0.0161433
0.0162145
0.0170741
0.0170791
0.0170849
0.0170816
0.0170799
0.0170701
0.0170635
0.0170495
0.0170397
0.0170232
0.0170116
0.0169936
0.0169811
0.0169624
0.0169497
0.016931
0.0169184
0.0168998
0.0168876
0.0168693
0.0168576
0.0168397
0.0168286
0.0168111
0.0168005
0.0167835
0.0167734
0.0167568
0.0167472
0.016731
0.0167218
0.0167059
0.0166972
0.0166817
0.0166733
0.0166581
0.0166501
0.0166351
0.0166274
0.0166128
0.0166054
0.016591
0.0165838
0.0165697
0.0165627
0.0165488
0.0165421
0.0165285
0.0165219
0.0165085
0.0165022
0.016489
0.0164828
0.0164698
0.0164638
0.0164511
0.0164451
0.0164327
0.0164268
0.0164146
0.0164088
0.0163969
0.0163912
0.0163795
0.0163738
0.0163624
0.0163567
0.0163457
0.0163399
0.0163292
0.0163233
0.0163129
0.0163069
0.0162969
0.0162908
0.0162812
0.0162749
0.0162657
0.0162592
0.0162504
0.0162436
0.0162354
0.0162283
0.0162206
0.0162131
0.016206
0.0161981
0.0161916
0.0161833
0.0161774
0.0161685
0.0161634
0.0161541
0.0161498
0.0161385
0.0161347
0.0161258
0.0161186
0.0161116
0.0161041
0.0169865
0.016991
0.0169968
0.0169936
0.0169926
0.0169833
0.0169777
0.0169645
0.016956
0.0169403
0.0169301
0.0169129
0.016902
0.0168841
0.0168729
0.0168548
0.0168438
0.0168257
0.0168151
0.0167972
0.016787
0.0167693
0.0167596
0.0167423
0.016733
0.016716
0.0167072
0.0166904
0.0166821
0.0166655
0.0166576
0.0166413
0.0166338
0.0166177
0.0166105
0.0165946
0.0165878
0.0165721
0.0165656
0.0165501
0.0165439
0.0165285
0.0165226
0.0165074
0.0165017
0.0164867
0.0164812
0.0164664
0.0164611
0.0164466
0.0164414
0.016427
0.0164221
0.0164079
0.0164031
0.0163891
0.0163844
0.0163707
0.0163661
0.0163526
0.0163481
0.0163349
0.0163304
0.0163174
0.016313
0.0163003
0.0162959
0.0162835
0.016279
0.016267
0.0162624
0.0162507
0.016246
0.0162347
0.0162298
0.016219
0.0162139
0.0162035
0.0161981
0.0161883
0.0161825
0.0161732
0.0161672
0.0161585
0.0161519
0.0161439
0.0161369
0.0161296
0.016122
0.0161154
0.0161072
0.0161015
0.0160927
0.0160881
0.0160775
0.0160725
0.0160581
0.0160508
0.0160927
0.016001
0.0169222
0.0169264
0.0169318
0.0169287
0.0169278
0.0169191
0.0169138
0.0169013
0.0168932
0.0168783
0.0168685
0.016852
0.0168415
0.0168242
0.0168133
0.0167956
0.0167848
0.016767
0.0167565
0.0167386
0.0167286
0.0167108
0.0167011
0.0166834
0.0166742
0.0166566
0.0166479
0.0166304
0.0166222
0.0166048
0.0165971
0.0165799
0.0165727
0.0165556
0.0165488
0.0165319
0.0165256
0.0165087
0.0165029
0.0164861
0.0164808
0.0164641
0.0164592
0.0164426
0.0164381
0.0164214
0.0164173
0.0164007
0.016397
0.0163804
0.0163772
0.0163606
0.0163578
0.0163412
0.0163388
0.0163222
0.0163202
0.0163037
0.016302
0.0162855
0.0162842
0.0162677
0.0162667
0.0162503
0.0162496
0.0162331
0.0162328
0.0162164
0.0162163
0.0161999
0.0162001
0.0161837
0.0161841
0.0161677
0.0161684
0.0161521
0.016153
0.0161366
0.0161378
0.0161214
0.0161227
0.0161065
0.0161079
0.0160917
0.0160933
0.0160772
0.0160789
0.0160629
0.0160646
0.0160488
0.0160505
0.0160347
0.0160367
0.0160213
0.0160219
0.0160069
0.0160141
0.0159948
0.0159886
0.0159752
0.0168721
0.016876
0.0168809
0.0168777
0.0168764
0.0168677
0.0168619
0.0168492
0.0168403
0.0168249
0.016814
0.0167969
0.0167849
0.0167668
0.0167544
0.0167359
0.0167235
0.0167049
0.0166926
0.0166737
0.0166616
0.0166427
0.016631
0.0166124
0.0166015
0.0165833
0.0165731
0.0165555
0.016546
0.0165288
0.0165201
0.0165033
0.0164954
0.016479
0.0164717
0.0164556
0.0164489
0.0164331
0.016427
0.0164113
0.0164058
0.0163903
0.0163852
0.01637
0.0163653
0.0163503
0.0163461
0.0163311
0.0163274
0.0163125
0.0163091
0.0162943
0.0162912
0.0162765
0.0162738
0.0162591
0.0162567
0.016242
0.0162399
0.0162252
0.0162234
0.0162087
0.0162072
0.0161925
0.0161913
0.0161766
0.0161756
0.0161609
0.0161601
0.0161455
0.0161449
0.0161302
0.0161299
0.0161152
0.0161151
0.0161004
0.0161004
0.0160858
0.016086
0.0160714
0.0160717
0.0160571
0.0160576
0.0160431
0.0160437
0.0160292
0.0160299
0.0160155
0.0160163
0.0160019
0.0160028
0.0159884
0.0159896
0.0159758
0.0159762
0.0159616
0.0159633
0.0159455
0.015985
0.0158938
0.0168358
0.0168374
0.0168395
0.0168323
0.0168267
0.0168129
0.0168022
0.0167843
0.0167706
0.0167504
0.0167356
0.0167147
0.0166999
0.0166792
0.0166651
0.0166451
0.0166321
0.016613
0.0166014
0.0165837
0.0165736
0.0165572
0.0165483
0.0165327
0.0165248
0.0165097
0.0165026
0.016488
0.0164815
0.0164671
0.0164611
0.016447
0.0164414
0.0164274
0.0164222
0.0164083
0.0164034
0.0163896
0.0163849
0.0163711
0.0163668
0.016353
0.0163489
0.0163352
0.0163313
0.0163176
0.0163139
0.0163002
0.0162968
0.0162831
0.0162799
0.0162662
0.0162632
0.0162495
0.0162467
0.0162331
0.0162305
0.0162169