/*--------------------------------*- C++ -*----------------------------------*\
  =========                 |
  \\      /  F ield         | OpenFOAM: The Open Source CFD Toolbox
   \\    /   O peration     | Website:  https://openfoam.org
    \\  /    A nd           | Version:  8
     \\/     M anipulation  |
\*---------------------------------------------------------------------------*/
FoamFile
{
    version     2.0;
    format      ascii;
    class       volScalarField;
    location    "0.999962";
    object      p;
}
// * * * * * * * * * * * * * * * * * * * * * * * * * * * * * * * * * * * * * //

dimensions      [1 -1 -2 0 0 0 0];

internalField   nonuniform List<scalar> 
6800
(
99487.2
99819.6
99853.5
99876
99921
99971.6
100027
100086
100145
100192
99046.3
99615.6
99610.7
99658.5
99734.6
99807.6
99881.8
99958.1
100033
100103
98346.2
99246.1
99241.2
99360.5
99487.9
99599
99705.1
99808.5
99907.7
100001
97462
98734.9
98763.4
98995.4
99190.4
99353.9
99502.3
99640.1
99767.9
99886
96471.7
98123
98213.6
98587.5
98859.6
99086.5
99284.5
99461.2
99620.4
99764
95455.1
97462.3
97637.8
98167
98518.9
98815.3
99065.6
99283.4
99474.9
99644.4
94488.4
96806.5
97083.6
97765.7
98193.7
98560.5
98861.8
99119.8
99342.6
99537.1
93637.9
96206.6
96593.2
97413.3
97909.3
98341.9
98689.3
98984
99234.4
99451.6
92955.8
95705.8
96202.2
97136
97688.6
98177.5
98563.1
98888.7
99161.4
99397.7
92479.1
95338.9
95936.7
96952.9
97549.9
98081.9
98496.2
98844.5
99132.6
99383.7
100334
100207
100162
100169
100210
100275
100363
100469
100584
100701
100285
100177
100134
100137
100174
100237
100326
100437
100562
100689
100196
100116
100084
100086
100121
100187
100280
100399
100537
100683
100091
100048
100033
100041
100078
100151
100257
100382
100523
100679
99997.1
99995.1
100002
100024
100070
100151
100258
100378
100508
100657
99926.6
99969.6
100006
100041
100097
100176
100269
100373
100484
100611
99872.5
99972.9
100032
100078
100131
100196
100273
100360
100452
100553
99805.6
99966.3
100047
100096
100142
100196
100260
100332
100405
100486
99733.7
99923.7
100031
100077
100116
100162
100217
100279
100344
100415
99675.1
99879.5
99975.4
100010
100046
100089
100140
100197
100260
100330
100834
100967
101073
101160
101231
101287
101334
101372
101404
101431
101453
101471
101486
101499
101509
101516
101522
101526
101529
101531
101531
101531
101530
101528
101526
101523
101519
101515
101511
101507
101503
101498
101494
101489
101484
101479
101474
101470
101465
101460
101455
101451
101446
101442
101438
101433
101429
101425
101421
101418
101414
101410
101407
101404
101401
101397
101394
101391
101389
101386
101383
101381
101378
101376
101374
101372
101370
101368
101366
101364
101362
101360
101359
101357
101356
101354
101353
101351
101350
101349
101347
101346
101345
101344
101343
101342
101340
101339
101338
101337
101336
101335
101334
101333
101333
101332
101331
101330
101330
101330
100819
100957
101065
101152
101222
101280
101327
101367
101399
101426
101449
101468
101484
101496
101506
101514
101520
101525
101528
101530
101530
101530
101529
101527
101525
101522
101519
101515
101511
101507
101502
101498
101493
101488
101484
101479
101474
101469
101465
101460
101455
101451
101446
101442
101437
101433
101429
101425
101421
101418
101414
101410
101407
101404
101400
101397
101394
101391
101389
101386
101383
101381
101378
101376
101374
101372
101370
101368
101366
101364
101362
101360
101359
101357
101356
101354
101353
101351
101350
101349
101347
101346
101345
101344
101343
101342
101340
101339
101338
101337
101336
101335
101334
101333
101333
101332
101331
101330
101330
101329
100800
100937
101046
101134
101207
101266
101315
101356
101390
101419
101442
101462
101478
101492
101502
101511
101517
101522
101525
101527
101528
101528
101527
101526
101523
101521
101517
101514
101510
101506
101502
101497
101492
101488
101483
101478
101474
101469
101464
101459
101455
101450
101446
101441
101437
101433
101429
101425
101421
101417
101414
101410
101407
101403
101400
101397
101394
101391
101388
101386
101383
101381
101378
101376
101374
101372
101370
101368
101366
101364
101362
101360
101359
101357
101356
101354
101353
101351
101350
101349
101347
101346
101345
101344
101343
101341
101340
101339
101338
101337
101336
101335
101334
101333
101332
101332
101331
101330
101329
101329
100765
100899
101015
101108
101183
101245
101298
101341
101377
101407
101432
101453
101471
101485
101496
101505
101512
101518
101521
101524
101525
101525
101525
101523
101521
101519
101516
101512
101508
101504
101500
101496
101491
101487
101482
101477
101473
101468
101463
101459
101454
101450
101445
101441
101437
101432
101428
101424
101421
101417
101413
101410
101406
101403
101400
101397
101394
101391
101388
101385
101383
101380
101378
101376
101374
101371
101369
101367
101365
101364
101362
101360
101359
101357
101355
101354
101352
101351
101350
101348
101347
101346
101345
101344
101343
101341
101340
101339
101338
101337
101336
101335
101334
101333
101332
101331
101331
101330
101329
101328
100703
100836
100968
101070
101150
101217
101273
101321
101360
101392
101420
101442
101461
101476
101488
101498
101506
101512
101516
101519
101521
101521
101521
101520
101518
101516
101513
101510
101506
101502
101498
101494
101490
101485
101481
101476
101472
101467
101462
101458
101453
101449
101444
101440
101436
101432
101428
101424
101420
101416
101413
101409
101406
101403
101399
101396
101393
101390
101388
101385
101383
101380
101378
101375
101373
101371
101369
101367
101365
101363
101362
101360
101358
101357
101355
101354
101352
101351
101350
101348
101347
101346
101345
101344
101342
101341
101340
101339
101338
101337
101336
101335
101334
101333
101332
101331
101330
101329
101328
101328
100623
100756
100904
101017
101104
101176
101238
101290
101334
101370
101400
101425
101446
101463
101477
101488
101497
101504
101509
101513
101515
101516
101517
101516
101515
101513
101510
101507
101504
101500
101496
101492
101488
101483
101479
101474
101470
101465
101461
101456
101452
101448
101443
101439
101435
101431
101427
101423
101419
101416
101412
101409
101405
101402
101399
101396
101393
101390
101387
101385
101382
101380
101377
101375
101373
101371
101369
101367
101365
101363
101361
101360
101358
101356
101355
101354
101352
101351
101349
101348
101347
101346
101345
101343
101342
101341
101340
101339
101338
101337
101336
101335
101334
101333
101332
101331
101330
101329
101328
101327
100545
100674
100830
100954
101048
101126
101193
101250
101298
101338
101372
101400
101424
101443
101459
101473
101483
101492
101498
101503
101506
101508
101510
101510
101509
101508
101506
101503
101500
101497
101493
101490
101486
101481
101477
101473
101468
101464
101460
101455
101451
101446
101442
101438
101434
101430
101426
101422
101418
101415
101411
101408
101404
101401
101398
101395
101392
101389
101387
101384
101381
101379
101377
101375
101372
101370
101368
101366
101365
101363
101361
101359
101358
101356
101355
101353
101352
101351
101349
101348
101347
101346
101344
101343
101342
101341
101340
101339
101338
101337
101336
101335
101334
101333
101332
101331
101330
101329
101327
101326
100477
100599
100755
100886
100989
101073
101145
101206
101259
101303
101340
101371
101397
101419
101437
101452
101465
101475
101483
101489
101493
101496
101498
101499
101499
101499
101497
101496
101493
101491
101487
101484
101481
101477
101473
101469
101465
101461
101457
101453
101448
101444
101440
101436
101432
101429
101425
101421
101417
101414
101410
101407
101404
101401
101397
101394
101392
101389
101386
101384
101381
101379
101376
101374
101372
101370
101368
101366
101364
101362
101361
101359
101357
101356
101354
101353
101352
101350
101349
101348
101346
101345
101344
101343
101342
101341
101340
101339
101338
101337
101336
101335
101334
101333
101332
101331
101330
101328
101327
101325
100418
100531
100680
100815
100925
101018
101096
101163
101220
101268
101309
101343
101372
101397
101417
101434
101448
101459
101468
101476
101481
101485
101488
101490
101490
101490
101489
101488
101486
101484
101481
101478
101475
101471
101468
101464
101460
101456
101452
101449
101445
101441
101437
101433
101429
101425
101422
101418
101415
101411
101408
101405
101402
101399
101396
101393
101390
101388
101385
101383
101380
101378
101376
101373
101371
101369
101367
101365
101364
101362
101360
101359
101357
101355
101354
101353
101351
101350
101349
101347
101346
101345
101344
101343
101342
101341
101340
101339
101338
101337
101336
101335
101334
101333
101332
101331
101329
101328
101327
101325
100366
100470
100602
100731
100845
100944
101028
101101
101164
101218
101264
101303
101336
101364
101388
101408
101424
101438
101449
101458
101465
101470
101475
101477
101479
101480
101480
101479
101478
101476
101474
101472
101469
101466
101463
101459
101456
101452
101448
101445
101441
101437
101434
101430
101426
101423
101419
101416
101412
101409
101406
101403
101400
101397
101394
101391
101388
101386
101383
101381
101379
101376
101374
101372
101370
101368
101366
101364
101363
101361
101359
101358
101356
101355
101353
101352
101351
101350
101348
101347
101346
101345
101344
101343
101342
101341
101340
101339
101338
101337
101336
101335
101334
101333
101332
101331
101329
101328
101327
101325
100340
100459
100583
100706
100817
100915
101001
101075
101139
101194
101241
101282
101316
101346
101370
101391
101409
101423
101435
101445
101453
101459
101464
101467
101469
101471
101471
101471
101470
101469
101467
101465
101462
101460
101457
101453
101450
101447
101443
101440
101436
101433
101429
101426
101422
101419
101416
101412
101409
101406
101403
101400
101397
101394
101391
101389
101386
101384
101381
101379
101377
101374
101372
101370
101368
101366
101365
101363
101361
101360
101358
101356
101355
101354
101352
101351
101350
101348
101347
101346
101345
101344
101343
101342
101341
101340
101339
101338
101337
101336
101335
101334
101333
101332
101331
101330
101329
101328
101327
101325
100369
100492
100613
100729
100834
100926
101006
101076
101137
101190
101235
101274
101308
101336
101360
101381
101398
101413
101425
101434
101442
101449
101453
101457
101460
101461
101462
101462
101461
101460
101459
101457
101454
101452
101449
101446
101443
101440
101437
101434
101430
101427
101424
101421
101417
101414
101411
101408
101405
101402
101399
101396
101393
101391
101388
101385
101383
101381
101378
101376
101374
101372
101370
101368
101366
101364
101363
101361
101359
101358
101356
101355
101354
101352
101351
101350
101349
101347
101346
101345
101344
101343
101342
101341
101340
101339
101338
101337
101336
101336
101335
101334
101333
101332
101331
101330
101329
101328
101327
101325
100400
100516
100632
100740
100837
100923
100999
101067
101126
101177
101222
101261
101294
101322
101347
101368
101385
101400
101412
101422
101431
101437
101443
101447
101449
101451
101452
101453
101452
101452
101450
101449
101447
101445
101442
101440
101437
101434
101431
101428
101425
101422
101419
101416
101413
101410
101407
101404
101401
101398
101395
101393
101390
101388
101385
101383
101380
101378
101376
101374
101372
101370
101368
101366
101364
101363
101361
101359
101358
101356
101355
101354
101352
101351
101350
101349
101347
101346
101345
101344
101343
101342
101341
101340
101339
101338
101338
101337
101336
101335
101334
101333
101332
101332
101331
101330
101329
101328
101327
101326
100438
100546
100657
100759
100850
100931
101003
101068
101124
101173
101217
101254
101286
101314
101338
101359
101376
101391
101403
101413
101421
101428
101433
101437
101440
101442
101444
101444
101444
101444
101443
101441
101439
101437
101435
101433
101430
101428
101425
101422
101419
101416
101414
101411
101408
101405
101402
101399
101397
101394
101392
101389
101387
101384
101382
101380
101377
101375
101373
101371
101369
101367
101366
101364
101362
101361
101359
101358
101356
101355
101353
101352
101351
101350
101348
101347
101346
101345
101344
101343
101342
101341
101340
101339
101339
101338
101337
101336
101335
101334
101334
101333
101332
101331
101330
101329
101328
101328
101327
101326
100482
100581
100685
100780
100865
100940
101008
101069
101122
101170
101211
101247
101278
101305
101329
101349
101366
101380
101393
101403
101411
101418
101423
101428
101431
101433
101435
101435
101436
101435
101435
101433
101432
101430
101428
101426
101424
101421
101419
101416
101414
101411
101408
101406
101403
101400
101398
101395
101393
101390
101388
101385
101383
101381
101379
101377
101375
101372
101371
101369
101367
101365
101363
101362
101360
101359
101357
101356
101354
101353
101352
101351
101349
101348
101347
101346
101345
101344
101343
101342
101341
101340
101340
101339
101338
101337
101336
101335
101335
101334
101333
101332
101332
101331
101330
101329
101328
101327
101326
101326
100530
100620
100716
100805
100883
100954
101017
101074
101125
101169
101209
101243
101273
101299
101322
101342
101358
101372
101384
101394
101403
101409
101415
101419
101422
101425
101426
101427
101428
101427
101427
101426
101425
101423
101421
101419
101417
101415
101413
101410
101408
101406
101403
101401
101398
101396
101393
101391
101389
101386
101384
101382
101380
101377
101375
101373
101371
101370
101368
101366
101364
101363
101361
101360
101358
101357
101355
101354
101353
101351
101350
101349
101348
101347
101346
101345
101344
101343
101342
101341
101340
101339
101339
101338
101337
101336
101336
101335
101334
101333
101333
101332
101331
101330
101330
101329
101328
101327
101326
101326
100582
100662
100751
100832
100905
100969
101028
101081
101129
101171
101208
101241
101269
101294
101316
101335
101351
101365
101376
101386
101394
101401
101406
101410
101414
101416
101418
101419
101420
101420
101419
101418
101417
101416
101414
101413
101411
101409
101407
101405
101402
101400
101398
101396
101393
101391
101389
101386
101384
101382
101380
101378
101376
101374
101372
101370
101368
101367
101365
101363
101362
101360
101359
101357
101356
101355
101353
101352
101351
101350
101349
101348
101346
101345
101345
101344
101343
101342
101341
101340
101339
101339
101338
101337
101336
101336
101335
101334
101333
101333
101332
101331
101331
101330
101329
101329
101328
101327
101326
101326
100636
100707
100788
100862
100928
100988
101042
101091
101135
101175
101209
101240
101267
101291
101312
101329
101345
101358
101369
101378
101386
101393
101398
101402
101406
101408
101410
101411
101412
101412
101412
101411
101410
101409
101408
101406
101404
101403
101401
101399
101397
101395
101392
101390
101388
101386
101384
101382
101380
101378
101376
101374
101372
101371
101369
101367
101365
101364
101362
101361
101359
101358
101356
101355
101354
101353
101351
101350
101349
101348
101347
101346
101345
101344
101343
101342
101341
101341
101340
101339
101338
101338
101337
101336
101335
101335
101334
101333
101333
101332
101332
101331
101330
101330
101329
101328
101328
101327
101326
101326
100692
100755
100827
100894
100954
101009
101058
101103
101144
101180
101213
101241
101267
101289
101308
101325
101339
101352
101363
101372
101379
101385
101391
101395
101398
101400
101402
101403
101404
101404
101404
101404
101403
101402
101401
101399
101398
101396
101395
101393
101391
101389
101387
101385
101383
101381
101379
101378
101376
101374
101372
101370
101369
101367
101365
101364
101362
101361
101359
101358
101357
101355
101354
101353
101352
101350
101349
101348
101347
101346
101345
101344
101343
101343
101342
101341
101340
101339
101339
101338
101337
101337
101336
101335
101335
101334
101333
101333
101332
101332
101331
101330
101330
101329
101329
101328
101327
101327
101326
101326
100749
100804
100868
100928
100982
101031
101076
101117
101154
101188
101217
101244
101267
101288
101306
101322
101335
101347
101357
101365
101372
101378
101383
101387
101390
101393
101395
101396
101397
101397
101397
101396
101396
101395
101394
101393
101391
101390
101388
101387
101385
101383
101382
101380
101378
101377
101375
101373
101371
101370
101368
101367
101365
101363
101362
101361
101359
101358
101356
101355
101354
101353
101352
101350
101349
101348
101347
101346
101345
101344
101344
101343
101342
101341
101340
101340
101339
101338
101338
101337
101336
101336
101335
101334
101334
101333
101333
101332
101332
101331
101331
101330
101329
101329
101328
101328
101327
101327
101326
101325
100806
100853
100910
100964
101012
101055
101096
101133
101166
101196
101224
101248
101269
101288
101305
101319
101332
101342
101352
101360
101366
101372
101376
101380
101383
101386
101387
101388
101389
101390
101390
101389
101389
101388
101387
101386
101385
101384
101382
101381
101379
101378
101376
101375
101373
101372
101370
101369
101367
101366
101364
101363
101361
101360
101359
101357
101356
101355
101353
101352
101351
101350
101349
101348
101347
101346
101345
101344
101343
101343
101342
101341
101340
101340
101339
101338
101338
101337
101336
101336
101335
101335
101334
101334
101333
101332
101332
101331
101331
101330
101330
101329
101329
101328
101328
101327
101327
101326
101326
101325
100864
100904
100953
101000
101042
101081
101117
101149
101179
101207
101231
101253
101272
101289
101304
101317
101329
101339
101347
101355
101361
101366
101370
101374
101376
101378
101380
101381
101382
101382
101383
101382
101382
101381
101381
101380
101379
101377
101376
101375
101374
101372
101371
101370
101368
101367
101365
101364
101363
101361
101360
101359
101357
101356
101355
101354
101353
101352
101351
101350
101349
101348
101347
101346
101345
101344
101343
101342
101342
101341
101340
101339
101339
101338
101337
101337
101336
101336
101335
101335
101334
101334
101333
101333
101332
101332
101331
101331
101330
101330
101329
101329
101329
101328
101328
101327
101327
101326
101326
101325
100921
100955
100997
101037
101074
101108
101139
101168
101194
101218
101240
101259
101276
101291
101305
101317
101327
101336
101343
101350
101355
101360
101364
101367
101370
101372
101373
101374
101375
101375
101375
101375
101375
101375
101374
101373
101372
101371
101370
101369
101368
101367
101366
101364
101363
101362
101361
101359
101358
101357
101356
101355
101354
101353
101352
101351
101350
101349
101348
101347
101346
101345
101344
101343
101343
101342
101341
101340
101340
101339
101338
101338
101337
101337
101336
101336
101335
101334
101334
101334
101333
101333
101332
101332
101331
101331
101331
101330
101330
101329
101329
101329
101328
101328
101327
101327
101327
101326
101326
101325
100977
101005
101041
101075
101106
101135
101162
101187
101210
101230
101249
101266
101281
101294
101306
101316
101325
101333
101340
101346
101351
101355
101358
101361
101363
101365
101366
101367
101368
101368
101369
101369
101368
101368
101367
101367
101366
101365
101364
101363
101362
101361
101360
101359
101358
101357
101356
101355
101354
101353
101352
101351
101350
101349
101348
101347
101346
101345
101345
101344
101343
101342
101342
101341
101340
101340
101339
101338
101338
101337
101337
101336
101336
101335
101335
101334
101334
101333
101333
101332
101332
101332
101331
101331
101331
101330
101330
101329
101329
101329
101328
101328
101328
101327
101327
101327
101326
101326
101326
101325
101033
101056
101085
101113
101139
101163
101186
101207
101226
101244
101259
101274
101286
101298
101308
101317
101324
101331
101337
101342
101346
101350
101353
101355
101357
101359
101360
101361
101361
101362
101362
101362
101362
101361
101361
101360
101360
101359
101358
101357
101356
101356
101355
101354
101353
101352
101351
101350
101349
101349
101348
101347
101346
101345
101345
101344
101343
101342
101342
101341
101340
101340
101339
101338
101338
101337
101337
101336
101336
101335
101335
101334
101334
101334
101333
101333
101332
101332
101332
101331
101331
101331
101330
101330
101330
101329
101329
101329
101328
101328
101328
101328
101327
101327
101327
101326
101326
101326
101326
101325
101088
101106
101129
101152
101173
101192
101211
101227
101243
101257
101270
101282
101293
101302
101310
101317
101324
101329
101334
101338
101342
101345
101347
101349
101351
101352
101353
101354
101355
101355
101355
101355
101355
101355
101354
101354
101353
101353
101352
101351
101351
101350
101349
101349
101348
101347
101346
101346
101345
101344
101344
101343
101342
101342
101341
101340
101340
101339
101339
101338
101338
101337
101337
101336
101336
101335
101335
101334
101334
101333
101333
101333
101332
101332
101332
101331
101331
101331
101330
101330
101330
101330
101329
101329
101329
101329
101328
101328
101328
101328
101327
101327
101327
101327
101326
101326
101326
101326
101325
101325
101142
101156
101173
101191
101207
101222
101236
101249
101261
101272
101282
101291
101299
101307
101313
101319
101324
101328
101332
101335
101338
101340
101342
101344
101345
101346
101347
101347
101348
101348
101348
101348
101348
101348
101348
101347
101347
101347
101346
101346
101345
101345
101344
101343
101343
101342
101342
101341
101341
101340
101340
101339
101338
101338
101337
101337
101337
101336
101336
101335
101335
101334
101334
101334
101333
101333
101333
101332
101332
101332
101331
101331
101331
101330
101330
101330
101330
101329
101329
101329
101329
101329
101328
101328
101328
101328
101328
101327
101327
101327
101327
101327
101326
101326
101326
101326
101326
101326
101325
101325
101195
101205
101217
101229
101240
101251
101261
101270
101279
101287
101294
101301
101306
101312
101316
101320
101324
101327
101330
101332
101334
101336
101337
101338
101339
101340
101341
101341
101341
101342
101342
101342
101342
101341
101341
101341
101341
101340
101340
101340
101339
101339
101339
101338
101338
101337
101337
101337
101336
101336
101335
101335
101335
101334
101334
101334
101333
101333
101333
101332
101332
101332
101331
101331
101331
101331
101330
101330
101330
101330
101329
101329
101329
101329
101329
101329
101328
101328
101328
101328
101328
101328
101327
101327
101327
101327
101327
101327
101327
101326
101326
101326
101326
101326
101326
101326
101326
101325
101325
101325
101248
101253
101260
101268
101274
101281
101287
101292
101297
101302
101306
101310
101314
101317
101320
101322
101324
101326
101328
101329
101330
101331
101332
101333
101334
101334
101334
101335
101335
101335
101335
101335
101335
101335
101335
101335
101334
101334
101334
101334
101334
101333
101333
101333
101333
101332
101332
101332
101332
101331
101331
101331
101331
101331
101330
101330
101330
101330
101330
101329
101329
101329
101329
101329
101329
101328
101328
101328
101328
101328
101328
101328
101327
101327
101327
101327
101327
101327
101327
101327
101327
101327
101326
101326
101326
101326
101326
101326
101326
101326
101326
101326
101326
101326
101325
101325
101325
101325
101325
101325
101299
101301
101304
101306
101308
101310
101312
101314
101316
101317
101319
101320
101321
101322
101323
101324
101325
101325
101326
101326
101327
101327
101327
101328
101328
101328
101328
101328
101328
101328
101328
101328
101328
101328
101328
101328
101328
101328
101328
101328
101328
101328
101328
101328
101328
101327
101327
101327
101327
101327
101327
101327
101327
101327
101327
101327
101327
101327
101327
101326
101326
101326
101326
101326
101326
101326
101326
101326
101326
101326
101326
101326
101326
101326
101326
101326
101326
101326
101326
101326
101326
101326
101325
101325
101325
101325
101325
101325
101325
101325
101325
101325
101325
101325
101325
101325
101325
101325
101325
101325
99598.1
99604.4
99644.7
99712.1
99799.1
99897.5
99999.6
100097
100180
100227
99778.1
99775.9
99801
99848.1
99912.1
99986.9
100067
100147
100219
100264
99940.6
99931.4
99944.3
99975.5
100021
100077
100138
100201
100263
100308
100083
100070
100075
100096
100129
100171
100218
100268
100319
100359
100211
100196
100196
100208
100232
100263
100299
100339
100380
100415
100326
100310
100306
100313
100329
100352
100380
100411
100444
100474
100430
100414
100408
100410
100421
100437
100459
100483
100510
100535
100525
100509
100502
100502
100508
100520
100536
100555
100576
100597
100613
100597
100589
100587
100591
100599
100611
100626
100643
100660
100694
100679
100671
100667
100669
100674
100683
100695
100709
100723
100769
100756
100747
100743
100743
100747
100753
100762
100773
100786
100840
100827
100819
100815
100814
100817
100821
100828
100837
100847
100906
100895
100888
100884
100882
100883
100887
100892
100899
100907
100969
100959
100953
100949
100947
100948
100950
100954
100960
100967
101029
101021
101015
101012
101010
101010
101012
101015
101019
101025
101086
101080
101075
101072
101070
101070
101071
101074
101077
101082
101142
101137
101133
101131
101129
101129
101130
101131
101134
101137
101195
101192
101189
101187
101186
101186
101187
101188
101189
101192
101248
101246
101244
101243
101243
101242
101243
101243
101244
101246
101299
101299
101298
101298
101298
101298
101298
101298
101298
101299
101719
101677
101601
101500
101362
101169
100898
100480
100004
98714.8
101370
101278
101155
101006
100810
100545
100188
99651.6
99083.1
97513.4
101006
100875
100714
100521
100270
99935.8
99500.9
98846.6
98197.5
96355.1
100659
100492
100297
100061
99758.4
99360.9
98855.5
98089.6
97374.5
95275.5
100342
100144
99916.9
99641.9
99292.6
98838.3
98273.5
97405.2
96641
94311.3
100062
99838.9
99584.4
99275.2
98887.1
98385
97774.7
96817.4
96023.5
93498.8
99826.6
99583.2
99307.6
98971.2
98554.3
98015.5
97376.2
96349.5
95546.4
92868.2
99638.9
99382.4
99092.5
98737.7
98303.4
97741.2
97090.7
96022.1
95231.1
92435.5
99502.3
99239.9
98942.8
98579.1
98139.5
97570
96924.1
95841.6
95091.9
92216.5
99417
99156.7
98860.4
98499
98066.5
97507.2
96879.5
95813.6
95129.2
92229.7
103961
104182
104396
104622
104872
105151
105452
105768
106083
106379
103929
104150
104364
104588
104836
105111
105408
105719
106022
106327
103839
104051
104254
104466
104701
104959
105236
105521
105789
106075
103700
103895
104083
104275
104486
104715
104955
105195
105403
105615
103514
103686
103852
104019
104197
104386
104578
104759
104888
104981
103284
103429
103568
103702
103840
103981
104113
104220
104260
104194
103016
103129
103236
103331
103423
103507
103570
103591
103532
103271
102716
102792
102864
102916
102955
102976
102961
102885
102721
102234
102392
102430
102462
102466
102448
102400
102302
102118
101848
101108
102045
102047
102037
101990
101912
101792
101608
101310
100934
99924.2
101328
101328
101328
101328
101328
101328
101328
101328
101328
101328
101328
101329
101329
101329
101329
101330
101330
101330
101330
101331
101331
101332
101332
101333
101333
101334
101334
101335
101336
101337
101337
101338
101339
101340
101342
101343
101344
101346
101347
101349
101351
101353
101355
101357
101359
101362
101365
101368
101371
101375
101378
101382
101387
101391
101396
101402
101408
101414
101420
101428
101435
101444
101453
101462
101473
101484
101496
101508
101522
101537
101553
101570
101588
101608
101630
101652
101677
101704
101732
101763
101797
101833
101872
101914
101960
102010
102065
102124
102190
102261
102341
102428
102526
102635
102759
102898
103058
103240
103452
103697
101328
101328
101328
101328
101328
101328
101328
101328
101328
101328
101328
101329
101329
101329
101329
101330
101330
101330
101330
101331
101331
101332
101332
101333
101333
101334
101334
101335
101336
101337
101337
101338
101339
101340
101342
101343
101344
101346
101347
101349
101351
101353
101355
101357
101359
101362
101365
101368
101371
101375
101378
101382
101387
101391
101396
101402
101407
101414
101420
101428
101435
101444
101453
101462
101472
101484
101495
101508
101522
101537
101553
101570
101588
101608
101630
101652
101677
101704
101732
101763
101797
101833
101872
101914
101960
102010
102064
102124
102189
102260
102339
102426
102523
102631
102753
102890
103047
103226
103432
103670
101328
101328
101328
101328
101328
101328
101328
101328
101328
101328
101328
101329
101329
101329
101329
101330
101330
101330
101330
101331
101331
101332
101332
101333
101333
101334
101334
101335
101336
101337
101337
101338
101339
101340
101342
101343
101344
101346
101347
101349
101351
101353
101355
101357
101359
101362
101365
101368
101371
101374
101378
101382
101387
101391
101396
101402
101407
101414
101420
101427
101435
101443
101452
101462
101472
101483
101495
101508
101522
101537
101553
101570
101588
101608
101629
101652
101677
101704
101732
101763
101797
101833
101871
101914
101959
102009
102063
102122
102186
102257
102335
102420
102515
102621
102739
102872
103022
103192
103385
103602
101328
101328
101328
101328
101328
101328
101328
101328
101328
101328
101328
101329
101329
101329
101329
101329
101330
101330
101330
101331
101331
101332
101332
101333
101333
101334
101334
101335
101336
101336
101337
101338
101339
101340
101341
101343
101344
101346
101347
101349
101351
101352
101355
101357
101359
101362
101365
101368
101371
101374
101378
101382
101386
101391
101396
101401
101407
101413
101420
101427
101435
101443
101452
101462
101472
101483
101495
101508
101522
101537
101553
101570
101588
101608
101629
101652
101677
101704
101732
101763
101796
101832
101871
101913
101958
102008
102061
102119
102183
102252
102328
102412
102504
102606
102719
102844
102984
103139
103312
103498
101328
101328
101328
101328
101328
101328
101328
101328
101328
101328
101328
101329
101329
101329
101329
101329
101330
101330
101330
101331
101331
101332
101332
101332
101333
101334
101334
101335
101336
101336
101337
101338
101339
101340
101341
101343
101344
101345
101347
101349
101350
101352
101354
101357
101359
101362
101364
101367
101371
101374
101378
101382
101386
101391
101396
101401
101407
101413
101420
101427
101435
101443
101452
101462
101472
101483
101495
101508
101522
101537
101552
101570
101588
101608
101629
101652
101677
101703
101732
101763
101796
101831
101870
101912
101957
102005
102058
102115
102178
102245
102319
102400
102488
102585
102690
102806
102932
103068
103212
103357
101328
101328
101328
101328
101328
101328
101328
101328
101328
101328
101328
101328
101329
101329
101329
101329
101330
101330
101330
101331
101331
101331
101332
101332
101333
101334
101334
101335
101336
101336
101337
101338
101339
101340
101341
101342
101344
101345
101347
101348
101350
101352
101354
101356
101359
101361
101364
101367
101370
101374
101378
101382
101386
101391
101396
101401
101407
101413
101420
101427
101435
101443
101452