/*--------------------------------*- C++ -*----------------------------------*\
  =========                 |
  \\      /  F ield         | OpenFOAM: The Open Source CFD Toolbox
   \\    /   O peration     | Website:  https://openfoam.org
    \\  /    A nd           | Version:  8
     \\/     M anipulation  |
\*---------------------------------------------------------------------------*/
FoamFile
{
    version     2.0;
    format      ascii;
    class       surfaceScalarField;
    location    "0.999962";
    object      phi;
}
// * * * * * * * * * * * * * * * * * * * * * * * * * * * * * * * * * * * * * //

dimensions      [1 0 -1 0 0 0 0];

internalField   nonuniform List<scalar> 
13330
(
0.583919
-0.770484
0.187226
1.17341
-2.17325
1.58395
1.66935
-2.66725
2.17136
2.10112
-2.9358
2.50398
2.47977
-3.08646
2.70775
2.81639
-3.16733
2.83064
3.12185
-3.20873
2.90322
3.40506
-3.2273
2.94405
3.67458
-3.23369
2.96414
-3.23452
2.96922
3.93986
0.633608
-1.40388
1.20037
-2.73991
1.65518
-3.12202
2.04368
-3.32429
2.37901
-3.4218
2.67536
-3.4637
2.94364
-3.47703
3.19187
-3.47555
3.42556
-3.4674
-3.45655
3.64759
0.62734
-2.0311
1.16243
-3.27492
1.57255
-3.53211
1.91859
-3.67031
2.21419
-3.71741
2.47435
-3.72388
2.70973
-3.71243
2.92773
-3.69356
3.13311
-3.67279
-3.65204
3.32858
0.595045
-2.6261
1.08199
-3.76183
1.44459
-3.89467
1.74996
-3.97568
2.0079
-3.97535
2.23527
-3.95125
2.44193
-3.91909
2.63448
-3.88612
2.81692
-3.85524
-3.82628
2.99114
0.546766
-3.17285
0.975367
-4.1904
1.29015
-4.20944
1.5553
-4.24081
1.77813
-4.19818
1.97608
-4.1492
2.15699
-4.10001
2.32619
-4.05533
2.48681
-4.01587
-3.97969
2.64022
0.489226
-3.66207
0.854399
-4.55556
1.12214
-4.47716
1.34841
-4.46708
1.53821
-4.38798
1.70816
-4.31914
1.86398
-4.25584
2.01005
-4.2014
2.14892
-4.15475
-4.11223
2.28146
0.426933
-4.089
0.727629
-4.85624
0.950974
-4.7005
1.13845
-4.65455
1.29626
-4.54578
1.43861
-4.46149
1.56924
-4.38648
1.69167
-4.32383
1.80788
-4.27095
-4.22247
1.91811
0.363309
-4.4523
0.601072
-5.094
0.781591
-4.88101
0.930741
-4.80369
1.05738
-4.67242
1.17148
-4.57559
1.27585
-4.49085
1.37332
-4.42129
1.4655
-4.36314
-4.30923
1.55225
0.300289
-4.75259
0.477914
-5.27161
0.617534
-5.02062
0.72853
-4.91468
0.823762
-4.76764
0.908544
-4.66037
0.985511
-4.56781
1.05678
-4.49256
1.12369
-4.43004
-4.37132
1.18578
0.239053
-4.99163
0.359956
-5.39251
0.459591
-5.12025
0.532717
-4.9878
0.596268
-4.83119
0.650678
-4.71478
0.699074
-4.61621
0.742879
-4.53636
0.783218
-4.47039
0.81957
-4.40767
-0.259388
0.261076
-0.470033
0.211247
-0.627171
0.157531
-0.746183
0.119107
-0.82818
0.082051
-0.868918
0.0407229
-0.863283
-0.00564167
-0.809666
-0.0536396
-0.714309
-0.0953708
-0.123409
-0.590906
-0.238033
0.500815
-0.401624
0.376185
-0.52394
0.280294
-0.607482
0.202853
-0.646412
0.12102
-0.634365
0.0286598
-0.569892
-0.0701571
-0.456567
-0.167013
-0.305164
-0.246797
-0.301386
-0.127211
-0.14666
0.647936
-0.266192
0.495853
-0.337804
0.352062
-0.355237
0.22033
-0.304501
0.0702756
-0.184768
-0.0911017
-0.0112582
-0.243712
0.196735
-0.375039
0.42606
-0.476164
-0.544721
0.669385
-0.0789917
0.72624
-0.125788
0.542379
-0.112067
0.338154
-0.0110146
0.119184
0.181763
-0.122585
0.432322
-0.341704
0.709815
-0.521244
0.999544
-0.664808
1.29996
-0.776596
-0.854082
1.6093
-0.0203946
0.745978
0.0168023
0.504647
0.156856
0.197713
0.41455
-0.138726
0.738157
-0.446318
1.08773
-0.691345
1.44949
-0.883046
1.8161
-1.03145
2.18385
-1.14438
-1.22385
2.5536
0.0314126
0.713962
0.169862
0.365554
0.4705
-0.103296
0.861881
-0.53034
1.27637
-0.860938
1.69782
-1.11288
2.11827
-1.30355
2.53346
-1.44668
2.93992
-1.55086
-1.623
3.33905
0.0732491
0.640169
0.365052
0.0734459
0.80767
-0.546187
1.27905
-1.00191
1.74998
-1.33199
2.20914
-1.57213
2.65077
-1.74524
3.07269
-1.86864
3.47624
-1.95444
-2.01266
3.86588
0.140727
0.499528
0.600095
-0.386122
1.12486
-1.0711
1.63966
-1.51686
2.12705
-1.8195
2.58186
-2.02703
3.00569
-2.16914
3.40259
-2.26558
3.77803
-2.32991
-2.37107
4.13642
0.263266
0.236405
0.840311
-0.963175
1.39801
-1.62887
1.90918
-2.02815
2.37367
-2.28407
2.79654
-2.44998
3.1844
-2.55705
3.54369
-2.62491
3.88036
-2.66661
-2.69061
4.19988
0.42368
1.04446
1.58691
2.0627
2.48634
2.86696
3.2131
3.53223
3.82974
4.10833
-0.33892
-0.251993
-0.109585
-0.229331
0.0966871
-0.206266
0.279542
-0.182848
0.442428
-0.162879
0.589924
-0.147489
0.725185
-0.135253
0.850397
-0.125205
0.967135
-0.11673
1.07657
-0.109428
1.17961
-0.103033
1.27697
-0.0973494
1.36922
-0.0922357
1.45681
-0.0875896
1.54015
-0.083331
1.61956
-0.0793978
1.69531
-0.0757423
1.76765
-0.0723281
1.83678
-0.069127
1.9029
-0.0661164
1.96619
-0.063278
2.02679
-0.060597
2.08485
-0.058061
2.14051
-0.055659
2.1939
-0.0533817
2.24512
-0.051221
2.29429
-0.0491699
2.34152
-0.0472214
2.38689
-0.0453689
2.4305
-0.0436069
2.47243
-0.0419303
2.51276
-0.0403339
2.55158
-0.0388124
2.58894
-0.0373608
2.62492
-0.0359741
2.65957
-0.0346479
2.69295
-0.0333782
2.72511
-0.0321619
2.75611
-0.030996
2.78599
-0.0298781
2.81479
-0.028806
2.84257
-0.0277778
2.86936
-0.0267917
2.89521
-0.0258458
2.92015
-0.0249384
2.94422
-0.0240679
2.96745
-0.0232326
2.98988
-0.0224313
3.01154
-0.0216628
3.03247
-0.0209257
3.05269
-0.0202186
3.07223
-0.0195404
3.09112
-0.0188896
3.10938
-0.0182652
3.12705
-0.0176658
3.14413
-0.0170902
3.16067
-0.0165374
3.17668
-0.0160064
3.19217
-0.0154962
3.20718
-0.0150061
3.22171
-0.014535
3.23579
-0.0140821
3.24944
-0.0136466
3.26267
-0.0132276
3.27549
-0.0128244
3.28793
-0.0124363
3.29999
-0.0120626
3.31169
-0.0117026
3.32305
-0.0113556
3.33407
-0.0110211
3.34477
-0.0106986
3.35516
-0.0103873
3.36524
-0.010087
3.37504
-0.00979693
3.38456
-0.00951679
3.3938
-0.00924612
3.40279
-0.00898455
3.41152
-0.00873174
3.42
-0.00848737
3.42826
-0.00825118
3.43628
-0.00802284
3.44408
-0.00780209
3.45167
-0.00758861
3.45905
-0.00738218
3.46623
-0.00718245
3.47322
-0.0069892
3.48002
-0.00680199
3.48664
-0.00662059
3.49308
-0.0064443
3.49935
-0.00627281
3.50546
-0.00610488
3.5114
-0.00593987
3.51717
-0.00577553
3.52278
-0.00561039
3.52822
-0.00544024
3.53348
-0.0052612
3.53855
-0.00506602
3.5434
-0.00484699
3.54799
-0.00459803
-0.00409641
0.0922334
-0.471443
0.280726
-0.41782
0.448637
-0.374168
0.602584
-0.336783
0.74434
-0.304621
0.874961
-0.278096
0.996056
-0.256331
1.10899
-0.238123
1.21485
-0.222565
1.31448
-0.209045
1.4086
-0.197128
1.49775
-0.186477
1.58238
-0.17685
1.66288
-0.168069
1.73956
-0.159989
1.81269
-0.152504
1.88249
-0.14553
1.94919
-0.139005
2.01296
-0.132881
2.07397
-0.127117
2.13238
-0.121678
2.18833
-0.116538
2.24195
-0.111673
2.29337
-0.107064
2.34268
-0.102692
2.39001
-0.0985435
2.43545
-0.0946046
2.47909
-0.0908616
2.52103
-0.0873022
2.56134
-0.0839153
2.60011
-0.0806904
2.6374
-0.077617
2.67327
-0.0746851
2.7078
-0.071886
2.74104
-0.0692104
2.77305
-0.0666501
2.80387
-0.0641983
2.83356
-0.0618494
2.86217
-0.0595981
2.88973
-0.0574403
2.9163
-0.0553719
2.94191
-0.0533889
2.96661
-0.0514874
2.99043
-0.0496639
3.01341
-0.0479149
3.03558
-0.0462376
3.05697
-0.0446288
3.07763
-0.0430859
3.09757
-0.0416067
3.11683
-0.0401886
3.13544
-0.038829
3.15343
-0.0375254
3.17081
-0.0362749
3.18762
-0.0350751
3.20388
-0.0339235
3.2196
-0.0328178
3.23482
-0.0317559
3.24955
-0.0307359
3.2638
-0.0297561
3.27761
-0.0288147
3.29099
-0.0279099
3.30394
-0.02704
3.3165
-0.0262036
3.32867
-0.025399
3.34047
-0.024625
3.35191
-0.0238801
3.36301
-0.0231629
3.37378
-0.0224723
3.38423
-0.021807
3.39438
-0.0211659
3.40423
-0.020548
3.41379
-0.019952
3.42308
-0.0193769
3.43211
-0.0188219
3.44088
-0.018286
3.4494
-0.0177684
3.45768
-0.0172684
3.46573
-0.0167852
3.47356
-0.0163184
3.48118
-0.0158673
3.48859
-0.0154313
3.49579
-0.0150098
3.50281
-0.0146023
3.50963
-0.0142084
3.51627
-0.0138272
3.52274
-0.0134584
3.52904
-0.0131012
3.53517
-0.0127551
3.54114
-0.0124187
3.54696
-0.0120915
3.55263
-0.011771
3.55814
-0.0114562
3.56351
-0.0111426
3.56872
-0.0108275
3.57378
-0.0105026
3.57868
-0.0101603
3.5834
-0.0097869
3.58791
-0.00935594
3.59215
-0.00884003
-0.0081926
0.803574
-0.605656
0.926056
-0.540316
1.04482
-0.49294
1.15984
-0.451804
1.26973
-0.414509
1.37383
-0.382189
1.47228
-0.354764
1.56546
-0.331285
1.65376
-0.310847
1.73754
-0.292813
1.81715
-0.27672
1.89289
-0.262189
1.96501
-0.248948
2.03375
-0.236792
2.09932
-0.225545
2.16192
-0.215079
2.2217
-0.205299
2.27884
-0.196131
2.33349
-0.187514
2.38578
-0.179395
2.43584
-0.171728
2.48379
-0.164479
2.52974
-0.157616
2.5738
-0.151112
2.61606
-0.144943
2.65661
-0.139087
2.69553
-0.133525
2.73291
-0.128237
2.76882
-0.123205
2.80332
-0.118413
2.83648
-0.113845
2.86836
-0.109488
2.899
-0.105329
2.92848
-0.101357
2.95683
-0.0975576
2.9841
-0.0939206
3.01035
-0.0904378
3.0356
-0.0871019
3.05991
-0.0839061
3.08332
-0.0808442
3.10586
-0.0779104
3.12757
-0.0750991
3.14849
-0.0724053
3.16865
-0.0698245
3.18809
-0.0673519
3.20683
-0.064983
3.22492
-0.062713
3.24237
-0.0605375
3.25922
-0.0584536
3.27548
-0.0564572
3.2912
-0.0545446
3.30638
-0.0527114
3.32106
-0.0509534
3.33525
-0.0492667
3.34897
-0.0476479
3.36225
-0.0460938
3.37509
-0.0446014
3.38752
-0.0431679
3.39956
-0.0417911
3.41121
-0.0404687
3.4225
-0.0391979
3.43343
-0.0379765
3.44403
-0.0368024
3.4543
-0.0356736
3.46427
-0.034588
3.47393
-0.0335436
3.48331
-0.0325385
3.4924
-0.0315711
3.50124
-0.0306394
3.50981
-0.029742
3.51814
-0.028877
3.52623
-0.0280431
3.53409
-0.0272386
3.54173
-0.0264625
3.54916
-0.0257133
3.55638
-0.0249901
3.5634
-0.0242917
3.57024
-0.0236172
3.57688
-0.0229657
3.58335
-0.0223365
3.58965
-0.0217286
3.59578
-0.0211413
3.60175
-0.0205737
3.60756
-0.0200252
3.61323
-0.0194949
3.61875
-0.0189821
3.62413
-0.0184855
3.62938
-0.0180047
3.6345
-0.0175377
3.63949
-0.0170837
3.64436
-0.0166394
3.6491
-0.016203
3.65373
-0.0157684
3.65823
-0.0153318
3.66261
-0.0148817
3.66685
-0.0144071
3.67096
-0.0138884
3.67489
-0.0132877
3.67862
-0.0125717
-0.0117279
1.66887
-0.66525
1.73197
-0.603451
1.80105
-0.562042
1.87383
-0.524599
1.94759
-0.488268
2.02054
-0.45514
2.09176
-0.425974
2.16074
-0.400255
2.22721
-0.377299
2.29105
-0.356635
2.35225
-0.3379
2.41084
-0.320759
2.4669
-0.304986
2.52051
-0.290382
2.57176
-0.276779
2.62077
-0.264069
2.66764
-0.252155
2.71249
-0.240964
2.75542
-0.230431
2.79653
-0.220492
2.83591
-0.211096
2.87364
-0.202201
2.90981
-0.193773
2.94449
-0.185781
2.97774
-0.178193
3.00965
-0.170984
3.04026
-0.16413
3.06963
-0.157607
3.09783
-0.151393
3.12489
-0.145468
3.15086
-0.139818
3.1758
-0.134423
3.19974
-0.129268
3.22274
-0.124344
3.24481
-0.119632
3.26602
-0.115122
3.28639
-0.110807
3.30597
-0.106678
3.32479
-0.102727
3.3429
-0.0989447
3.36031
-0.0953246
3.37707
-0.0918602
3.39321
-0.0885445
3.40876
-0.0853715
3.42374
-0.0823342
3.43819
-0.0794272
3.45212
-0.0766432
3.46556
-0.0739766
3.47853
-0.0714242
3.49105
-0.0689797
3.50314
-0.0666381
3.51482
-0.0643936
3.52611
-0.0622406
3.53702
-0.0601748
3.54756
-0.0581921
3.55775
-0.0562889
3.56761
-0.0544615
3.57715
-0.0527066
3.58638
-0.0510224
3.59532
-0.0494055
3.60397
-0.0478525
3.61235
-0.0463608
3.62048
-0.0449278
3.62836
-0.0435509
3.63599
-0.0422274
3.64341
-0.0409548
3.6506
-0.0397309
3.65758
-0.0385533
3.66436
-0.0374199
3.67095
-0.0363286
3.67735
-0.0352775
3.68357
-0.0342646
3.68962
-0.033288
3.6955
-0.0323463
3.70122
-0.0314378
3.7068
-0.0305612
3.71222
-0.0297152
3.7175
-0.0288986
3.72264
-0.0281105
3.72765
-0.0273502
3.73254
-0.0266163
3.73731
-0.025908
3.74196
-0.0252243
3.74649
-0.0245643
3.75092
-0.0239267
3.75525
-0.023311
3.75948
-0.0227154
3.76361
-0.0221395
3.76765
-0.0215807
3.77161
-0.0210382
3.77547
-0.0205078
3.77926
-0.0199875
3.78296
-0.0194698
3.78658
-0.0189502
3.79011
-0.0184146
3.79355
-0.01785
3.79689
-0.0172319
3.80012
-0.0165148
3.80321
-0.0156578
-0.01466
2.56912
-0.680812
2.5962
-0.630576
2.6308
-0.596668
2.67001
-0.563838
2.71221
-0.530483
2.75594
-0.498869
2.8
-0.470029
2.8436
-0.443845
2.88628
-0.419961
2.92774
-0.398086
2.96784
-0.377978
3.0065
-0.359395
3.0437
-0.342168
3.07947
-0.326135
3.11386
-0.311151
3.14693
-0.297117
3.17871
-0.283926
3.20927
-0.271504
3.23863
-0.259779
3.26684
-0.248683
3.29392
-0.238167
3.31992
-0.228193
3.34489
-0.218728
3.36885
-0.209735
3.39185
-0.201184
3.41392
-0.193047
3.4351
-0.185301
3.45542
-0.177919
3.47491
-0.170878
3.4936
-0.164157
3.51153
-0.157737
3.5287
-0.151594
3.54516
-0.145719
3.56092
-0.140107
3.57603
-0.134742
3.59053
-0.129615
3.60444
-0.124716
3.6178
-0.120035
3.63063
-0.11556
3.64297
-0.111282
3.65484
-0.107193
3.66626
-0.103282
3.67726
-0.0995424
3.68786
-0.0959649
3.69806
-0.0925414
3.7079
-0.0892654
3.71739
-0.0861287
3.72653
-0.0831242
3.73536
-0.0802478
3.74387
-0.0774914
3.75208
-0.0748499
3.76
-0.0723165
3.76765
-0.0698859
3.77502
-0.0675546
3.78215
-0.0653183
3.78903
-0.0631732
3.79569
-0.0611153
3.80212
-0.0591408
3.80835
-0.0572483
3.81437
-0.0554334
3.82021
-0.0536911
3.82587
-0.0520191
3.83135
-0.0504143
3.83668
-0.0488734
3.84184
-0.0473933
3.84686
-0.0459712
3.85173
-0.0446041
3.85647
-0.0432898
3.86107
-0.0420259
3.86555
-0.0408099
3.86992
-0.0396394
3.87416
-0.0385124
3.8783
-0.0374266
3.88234
-0.0363805
3.88627
-0.0353722
3.89011
-0.0344001
3.89385
-0.0334631
3.89751
-0.0325597
3.90109
-0.0316892
3.90459
-0.0308506
3.90802
-0.0300422
3.91137
-0.029263
3.91466
-0.0285122
3.91788
-0.0277888
3.92104
-0.027091
3.92415
-0.0264184
3.9272
-0.025769
3.9302
-0.0251423
3.93315
-0.0245353
3.93606
-0.0239473
3.93893
-0.0233734
3.94175
-0.0228116
3.94453
-0.0222535
3.94727
-0.0216943
3.94998
-0.0211186
3.95264
-0.0205126
3.95526
-0.0198481
3.95782
-0.0190762
3.9603
-0.0181444
-0.0170551
3.33488
-0.676692
3.34569
-0.641424
3.36393
-0.614957
3.38597
-0.585896
3.41086
-0.555397
3.43772
-0.525737
3.46549
-0.497797
3.49336
-0.471702
3.52079
-0.447381
3.54746
-0.42474
3.57318
-0.403681
3.59785
-0.384043
3.62142
-0.365713
3.64388
-0.348574
3.66524
-0.332494
3.68553
-0.317391
3.70479
-0.30317
3.72306
-0.289755
3.74038
-0.277086
3.75682
-0.265103
3.77242
-0.253757
3.78724
-0.243005
3.80133
-0.232807
3.81473
-0.223123
3.82748
-0.21392
3.83961
-0.205173
3.85117
-0.196851
3.86218
-0.188925
3.87268
-0.181371
3.88269
-0.17417
3.89226
-0.167303
3.90142
-0.160751
3.91021
-0.154499
3.91864
-0.148537
3.92674
-0.142843
3.93453
-0.137403
3.94202
-0.132203
3.94922
-0.127233
3.95614
-0.12248
3.9628
-0.117934
3.96919
-0.113587
3.97534
-0.109428
3.98124
-0.10545
3.98692
-0.101644
3.99238
-0.0980018
3.99764
-0.0945166
4.00269
-0.0911804
4.00755
-0.0879842
4.01222
-0.0849227
4.01672
-0.0819868
4.02104
-0.0791722
4.0252
-0.0764749
4.0292
-0.0738914
4.03306
-0.0714182
4.0368
-0.0690502
4.04041
-0.0667835
4.0439
-0.0646132
4.0473
-0.0625341
4.05059
-0.0605436
4.05379
-0.058636
4.05691
-0.0568064
4.05994
-0.0550527
4.0629
-0.0533706
4.06578
-0.0517567
4.06859
-0.0502075
4.07134
-0.0487199
4.07403
-0.0472907
4.07666
-0.0459176
4.07923
-0.0445977
4.08175
-0.0433283
4.08421
-0.0421069
4.08663
-0.0409317
4.089
-0.0398006
4.09134
-0.0387123
4.09363
-0.037665
4.09588
-0.0366574
4.09811
-0.0356882
4.1003
-0.0347555
4.10247
-0.0338584
4.10461
-0.032996
4.10674
-0.0321661
4.10884
-0.0313682
4.11093
-0.0306016
4.113
-0.0298648
4.11507
-0.0291556
4.11712
-0.028474
4.11917
-0.0278176
4.12121
-0.0271858
4.12325
-0.0265754
4.12529
-0.025986
4.12732
-0.0254123
4.12936
-0.0248523
4.13141
-0.0242972
4.13345
-0.0237429
4.13551
-0.0231738
4.13757
-0.0225769
4.13965
-0.0219226
4.14173
-0.0211632
4.14382
-0.0202316
-0.019126
3.84499
-0.655849
3.84046
-0.636935
3.84513
-0.619665
3.85515
-0.59595
3.8693
-0.56956
3.88672
-0.543167
3.9064
-0.517471
3.9274
-0.492701
3.94907
-0.469038
3.97092
-0.446572
3.99258
-0.425329
4.01382
-0.405258
4.03443
-0.386301
4.05426
-0.368391
4.07324
-0.351453
4.09129
-0.335425
4.10838
-0.320243
4.12449
-0.30585
4.13963
-0.292203
4.15379
-0.27925
4.16699
-0.266945
4.17924
-0.255249
4.19058
-0.244131
4.20102
-0.233555
4.2106
-0.223494
4.21936
-0.213921
4.22732
-0.204809
4.23454
-0.196134
4.24106
-0.187883
4.24693
-0.180036
4.25221
-0.172579
4.25694
-0.165486
4.26119
-0.158742
4.26499
-0.152331
4.26838
-0.146234
4.27141
-0.140433
4.27412
-0.134911
4.27654
-0.129655
4.27871
-0.12465
4.28066
-0.119884
4.28242
-0.115342
4.284
-0.111015
4.28544
-0.106891
4.28676
-0.10296
4.28797
-0.0992102
4.28908
-0.0956323
4.29012
-0.0922175
4.29109
-0.0889557
4.29201
-0.0858409
4.29289
-0.082866
4.29374
-0.080025
4.29458
-0.0773121
4.29541
-0.0747196
4.29623
-0.0722408
4.29705
-0.0698694
4.29786
-0.0676007
4.29868
-0.0654299
4.2995
-0.0633508
4.30031
-0.0613604
4.30113
-0.0594543
4.30195
-0.0576274
4.30278
-0.0558767
4.3036
-0.0541985
4.30444
-0.0525893
4.30527
-0.0510459
4.30612
-0.0495654
4.30697
-0.0481445
4.30783
-0.0467802
4.3087
-0.0454691
4.30958
-0.0442094
4.31048
-0.0429994
4.31138
-0.0418382
4.3123
-0.0407239
4.31325
-0.0396552
4.31421
-0.0386301
4.3152
-0.037647
4.31621
-0.0367045
4.31726
-0.0358004
4.31833
-0.0349336
4.31944
-0.034103
4.32058
-0.0333065
4.32175
-0.0325431
4.32296
-0.0318119
4.3242
-0.0311113
4.32549
-0.0304396
4.32681
-0.0297963
4.32817
-0.029179
4.32957
-0.0285867
4.33101
-0.0280164
4.33249
-0.0274681
4.33401
-0.0269363
4.33558
-0.0264192
4.33719
-0.0259087
4.33885
-0.0254019
4.34056
-0.0248845
4.34233
-0.0243468
4.34416
-0.0237596
4.34608
-0.0230849
4.34809
-0.0222412
-0.021208
4.10262
-0.622096
4.08365
-0.618001
4.07487
-0.610925
4.07325
-0.594346
4.07717
-0.573496
4.08548
-0.551481
4.09717
-0.529161
4.11137
-0.506898
4.12738
-0.485033
4.14464
-0.463819
4.16273
-0.443404
4.18133
-0.423842
4.2002
-0.405145
4.21913
-0.387305
4.23799
-0.370293
4.25665
-0.35407
4.27503
-0.338601
4.29304
-0.323847
4.31063
-0.309774
4.32774
-0.296343
4.34432
-0.283517
4.36035
-0.271265
4.37579
-0.259561
4.39062
-0.248376
4.40482
-0.237679
4.41836
-0.227453
4.43123
-0.217679
4.44344
-0.208337
4.45497
-0.199403
4.4658
-0.19086
4.47592
-0.182695
4.48532
-0.174888
4.49401
-0.167426
4.50198
-0.160301
4.50924
-0.1535
4.51582
-0.147009
4.52173
-0.140817
4.52698
-0.13491
4.53161
-0.12928
4.53564
-0.123915
4.5391
-0.118804
4.54203
-0.113939
4.54444
-0.10931
4.54639
-0.104908
4.5479
-0.100724
4.54902
-0.0967501
4.54978
-0.0929768
4.55022
-0.0893959
4.55038
-0.0860019
4.5503
-0.0827876
4.55002
-0.079744
4.54957
-0.0768634
4.54899
-0.0741362
4.5483
-0.0715527
4.54754
-0.0691035
4.54672
-0.0667821
4.54587
-0.0645809
4.54501
-0.0624913
4.54416
-0.0605085
4.54333
-0.0586253
4.54253
-0.056834
4.54179
-0.0551295
4.54109
-0.053506
4.54046
-0.0519586
4.5399
-0.0504823
4.5394
-0.0490729
4.53898
-0.0477264
4.53864
-0.0464395
4.53838
-0.0452089
4.5382
-0.0440319
4.53811
-0.042906
4.5381
-0.041829
4.53817
-0.0407979
4.53833
-0.0398111
4.53856
-0.0388666
4.53888
-0.0379629
4.53927
-0.0370985
4.53974
-0.0362718
4.54029
-0.0354818
4.54091
-0.0347278
4.54161
-0.0340075
4.54238
-0.03332
4.54324
-0.0326643
4.54416
-0.0320393
4.54516
-0.0314429
4.54624
-0.0308753
4.5474
-0.0303333
4.54862
-0.029817
4.54993
-0.0293225
4.55131
-0.0288491
4.55276
-0.0283921
4.5543
-0.0279526
4.55591
-0.0275229
4.55761
-0.0271021
4.5594
-0.0266776
4.5613
-0.0262457
4.56332
-0.0257807
4.5655
-0.0252656
4.56787
-0.0246124
-0.0237882
4.16002
-0.582269
4.13282
-0.590837
4.11539
-0.593516
4.10635
-0.585325
4.10398
-0.57114
4.10666
-0.554164
4.11321
-0.535716
4.12278
-0.516459
4.13466
-0.4969
4.14828
-0.477429
4.1632
-0.458313
4.17909
-0.439715
4.19569
-0.421726
4.21278
-0.404387
4.23022
-0.387715
4.24787
-0.371704
4.26563
-0.356344
4.28341
-0.341612
4.30114
-0.327493
4.31877
-0.313959
4.33625
-0.300986
4.35355
-0.28855
4.37062
-0.276626
4.38745
-0.265194
4.40401
-0.25423
4.42028
-0.243717
4.43625
-0.23364
4.45189
-0.223979
4.46721
-0.214715
4.48218
-0.205831
4.49681
-0.197316
4.51107
-0.189152
4.52498
-0.181327
4.5385
-0.173827
4.55165
-0.166642
4.5644
-0.15976
4.57675
-0.153168
4.58869
-0.146857
4.60023
-0.140814
4.61134
-0.135029
4.62203
-0.129496
4.63229
-0.124202
4.64212
-0.119138
4.65151
-0.114295
4.66045
-0.109666
4.66894
-0.105243
4.67698
-0.101018
4.68457
-0.0969837
4.6917
-0.0931325
4.69837
-0.0894571
4.70457
-0.085951
4.71032
-0.0826091
4.71561
-0.0794251
4.72045
-0.0763935
4.72485
-0.0735093
4.72884
-0.0707677
4.73242
-0.0681626
4.73562
-0.0656883
4.73845
-0.0633404
4.74094
-0.0611146
4.74311
-0.0590059
4.74499
-0.0570099
4.7466
-0.0551222
4.74798
-0.0533385
4.74915
-0.0516545
4.75015
-0.0500659
4.75099
-0.0485691
4.75171
-0.0471606
4.75233
-0.0458355
4.75289
-0.0445898
4.7534
-0.0434198
4.75389
-0.0423211
4.75438
-0.0412888
4.75489
-0.0403198
4.75543
-0.0394099
4.75603
-0.0385554
4.75668
-0.0377523
4.7574
-0.0369978
4.75821
-0.0362884
4.7591
-0.0356223
4.76009
-0.0349957
4.76117
-0.0344069
4.76236
-0.0338531
4.76365
-0.0333327
4.76505
-0.0328422
4.76656
-0.0323811
4.76817
-0.0319463
4.76989
-0.0315375
4.77172
-0.0311515
4.77365
-0.0307876
4.7757
-0.0304418
4.77786
-0.0301142
4.78014
-0.0297995
4.78253
-0.0294975
4.78506
-0.0292007
4.78772
-0.0289091
4.79055
-0.0286098
4.79359
-0.0283058
4.79692
-0.0279473
-0.0274829
4.06426
-0.53822
4.0296
-0.556214
4.00303
-0.566965
3.9861
-0.568415
3.97751
-0.56256
3.9754
-0.552052
3.97832
-0.53864
3.98522
-0.523359
3.99525
-0.506917
4.00769
-0.489858
4.02198
-0.472591
4.03768
-0.455403
4.05445
-0.438484
4.07203
-0.421949
4.0902
-0.405872
4.1088
-0.390294
4.12771
-0.375234
4.14681
-0.3607
4.16602
-0.34669
4.18527
-0.333196
4.2045
-0.320207
4.22367
-0.307707
4.24273
-0.295682
4.26166
-0.284115
4.28043
-0.272994
4.29902
-0.262301
4.31741
-0.252026
4.33559
-0.242152
4.35354
-0.232664
4.37126
-0.223549
4.38874
-0.214794
4.40598
-0.206386
4.42297
-0.198314
4.4397
-0.190565
4.45619
-0.18313
4.47243
-0.175997
4.48842
-0.169156
4.50415
-0.162596
4.51965
-0.156307
4.53489
-0.150279
4.5499
-0.144502
4.56467
-0.138968
4.57919
-0.133667
4.59349
-0.12859
4.60755
-0.123729
4.62138
-0.119075
4.63498
-0.114621
4.64835
-0.110359
4.6615
-0.10628
4.67442
-0.102378
4.68711
-0.0986451
4.69958
-0.0950744
4.71181
-0.0916597
4.72381
-0.088395
4.73558
-0.0852741
4.7471
-0.082291
4.75838
-0.0794394
4.7694
-0.076714
4.78017
-0.0741103
4.79068
-0.0716232
4.80092
-0.0692481
4.81089
-0.0669806
4.82059
-0.0648164
4.83
-0.0627519
4.83913
-0.0607833
4.84797
-0.0589075
4.85652
-0.0571204
4.86478
-0.0554194
4.87274
-0.0538003
4.88041
-0.0522615
4.88779
-0.0508006
4.89488
-0.0494146
4.90169
-0.0481011
4.90823
-0.0468583
4.9145
-0.045683
4.92052
-0.0445741
4.9263
-0.0435284
4.93184
-0.042545
4.93717
-0.041621
4.94231
-0.0407558
4.94725
-0.0399464
4.95204
-0.0391923
4.95667
-0.0384902
4.96118
-0.0378402
4.96558
-0.0372387
4.96988
-0.0366848
4.97411
-0.0361757
4.97828
-0.035711
4.98241
-0.0352868
4.98653
-0.0349031
4.99064
-0.0345549
4.99477
-0.0342429
4.99893
-0.0339606
5.00314
-0.0337104
5.00742
-0.0334853
5.01181
-0.0332941
5.01633
-0.0331329
5.02106
-0.0330361
5.02614
-0.0330255
-0.0332485
5.11412
-0.484108
-5.16825
5.05914
-0.50125
5.00813
-0.515976
4.96217
-0.522461
4.92171
-0.522106
4.88663
-0.516976
4.85653
-0.508539
4.83092
-0.497751
4.80931
-0.485308
4.79123
-0.471763
4.7762
-0.457558
4.76382
-0.443019
4.75373
-0.428383
4.7456
-0.413813
4.73916
-0.399425
4.73417
-0.385298
4.73043
-0.371484
4.72776
-0.358018
4.726
-0.344924
4.72502
-0.332213
4.72471
-0.319893
4.72497
-0.307962
4.72572
-0.296421
4.72687
-0.285264
4.72837
-0.274485
4.73015
-0.26408
4.73217
-0.254041
4.73438
-0.244359
4.73674
-0.235027
4.73923
-0.226034
4.74181
-0.217373
4.74446
-0.209034
4.74716
-0.201009
4.74988
-0.193289
4.75261
-0.185865
4.75535
-0.17873
4.75806
-0.171874
4.76075
-0.165288
4.76341
-0.158964
4.76602
-0.152894
4.76859
-0.147069
4.7711
-0.141481
4.77355
-0.136121
4.77595
-0.130983
4.77827
-0.126056
4.78053
-0.121335
4.78272
-0.116812
4.78484
-0.112479
4.78689
-0.108329
4.78887
-0.104356
4.79077
-0.100551
4.7926
-0.0969082
4.79437
-0.0934219
4.79606
-0.0900854
4.79767
-0.0868928
4.79922
-0.0838379
4.80069
-0.0809151
4.8021
-0.0781188
4.80343
-0.0754441
4.80469
-0.0728859
4.80589
-0.0704396
4.807
-0.0681005
4.80805
-0.0658642
4.80903
-0.0637268
4.80993
-0.0616841
4.81075
-0.0597327
4.8115
-0.0578685
4.81216
-0.0560877
4.81275
-0.054388
4.81325
-0.0527663
4.81367
-0.0512179
4.814
-0.0497418
4.81423
-0.0483343
4.81436
-0.0469933
4.8144
-0.0457159
4.81432
-0.0445
4.81413
-0.0433431
4.81383
-0.0422436
4.81341
-0.0411989
4.81286
-0.0402081
4.81218
-0.0392685
4.81137
-0.0383796
4.81042
-0.037539
4.80932
-0.0367465
4.80808
-0.0359985
4.80669
-0.0352969
4.80515
-0.0346372
4.80346
-0.0340217
4.80162
-0.0334453
4.79962
-0.0329109
4.79748
-0.0324133
4.7952
-0.0319565
4.79277
-0.031535
4.79021
-0.0311557
4.78754
-0.0308137
4.78477
-0.0305235
4.78193
-0.0302934
4.77906
-0.0301712
4.77624
-0.0301971
-0.0307584
5.15154
-0.428705
-5.20696
5.10022
-0.449939
5.05211
-0.467885
5.00883
-0.479195
4.97064
-0.483921
4.93725
-0.483589
4.90826
-0.479554
4.88326
-0.472757
4.86186
-0.463898
4.84364
-0.453543
4.82824
-0.442152
4.81531
-0.430084
4.80454
-0.417608
4.79565
-0.404922
4.78841
-0.392175
4.78259
-0.379474
4.77801
-0.366899
4.77451
-0.354508
4.77194
-0.342344
4.77017
-0.330438
4.76909
-0.318811
4.76861
-0.307477
4.76865
-0.296448
4.76912
-0.28573
4.76996
-0.275325
4.77112
-0.265236
4.77255
-0.255462
4.77419
-0.246001
4.77602
-0.236851
4.77799
-0.228007
4.78008
-0.219465
4.78227
-0.211219
4.78453
-0.203265
4.78683
-0.195595
4.78917
-0.188205
4.79153
-0.181088
4.79389
-0.174236
4.79625
-0.167645
4.79859
-0.161305
4.8009
-0.155211
4.80318
-0.149354
4.80543
-0.143729
4.80764
-0.138328
4.80979
-0.133143
4.8119
-0.128167
4.81396
-0.123395
4.81597
-0.118818
4.81791
-0.114429
4.81981
-0.110223
4.82164
-0.106192
4.82342
-0.10233
4.82514
-0.0986305
4.82681
-0.0950873
4.82841
-0.0916943
4.82997
-0.0884459
4.83146
-0.0853361
4.83291
-0.0823594
4.8343
-0.0795103
4.83564
-0.076784
4.83693
-0.0741755
4.83817
-0.0716802
4.83936
-0.0692934
4.8405
-0.0670108
4.84161
-0.0648284
4.84266
-0.0627421
4.84368
-0.0607481
4.84465
-0.0588427
4.84558
-0.0570222
4.84648
-0.0552836
4.84733
-0.0536238
4.84815
-0.052039
4.84894
-0.0505269
4.84969
-0.0490847
4.8504
-0.0477095
4.85109
-0.0463988
4.85173
-0.0451502
4.85235
-0.0439613
4.85294
-0.0428299
4.85349
-0.0417539
4.85401
-0.0407316
4.85451
-0.039761
4.85497
-0.0388406
4.85539
-0.0379685
4.85579
-0.0371436
4.85615
-0.0363638
4.85649
-0.0356285
4.85678
-0.0349354
4.85704
-0.0342845
4.85727
-0.0336733
4.85746
-0.0331021
4.85762
-0.0325687
4.85773
-0.0320745
4.85781
-0.0316178
4.85786
-0.0312026
4.85788
-0.0308304
4.85786
-0.0305115
4.85783
-0.0302585
4.85776
-0.030099
4.85764
-0.0300854
-0.0303596
5.17699
-0.374871
-5.23084
5.1282
-0.401163
5.08298
-0.422674
5.04185
-0.438071
5.00509
-0.447172
4.97258
-0.451086
4.94405
-0.451027
4.9192
-0.447907
4.89771
-0.442409
4.87926
-0.435091
4.86353
-0.426418
4.85021
-0.416761
4.83901
-0.406412
4.82969
-0.395595
4.822
-0.384485
4.81574
-0.373214
4.81074
-0.361886
4.80681
-0.350581
4.80383
-0.33936
4.80167
-0.328271
4.80022
-0.317351
4.79937
-0.306628
4.79905
-0.296125
4.79918
-0.285857
4.7997
-0.275837
4.80054
-0.266075
4.80166
-0.256578
4.80301
-0.247349
4.80455
-0.238392
4.80625
-0.229707
4.80808
-0.221294
4.81001
-0.21315
4.81202
-0.205275
4.81409
-0.197666
4.8162
-0.190317
4.81834
-0.183227
4.82049
-0.176389
4.82264
-0.169799
4.82479
-0.163451
4.82692
-0.157341
4.82902
-0.151461
4.8311
-0.145806
4.83314
-0.140369
4.83514
-0.135145
4.8371
-0.130128
4.83901
-0.12531
4.84088
-0.120685
4.8427
-0.116247
4.84446
-0.111991
4.84618
-0.107909
4.84784
-0.103995
4.84945
-0.100243
4.85101
-0.0966486
4.85252
-0.0932044
4.85398
-0.0899053
4.85539
-0.0867456
4.85675
-0.08372
4.85806
-0.0808231
4.85933
-0.0780502
4.86055
-0.0753963
4.86172
-0.0728568
4.86285
-0.0704272
4.86395
-0.0681032
4.865
-0.0658807
4.86601
-0.0637558
4.86699
-0.0617245
4.86793
-0.0597832
4.86883
-0.0579283
4.8697
-0.0561566
4.87054
-0.0544648
4.87135
-0.0528496
4.87213
-0.0513084
4.87289
-0.0498381
4.87361
-0.0484363
4.87431
-0.0471002
4.87499
-0.0458273
4.87564
-0.0446155
4.87627
-0.0434624
4.87689
-0.0423659
4.87748
-0.0413243
4.87805
-0.0403357
4.87861
-0.0393983
4.87915
-0.0385106
4.87968
-0.0376711
4.88019
-0.0368783
4.88069
-0.036131
4.88118
-0.0354277
4.88167
-0.0347675
4.88214
-0.0341493
4.88261
-0.0335723
4.88308
-0.0330361
4.88354
-0.0325408
4.88401
-0.032087
4.88448
-0.0316771
4.88497
-0.031315
4.88547
-0.0310083
4.88597
-0.0307684
4.88649
-0.0306137
4.88697
-0.0305697
-0.0306561
5.19159
-0.323554
-5.24291
5.14522
-0.354811
5.10261
-0.380066
5.0637
-0.399174
5.02872
-0.412198
4.99762
-0.419994
4.97019
-0.423608
4.94618
-0.423897
4.9253
-0.42153
4.90726
-0.417056
4.89178
-0.41094
4.87859
-0.403565
4.86742
-0.395241
4.85804
-0.386213
4.85023
-0.376677
4.84381
-0.366788
4.8386
-0.356671
4.83444
-0.346424
4.83121
-0.336126
4.82879
-0.325841
4.82706
-0.315618
4.82593
-0.3055
4.82533
-0.295519
4.82518
-0.285701
4.82541
-0.276069
4.82598
-0.266636
4.82682
-0.257419
4.8279
-0.248427
4.82918
-0.239668
4.83062
-0.231147
4.83219
-0.222869
4.83388
-0.214834
4.83565
-0.207046
4.83748
-0.199502
4.83937
-0.192203
4.84129
-0.185146
4.84322
-0.178328
4.84517
-0.171747
4.84712
-0.165398
4.84905
-0.159278
4.85097
-0.153381
4.85287
-0.147703
4.85473
-0.142238
4.85657
-0.136981
4.85837
-0.131927
4.86012
-0.12707
4.86184
-0.122403
4.86352
-0.117922
4.86514
-0.113621
4.86673
-0.109493
4.86827
-0.105533
4.86976
-0.101735
4.8712
-0.0980938
4.8726
-0.0946033
4.87395
-0.0912582
4.87526
-0.0880532
4.87652
-0.084983
4.87774
-0.0820425
4.87891
-0.0792269
4.88005
-0.0765313
4.88114
-0.0739514
4.8822
-0.0714825
4.88321
-0.0691205
4.88419
-0.0668612
4.88514
-0.0647007
4.88605
-0.0626351
4.88692
-0.0606608
4.88777
-0.0587743
4.88858
-0.0569721
4.88937
-0.055251
4.89012
-0.053608
4.89086
-0.05204
4.89156
-0.0505443
4.89224
-0.0491182
4.8929
-0.047759
4.89354
-0.0464643
4.89415
-0.0452318
4.89475
-0.0440593
4.89533
-0.0429447
4.89589
-0.0418861
4.89643
-0.0408818
4.89696
-0.0399299
4.89748
-0.039029
4.89799
-0.0381776
4.89848
-0.0373742
4.89897
-0.0366176
4.89945
-0.0359067
4.89992
-0.0352404
4.90039
-0.0346178
4.90085
-0.0340385
4.90132
-0.0335021
4.90178
-0.033009
4.90226
-0.0325602
4.90274
-0.0321581
4.90323
-0.0318064
4.90373
-0.0315112
4.90424
-0.0312813
4.90476
-0.0311275
4.90524
-0.0310586
-0.031064
5.19931
-0.275655
-5.24722
5.15591
-0.311417
5.11613
-0.340292
5.07973
-0.36279
5.04682
-0.379294
5.01738
-0.390558