/*--------------------------------*- C++ -*----------------------------------*\
  =========                 |
  \\      /  F ield         | OpenFOAM: The Open Source CFD Toolbox
   \\    /   O peration     | Website:  https://openfoam.org
    \\  /    A nd           | Version:  8
     \\/     M anipulation  |
\*---------------------------------------------------------------------------*/
FoamFile
{
    version     2.0;
    format      ascii;
    class       volScalarField;
    location    "0.999962";
    object      rho;
}
// * * * * * * * * * * * * * * * * * * * * * * * * * * * * * * * * * * * * * //

dimensions      [1 -3 0 0 0 0 0];

internalField   nonuniform List<scalar> 
6800
(
0.577866
0.579513
0.580244
0.581581
0.583051
0.583978
0.584715
0.585238
0.585721
0.586164
0.575089
0.57863
0.579973
0.581705
0.582847
0.583696
0.584412
0.585014
0.585606
0.586034
0.571293
0.577561
0.57937
0.580916
0.582231
0.583182
0.583958
0.584575
0.585128
0.585618
0.567027
0.576176
0.57761
0.579793
0.581259
0.582279
0.583127
0.583869
0.584569
0.585234
0.56246
0.574086
0.575784
0.578324
0.579943
0.581208
0.582263
0.583197
0.584025
0.584722
0.558021
0.571967
0.573395
0.576625
0.578556
0.580078
0.58133
0.582411
0.583355
0.584194
0.553928
0.569523
0.571239
0.575071
0.577174
0.578986
0.580468
0.581749
0.582851
0.583793
0.550529
0.567426
0.569224
0.573529
0.575945
0.578066
0.579741
0.581165
0.582371
0.583418
0.547953
0.56551
0.567644
0.572483
0.57505
0.577388
0.579228
0.580795
0.582106
0.583238
0.546413
0.564257
0.5666
0.571724
0.57448
0.577023
0.578983
0.58065
0.582027
0.58322
0.581536
0.5808
0.580557
0.58062
0.580872
0.581248
0.581732
0.582308
0.582926
0.583542
0.581165
0.580638
0.58041
0.580455
0.580688
0.581059
0.581556
0.582161
0.58282
0.583485
0.580886
0.580387
0.580182
0.580216
0.580449
0.580841
0.581366
0.582014
0.582754
0.583505
0.580388
0.580071
0.579968
0.580038
0.580302
0.580761
0.581376
0.582068
0.582838
0.58362
0.579901
0.579822
0.579856
0.580056
0.58043
0.580967
0.581585
0.582265
0.583026
0.583807
0.579523
0.579701
0.579959
0.58034
0.580817
0.581326
0.581892
0.582541
0.583301
0.584106
0.579186
0.579744
0.580229
0.580799
0.581188
0.581642
0.582208
0.582977
0.583737
0.584798
0.578732
0.579703
0.580623
0.581029
0.581403
0.58196
0.582776
0.583752
0.584672
0.585827
0.578358
0.579607
0.58068
0.581093
0.58167
0.582638
0.583782
0.584784
0.585749
0.586472
0.578357
0.579758
0.58045
0.581174
0.582341
0.583609
0.584596
0.585389
0.585948
0.586476
0.584235
0.584927
0.585486
0.585956
0.586344
0.586661
0.58693
0.587159
0.587357
0.58753
0.587682
0.587816
0.587934
0.588038
0.588131
0.588213
0.588285
0.588349
0.588405
0.588455
0.588498
0.588535
0.588568
0.588597
0.588622
0.588644
0.588664
0.588682
0.588699
0.588714
0.588728
0.588741
0.588754
0.588765
0.588776
0.588786
0.588795
0.588803
0.588811
0.588818
0.588824
0.58883
0.588836
0.588841
0.588846
0.588851
0.588856
0.588861
0.588867
0.588872
0.588878
0.588884
0.588891
0.588898
0.588906
0.588914
0.588922
0.588931
0.58894
0.588949
0.588959
0.588969
0.588979
0.588989
0.589
0.58901
0.589021
0.589031
0.589042
0.589053
0.589063
0.589074
0.589084
0.589094
0.589104
0.589114
0.589124
0.589133
0.589142
0.589151
0.58916
0.589168
0.589176
0.589184
0.589192
0.5892
0.589207
0.589215
0.589222
0.58923
0.589237
0.589245
0.589253
0.589261
0.58927
0.589277
0.589287
0.589295
0.589308
0.58932
0.584154
0.584872
0.585436
0.585897
0.586279
0.586597
0.586869
0.587101
0.587302
0.587478
0.587633
0.58777
0.587891
0.587998
0.588093
0.588177
0.588252
0.588317
0.588375
0.588426
0.588471
0.58851
0.588545
0.588575
0.588602
0.588626
0.588647
0.588667
0.588685
0.588701
0.588716
0.58873
0.588744
0.588756
0.588767
0.588777
0.588787
0.588796
0.588804
0.588811
0.588818
0.588824
0.58883
0.588835
0.588841
0.588846
0.588851
0.588857
0.588862
0.588868
0.588875
0.588881
0.588888
0.588896
0.588903
0.588911
0.58892
0.588929
0.588938
0.588947
0.588957
0.588967
0.588977
0.588987
0.588998
0.589008
0.589019
0.589029
0.58904
0.58905
0.589061
0.589071
0.589081
0.589091
0.589101
0.589111
0.58912
0.589129
0.589138
0.589147
0.589156
0.589164
0.589172
0.58918
0.589188
0.589196
0.589203
0.589211
0.589219
0.589226
0.589234
0.589242
0.58925
0.589258
0.589266
0.589274
0.589284
0.589291
0.589304
0.589315
0.584095
0.584786
0.585342
0.585797
0.586179
0.586502
0.58678
0.58702
0.587226
0.587409
0.58757
0.587713
0.587839
0.587951
0.588051
0.588139
0.588217
0.588287
0.588348
0.588402
0.588449
0.588491
0.588529
0.588562
0.588591
0.588618
0.588641
0.588663
0.588683
0.588701
0.588717
0.588733
0.588747
0.58876
0.588772
0.588782
0.588792
0.588801
0.588809
0.588817
0.588824
0.58883
0.588836
0.588842
0.588847
0.588853
0.588858
0.588864
0.58887
0.588876
0.588882
0.588889
0.588896
0.588904
0.588911
0.588919
0.588928
0.588936
0.588945
0.588955
0.588964
0.588974
0.588984
0.588994
0.589004
0.589014
0.589024
0.589034
0.589044
0.589054
0.589064
0.589074
0.589084
0.589093
0.589103
0.589112
0.589121
0.58913
0.589139
0.589147
0.589155
0.589164
0.589171
0.589179
0.589187
0.589195
0.589202
0.58921
0.589217
0.589225
0.589232
0.58924
0.589248
0.589256
0.589264
0.589272
0.589282
0.589289
0.589301
0.589312
0.584019
0.584661
0.58524
0.585707
0.586095
0.58643
0.586722
0.586976
0.587194
0.587387
0.587558
0.58771
0.587844
0.587964
0.58807
0.588164
0.588248
0.588322
0.588388
0.588446
0.588497
0.588542
0.588582
0.588618
0.58865
0.588678
0.588703
0.588726
0.588747
0.588766
0.588782
0.588798
0.588811
0.588824
0.588835
0.588845
0.588853
0.588861
0.588868
0.588875
0.588881
0.588886
0.588891
0.588896
0.5889
0.588905
0.58891
0.588914
0.588919
0.588925
0.58893
0.588936
0.588942
0.588948
0.588955
0.588962
0.58897
0.588977
0.588985
0.588993
0.589002
0.58901
0.589019
0.589027
0.589036
0.589045
0.589054
0.589063
0.589072
0.589081
0.58909
0.589098
0.589107
0.589116
0.589124
0.589133
0.589141
0.589149
0.589157
0.589165
0.589172
0.58918
0.589187
0.589194
0.589201
0.589209
0.589216
0.589223
0.58923
0.589237
0.589244
0.589252
0.589259
0.589267
0.589275
0.589282
0.58929
0.589298
0.589307
0.589318
0.58399
0.584612
0.585262
0.585777
0.586192
0.586552
0.586869
0.587145
0.587382
0.587589
0.587772
0.587932
0.588074
0.588198
0.588307
0.588404
0.588488
0.588563
0.588629
0.588686
0.588737
0.588781
0.58882
0.588853
0.588883
0.588908
0.588931
0.58895
0.588967
0.588982
0.588994
0.589005
0.589014
0.589021
0.589027
0.589032
0.589036
0.589039
0.589042
0.589044
0.589045
0.589047
0.589048
0.589049
0.589049
0.589051
0.589052
0.589053
0.589055
0.589057
0.589059
0.589062
0.589065
0.589068
0.589071
0.589075
0.58908
0.589084
0.589089
0.589094
0.5891
0.589106
0.589111
0.589117
0.589124
0.58913
0.589136
0.589143
0.589149
0.589156
0.589162
0.589169
0.589175
0.589181
0.589188
0.589194
0.589201
0.589207
0.589213
0.589219
0.589225
0.589231
0.589237
0.589243
0.589249
0.589255
0.589261
0.589267
0.589273
0.589279
0.589285
0.589292
0.589298
0.589305
0.589311
0.589318
0.589324
0.589332
0.589338
0.589348
0.584169
0.584841
0.585612
0.586228
0.586714
0.587131
0.587492
0.587804
0.588072
0.588302
0.588498
0.588666
0.588811
0.588934
0.589038
0.589127
0.589202
0.589265
0.589317
0.58936
0.589395
0.589423
0.589446
0.589463
0.589475
0.589484
0.589489
0.589491
0.589491
0.589489
0.589485
0.58948
0.589473
0.589465
0.589457
0.589448
0.589439
0.589429
0.58942
0.58941
0.589401
0.589392
0.589383
0.589374
0.589365
0.589357
0.58935
0.589343
0.589336
0.58933
0.589325
0.58932
0.589315
0.589311
0.589308
0.589305
0.589303
0.589301
0.5893
0.589299
0.589298
0.589298
0.589299
0.589299
0.5893
0.589302
0.589303
0.589305
0.589307
0.589309
0.589311
0.589313
0.589316
0.589318
0.589321
0.589324
0.589327
0.58933
0.589333
0.589336
0.589339
0.589342
0.589346
0.589349
0.589352
0.589356
0.589359
0.589363
0.589367
0.589371
0.589375
0.58938
0.589384
0.589389
0.589393
0.589398
0.589401
0.589407
0.58941
0.589418
0.584821
0.585516
0.586371
0.587088
0.587643
0.58811
0.588525
0.588878
0.589187
0.589449
0.589671
0.589861
0.59002
0.590154
0.590265
0.590357
0.590431
0.59049
0.590535
0.590568
0.590589
0.590601
0.590605
0.590601
0.590591
0.590575
0.590554
0.590528
0.590499
0.590467
0.590432
0.590397
0.59036
0.590323
0.590285
0.590248
0.590212
0.590176
0.59014
0.590106
0.590073
0.590041
0.59001
0.58998
0.589951
0.589924
0.589898
0.589873
0.58985
0.589827
0.589806
0.589785
0.589766
0.589748
0.589732
0.589716
0.589702
0.589688
0.589675
0.589664
0.589653
0.589642
0.589633
0.589624
0.589616
0.589608
0.589601
0.589594
0.589588
0.589583
0.589578
0.589573
0.589568
0.589564
0.589561
0.589557
0.589554
0.589552
0.589549
0.589547
0.589545
0.589544
0.589542
0.589541
0.58954
0.589539
0.589539
0.589539
0.589539
0.589539
0.589539
0.58954
0.589541
0.589542
0.589542
0.589544
0.589544
0.589546
0.589545
0.589549
0.585827
0.586456
0.587291
0.588005
0.588572
0.589043
0.589448
0.589799
0.590099
0.590355
0.590573
0.59076
0.590918
0.591052
0.591166
0.591261
0.591341
0.591406
0.591459
0.591502
0.591534
0.591558
0.591575
0.591584
0.591588
0.591585
0.591577
0.591566
0.59155
0.59153
0.591507
0.591479
0.591449
0.591414
0.591378
0.591338
0.591296
0.591253
0.591207
0.59116
0.591112
0.591063
0.591014
0.590964
0.590913
0.590863
0.590813
0.590764
0.590715
0.590667
0.59062
0.590575
0.590531
0.59049
0.590449
0.590411
0.590374
0.590339
0.590306
0.590275
0.590245
0.590216
0.59019
0.590164
0.59014
0.590117
0.590096
0.590075
0.590056
0.590037
0.59002
0.590003
0.589988
0.589973
0.589959
0.589945
0.589933
0.589921
0.589909
0.589899
0.589888
0.589879
0.589869
0.589861
0.589852
0.589845
0.589837
0.589831
0.589824
0.589819
0.589813
0.589808
0.589802
0.589798
0.589793
0.589789
0.589784
0.58978
0.589773
0.58977
0.5865
0.586989
0.587739
0.588415
0.588976
0.589444
0.589845
0.590188
0.590485
0.590737
0.590954
0.591137
0.591295
0.591428
0.591542
0.591638
0.59172
0.591789
0.591846
0.591893
0.591932
0.591963
0.591988
0.592006
0.592019
0.592028
0.592033
0.592034
0.592032
0.592027
0.59202
0.592011
0.592
0.591987
0.591972
0.591956
0.591938
0.591918
0.591897
0.591875
0.591851
0.591827
0.591801
0.591774
0.591746
0.591717
0.591686
0.591655
0.591622
0.591588
0.591554
0.591518
0.591481
0.591442
0.591402
0.591362
0.59132
0.591278
0.591235
0.591192
0.591149
0.591105
0.591061
0.591018
0.590975
0.590932
0.590891
0.59085
0.59081
0.590771
0.590734
0.590697
0.590662
0.590629
0.590597
0.590566
0.590537
0.590509
0.590482
0.590457
0.590433
0.59041
0.590388
0.590367
0.590347
0.590328
0.59031
0.590293
0.590276
0.59026
0.590245
0.59023
0.590216
0.590202
0.590188
0.590176
0.590162
0.59015
0.590135
0.590121
0.586638
0.587142
0.587783
0.588415
0.588976
0.58946
0.589878
0.590242
0.590557
0.590829
0.591063
0.591264
0.591437
0.591585
0.591711
0.591819
0.591911
0.591988
0.592054
0.592107
0.592153
0.592189
0.592219
0.592241
0.592259
0.592271
0.592279
0.592284
0.592285
0.592284
0.59228
0.592274
0.592266
0.592257
0.592247
0.592235
0.592223
0.59221
0.592196
0.592182
0.592167
0.592151
0.592136
0.59212
0.592104
0.592087
0.592071
0.592054
0.592037
0.59202
0.592004
0.591986
0.591969
0.591952
0.591934
0.591916
0.591898
0.591879
0.59186
0.59184
0.59182
0.591799
0.591777
0.591755
0.591732
0.591708
0.591683
0.591657
0.591631
0.591603
0.591575
0.591546
0.591516
0.591486
0.591455
0.591422
0.59139
0.591357
0.591323
0.591289
0.591255
0.59122
0.591186
0.591151
0.591117
0.591082
0.591049
0.591015
0.590984
0.590951
0.590921
0.590889
0.590861
0.59083
0.590804
0.590774
0.590751
0.590721
0.590699
0.590663
0.587032
0.587569
0.588138
0.588707
0.58923
0.589691
0.590095
0.590447
0.590754
0.59102
0.591249
0.591446
0.591615
0.591759
0.591882
0.591987
0.592076
0.59215
0.592212
0.592264
0.592306
0.59234
0.592367
0.592388
0.592403
0.592414
0.59242
0.592423
0.592423
0.59242
0.592416
0.592409
0.592401
0.592391
0.59238
0.592368
0.592356
0.592343
0.59233
0.592316
0.592301
0.592287
0.592273
0.592258
0.592244
0.592229
0.592215
0.592201
0.592187
0.592173
0.59216
0.592146
0.592133
0.592121
0.592108
0.592096
0.592084
0.592072
0.592061
0.59205
0.592039
0.592028
0.592017
0.592006
0.591996
0.591986
0.591976
0.591965
0.591955
0.591945
0.591935
0.591924
0.591914
0.591902
0.591892
0.59188
0.591868
0.591856
0.591843
0.59183
0.591816
0.591801
0.591786
0.59177
0.591754
0.591735
0.591718
0.591698
0.591679
0.591656
0.591637
0.591612
0.591591
0.591564
0.591542
0.591513
0.59149
0.591458
0.591437
0.59139
0.587299
0.587866
0.588429
0.588968
0.589459
0.589891
0.590269
0.590598
0.590886
0.591135
0.591351
0.591536
0.591696
0.591832
0.591949
0.592048
0.592132
0.592203
0.592262
0.592311
0.592351
0.592384
0.592409
0.592429
0.592444
0.592454
0.59246
0.592463
0.592463
0.592461
0.592456
0.59245
0.592442
0.592433
0.592423
0.592412
0.5924
0.592388
0.592376
0.592363
0.592349
0.592336
0.592323
0.592309
0.592296
0.592282
0.592269
0.592256
0.592243
0.59223
0.592218
0.592206
0.592194
0.592182
0.592171
0.59216
0.59215
0.59214
0.59213
0.59212
0.592111
0.592102
0.592093
0.592085
0.592077
0.592069
0.592062
0.592054
0.592047
0.592041
0.592034
0.592028
0.592022
0.592016
0.59201
0.592005
0.591999
0.591994
0.591988
0.591983
0.591978
0.591972
0.591967
0.591961
0.591956
0.59195
0.591944
0.591938
0.591932
0.591925
0.591919
0.591911
0.591904
0.591896
0.591888
0.591879
0.59187
0.59186
0.591848
0.591835
0.587534
0.588064
0.588597
0.589098
0.589551
0.589953
0.59031
0.590625
0.590902
0.591145
0.591356
0.591539
0.591697
0.591833
0.59195
0.592051
0.592136
0.592208
0.592269
0.59232
0.592362
0.592396
0.592424
0.592445
0.592462
0.592474
0.592482
0.592487
0.592488
0.592487
0.592484
0.592479
0.592473
0.592465
0.592456
0.592447
0.592436
0.592425
0.592414
0.592402
0.59239
0.592377
0.592365
0.592352
0.59234
0.592327
0.592315
0.592302
0.59229
0.592278
0.592266
0.592255
0.592244
0.592233
0.592222
0.592212
0.592202
0.592192
0.592182
0.592173
0.592165
0.592156
0.592148
0.59214
0.592132
0.592125
0.592118
0.592111
0.592105
0.592098
0.592092
0.592087
0.592081
0.592076
0.592071
0.592066
0.592061
0.592056
0.592052
0.592047
0.592043
0.592038
0.592034
0.59203
0.592026
0.592021
0.592018
0.592013
0.592009
0.592005
0.592001
0.591997
0.591993
0.591989
0.591985
0.59198
0.591976
0.591971
0.591966
0.591961
0.587783
0.588274
0.588784
0.589258
0.589682
0.59006
0.590398
0.590698
0.590963
0.591196
0.591399
0.591576
0.591729
0.591861
0.591975
0.592073
0.592156
0.592227
0.592287
0.592337
0.592379
0.592413
0.59244
0.592462
0.592478
0.592491
0.592499
0.592504
0.592506
0.592506
0.592503
0.592499
0.592493
0.592486
0.592478
0.592469
0.592459
0.592449
0.592438
0.592427
0.592415
0.592403
0.592392
0.59238
0.592368
0.592356
0.592344
0.592332
0.592321
0.59231
0.592298
0.592287
0.592277
0.592266
0.592256
0.592246
0.592237
0.592228
0.592219
0.59221
0.592202
0.592194
0.592186
0.592178
0.592171
0.592164
0.592157
0.592151
0.592145
0.592139
0.592133
0.592128
0.592123
0.592118
0.592113
0.592108
0.592104
0.592099
0.592095
0.592091
0.592087
0.592083
0.592079
0.592075
0.592071
0.592067
0.592063
0.59206
0.592056
0.592052
0.592049
0.592045
0.592041
0.592037
0.592034
0.59203
0.592026
0.592022
0.592018
0.592014
0.588047
0.588495
0.588975
0.589417
0.58981
0.590162
0.590478
0.59076
0.591011
0.591232
0.591426
0.591596
0.591744
0.591872
0.591983
0.592078
0.59216
0.59223
0.592289
0.592339
0.59238
0.592414
0.592442
0.592464
0.592481
0.592494
0.592503
0.592509
0.592512
0.592512
0.592511
0.592507
0.592503
0.592496
0.592489
0.592481
0.592472
0.592462
0.592453
0.592442
0.592432
0.592421
0.59241
0.592399
0.592388
0.592376
0.592365
0.592354
0.592344
0.592333
0.592323
0.592312
0.592302
0.592292
0.592283
0.592274
0.592265
0.592256
0.592247
0.592239
0.592231
0.592224
0.592216
0.592209
0.592202
0.592196
0.592189
0.592183
0.592178
0.592172
0.592167
0.592162
0.592157
0.592152
0.592147
0.592143
0.592139
0.592134
0.59213
0.592126
0.592122
0.592119
0.592115
0.592111
0.592107
0.592104
0.5921
0.592097
0.592093
0.59209
0.592086
0.592083
0.592079
0.592076
0.592072
0.592068
0.592065
0.592061
0.592057
0.592054
0.588323
0.588727
0.589172
0.589583
0.589947
0.590273
0.590568
0.590833
0.591069
0.591278
0.591463
0.591625
0.591766
0.59189
0.591997
0.592089
0.592168
0.592236
0.592293
0.592342
0.592383
0.592416
0.592444
0.592466
0.592483
0.592496
0.592505
0.592512
0.592515
0.592516
0.592515
0.592512
0.592508
0.592502
0.592496
0.592488
0.59248
0.592471
0.592462
0.592453
0.592443
0.592433
0.592422
0.592412
0.592402
0.592391
0.592381
0.592371
0.59236
0.59235
0.592341
0.592331
0.592321
0.592312
0.592303
0.592294
0.592286
0.592278
0.59227
0.592262
0.592254
0.592247
0.59224
0.592233
0.592227
0.592221
0.592215
0.592209
0.592204
0.592198
0.592193
0.592189
0.592184
0.592179
0.592175
0.592171
0.592167
0.592163
0.592159
0.592155
0.592152
0.592148
0.592144
0.592141
0.592137
0.592134
0.592131
0.592127
0.592124
0.592121
0.592117
0.592114
0.592111
0.592107
0.592104
0.592101
0.592097
0.592094
0.59209
0.592087
0.588608
0.588969
0.589377
0.589756
0.59009
0.59039
0.590663
0.59091
0.591131
0.591327
0.591501
0.591654
0.591788
0.591906
0.592008
0.592096
0.592172
0.592238
0.592293
0.59234
0.59238
0.592413
0.59244
0.592461
0.592478
0.592491
0.592501
0.592508
0.592512
0.592513
0.592513
0.592511
0.592507
0.592502
0.592496
0.59249
0.592482
0.592474
0.592466
0.592457
0.592448
0.592439
0.592429
0.592419
0.59241
0.5924
0.592391
0.592381
0.592371
0.592362
0.592353
0.592344
0.592335
0.592326
0.592318
0.59231
0.592302
0.592294
0.592287
0.592279
0.592272
0.592265
0.592259
0.592253
0.592247
0.592241
0.592235
0.59223
0.592225
0.59222
0.592215
0.59221
0.592206
0.592202
0.592198
0.592194
0.59219
0.592186
0.592183
0.592179
0.592175
0.592172
0.592169
0.592165
0.592162
0.592159
0.592156
0.592153
0.592149
0.592146
0.592143
0.59214
0.592137
0.592134
0.592131
0.592127
0.592124
0.592121
0.592118
0.592115
0.588899
0.589218
0.589588
0.589933
0.590239
0.590514
0.590764
0.590992
0.591197
0.59138
0.591543
0.591687
0.591813
0.591924
0.592021
0.592105
0.592177
0.59224
0.592293
0.592338
0.592376
0.592408
0.592434
0.592455
0.592472
0.592485
0.592494
0.592501
0.592505
0.592507
0.592507
0.592505
0.592502
0.592498
0.592493
0.592487
0.59248
0.592473
0.592465
0.592457
0.592448
0.59244
0.592431
0.592422
0.592413
0.592404
0.592395
0.592386
0.592378
0.592369
0.59236
0.592352
0.592344
0.592335
0.592328
0.59232
0.592312
0.592305
0.592298
0.592291
0.592285
0.592278
0.592272
0.592266
0.592261
0.592255
0.59225
0.592245
0.59224
0.592235
0.592231
0.592227
0.592223
0.592219
0.592215
0.592211
0.592208
0.592204
0.592201
0.592198
0.592194
0.592191
0.592188
0.592185
0.592182
0.592179
0.592176
0.592173
0.59217
0.592167
0.592164
0.592161
0.592158
0.592155
0.592152
0.592149
0.592146
0.592143
0.59214
0.592138
0.589192
0.589471
0.589803
0.590115
0.590392
0.590642
0.59087
0.591079
0.591268
0.591437
0.591588
0.591721
0.591839
0.591943
0.592034
0.592113
0.592181
0.59224
0.59229
0.592333
0.592369
0.592399
0.592424
0.592445
0.592461
0.592473
0.592483
0.592489
0.592494
0.592496
0.592496
0.592495
0.592492
0.592489
0.592484
0.592479
0.592472
0.592466
0.592459
0.592451
0.592444
0.592436
0.592428
0.592419
0.592411
0.592403
0.592395
0.592387
0.592378
0.59237
0.592362
0.592355
0.592347
0.59234
0.592332
0.592325
0.592318
0.592312
0.592305
0.592299
0.592293
0.592287
0.592281
0.592276
0.59227
0.592265
0.59226
0.592256
0.592251
0.592247
0.592243
0.592239
0.592235
0.592231
0.592228
0.592224
0.592221
0.592218
0.592215
0.592212
0.592209
0.592206
0.592203
0.5922
0.592197
0.592194
0.592191
0.592189
0.592186
0.592183
0.59218
0.592178
0.592175
0.592172
0.59217
0.592167
0.592164
0.592161
0.592159
0.592156
0.589483
0.589725
0.59002
0.590299
0.590547
0.590772
0.590979
0.591169
0.591341
0.591496
0.591634
0.591757
0.591866
0.591962
0.592047
0.59212
0.592184
0.592239
0.592286
0.592326
0.59236
0.592389
0.592412
0.592431
0.592447
0.592459
0.592468
0.592474
0.592479
0.592481
0.592481
0.592481
0.592478
0.592475
0.592471
0.592466
0.592461
0.592455
0.592448
0.592442
0.592435
0.592427
0.59242
0.592413
0.592405
0.592398
0.59239
0.592383
0.592375
0.592368
0.59236
0.592353
0.592346
0.592339
0.592333
0.592326
0.59232
0.592314
0.592308
0.592302
0.592296
0.592291
0.592285
0.59228
0.592275
0.592271
0.592266
0.592262
0.592258
0.592254
0.59225
0.592247
0.592243
0.59224
0.592236
0.592233
0.59223
0.592227
0.592224
0.592222
0.592219
0.592216
0.592213
0.592211
0.592208
0.592205
0.592203
0.5922
0.592198
0.592195
0.592193
0.59219
0.592188
0.592185
0.592183
0.59218
0.592178
0.592175
0.592173
0.59217
0.589769
0.589978
0.590236
0.590484
0.590705
0.590906
0.591091
0.591262
0.591417
0.591557
0.591683
0.591795
0.591894
0.591982
0.592059
0.592127
0.592186
0.592236
0.59228
0.592317
0.592349
0.592375
0.592397
0.592415
0.59243
0.592441
0.59245
0.592456
0.59246
0.592462
0.592463
0.592462
0.592461
0.592458
0.592454
0.59245
0.592445
0.59244
0.592434
0.592428
0.592422
0.592415
0.592408
0.592402
0.592395
0.592388
0.592381
0.592374
0.592368
0.592361
0.592354
0.592348
0.592342
0.592335
0.592329
0.592323
0.592317
0.592312
0.592306
0.592301
0.592296
0.592291
0.592286
0.592282
0.592277
0.592273
0.592269
0.592265
0.592261
0.592257
0.592254
0.592251
0.592247
0.592244
0.592241
0.592239
0.592236
0.592233
0.59223
0.592228
0.592225
0.592223
0.59222
0.592218
0.592216
0.592213
0.592211
0.592209
0.592206
0.592204
0.592202
0.592199
0.592197
0.592195
0.592193
0.59219
0.592188
0.592186
0.592183
0.592181
0.590051
0.590228
0.590452
0.590668
0.590862
0.59104
0.591204
0.591356
0.591494
0.591619
0.591732
0.591833
0.591923
0.592002
0.592072
0.592133
0.592187
0.592233
0.592273
0.592307
0.592336
0.59236
0.59238
0.592397
0.59241
0.592421
0.592429
0.592435
0.592438
0.592441
0.592442
0.592441
0.59244
0.592438
0.592434
0.592431
0.592426
0.592422
0.592417
0.592411
0.592406
0.5924
0.592394
0.592388
0.592382
0.592376
0.592369
0.592363
0.592357
0.592351
0.592345
0.59234
0.592334
0.592328
0.592323
0.592317
0.592312
0.592307
0.592302
0.592297
0.592293
0.592288
0.592284
0.59228
0.592276
0.592272
0.592268
0.592265
0.592261
0.592258
0.592255
0.592252
0.592249
0.592246
0.592244
0.592241
0.592238
0.592236
0.592234
0.592231
0.592229
0.592227
0.592225
0.592223
0.59222
0.592218
0.592216
0.592214
0.592212
0.59221
0.592208
0.592206
0.592204
0.592202
0.5922
0.592198
0.592196
0.592193
0.592191
0.59219
0.590326
0.590475
0.590666
0.590853
0.591021
0.591176
0.591319
0.591452
0.591573
0.591684
0.591783
0.591873
0.591952
0.592023
0.592085
0.59214
0.592188
0.592229
0.592265
0.592296
0.592322
0.592343
0.592362
0.592377
0.592389
0.592398
0.592406
0.592411
0.592415
0.592417
0.592418
0.592418
0.592417
0.592415
0.592412
0.592409
0.592405
0.592401
0.592396
0.592392
0.592387
0.592381
0.592376
0.592371
0.592365
0.59236
0.592355
0.592349
0.592344
0.592339
0.592333
0.592328
0.592323
0.592318
0.592313
0.592309
0.592304
0.5923
0.592295
0.592291
0.592287
0.592283
0.592279
0.592275
0.592272
0.592268
0.592265
0.592262
0.592259
0.592256
0.592253
0.592251
0.592248
0.592246
0.592243
0.592241
0.592239
0.592237
0.592235
0.592233
0.592231
0.592229
0.592227
0.592225
0.592223
0.592221
0.592219
0.592217
0.592216
0.592214
0.592212
0.59221
0.592208
0.592206
0.592205
0.592203
0.592201
0.592199
0.592197
0.592196
0.590595
0.590717
0.590879
0.591036
0.59118
0.591312
0.591435
0.591549
0.591654
0.591749
0.591836
0.591913
0.591983
0.592044
0.592099
0.592147
0.592189
0.592225
0.592257
0.592283
0.592306
0.592326
0.592342
0.592355
0.592366
0.592374
0.592381
0.592386
0.592389
0.592391
0.592392
0.592392
0.592391
0.59239
0.592387
0.592385
0.592381
0.592378
0.592374
0.59237
0.592366
0.592361
0.592357
0.592352
0.592348
0.592343
0.592338
0.592334
0.592329
0.592325
0.59232
0.592315
0.592311
0.592307
0.592303
0.592298
0.592294
0.592291
0.592287
0.592283
0.592279
0.592276
0.592273
0.592269
0.592266
0.592263
0.592261
0.592258
0.592255
0.592253
0.59225
0.592248
0.592246
0.592244
0.592242
0.59224
0.592238
0.592236
0.592234
0.592233
0.592231
0.592229
0.592227
0.592226
0.592224
0.592223
0.592221
0.592219
0.592218
0.592216
0.592215
0.592213
0.592211
0.59221
0.592208
0.592207
0.592205
0.592204
0.592202
0.592201
0.590858
0.590957
0.591089
0.59122
0.591339
0.591449
0.591552
0.591648
0.591736
0.591817
0.59189
0.591956
0.592015
0.592067
0.592113
0.592154
0.59219
0.592221
0.592248
0.592271
0.592291
0.592307
0.592321
0.592333
0.592342
0.59235
0.592355
0.59236
0.592363
0.592364
0.592365
0.592365
0.592365
0.592363
0.592362
0.592359
0.592357
0.592354
0.592351
0.592347
0.592344
0.59234
0.592336
0.592332
0.592328
0.592325
0.592321
0.592317
0.592313
0.592309
0.592305
0.592301
0.592298
0.592294
0.592291
0.592287
0.592284
0.592281
0.592277
0.592274
0.592271
0.592268
0.592266
0.592263
0.59226
0.592258
0.592256
0.592253
0.592251
0.592249
0.592247
0.592245
0.592243
0.592241
0.59224
0.592238
0.592236
0.592235
0.592233
0.592232
0.59223
0.592229
0.592228
0.592226
0.592225
0.592224
0.592222
0.592221
0.59222
0.592218
0.592217
0.592216
0.592214
0.592213
0.592212
0.59221
0.592209
0.592208
0.592206
0.592205
0.591113
0.591191
0.591296
0.591401
0.591497
0.591586
0.591669
0.591747
0.591819
0.591885
0.591944
0.591998
0.592047
0.59209
0.592128
0.592162
0.592191
0.592217
0.592239
0.592259
0.592275
0.592289
0.592301
0.59231
0.592318
0.592324
0.592329
0.592333
0.592336
0.592337
0.592338
0.592338
0.592338
0.592337
0.592336
0.592334
0.592332
0.59233
0.592327
0.592325
0.592322
0.592319
0.592316
0.592313
0.59231
0.592307
0.592303
0.5923
0.592297
0.592294
0.592291
0.592288
0.592285
0.592282
0.592279
0.592276
0.592274
0.592271
0.592268
0.592266
0.592264
0.592261
0.592259
0.592257
0.592255
0.592253
0.592251
0.592249
0.592247
0.592245
0.592244
0.592242
0.59224
0.592239
0.592238
0.592236
0.592235
0.592234
0.592233
0.592231
0.59223
0.592229
0.592228
0.592227
0.592226
0.592225
0.592224
0.592223
0.592221
0.59222
0.592219
0.592218
0.592217
0.592216
0.592215
0.592214
0.592213
0.592212
0.592211
0.59221
0.591365
0.591423
0.591502
0.591582
0.591656
0.591724
0.591788
0.591848
0.591904
0.591955
0.592002
0.592044
0.592081
0.592115
0.592145
0.592171
0.592194
0.592215
0.592232
0.592248
0.592261
0.592272
0.592281
0.592289
0.592295
0.5923
0.592305
0.592308
0.59231
0.592311
0.592312
0.592313
0.592313
0.592312
0.592311
0.59231
0.592308
0.592307
0.592305
0.592303
0.592301
0.592299
0.592296
0.592294
0.592292
0.592289
0.592287
0.592285
0.592282
0.59228
0.592278
0.592275
0.592273
0.592271
0.592269
0.592266
0.592264
0.592262
0.59226
0.592258
0.592256
0.592255
0.592253
0.592251
0.59225
0.592248
0.592246
0.592245
0.592244
0.592242
0.592241
0.59224
0.592238
0.592237
0.592236
0.592235
0.592234
0.592233
0.592232
0.592231
0.59223
0.592229
0.592229
0.592228
0.592227
0.592226
0.592225
0.592224
0.592223
0.592223
0.592222
0.592221
0.59222
0.592219
0.592218
0.592217
0.592217
0.592216
0.592215
0.592214
0.591609
0.591649
0.591704
0.59176
0.591812
0.591861
0.591906
0.591949
0.591989
0.592025
0.592058
0.592089
0.592116
0.592141
0.592163
0.592182
0.592199
0.592215
0.592228
0.592239
0.592249
0.592257
0.592264
0.59227
0.592275
0.592279
0.592282
0.592285
0.592287
0.592288
0.592289
0.592289
0.592289
0.592289
0.592288
0.592288
0.592287
0.592286
0.592284
0.592283
0.592281
0.59228
0.592278
0.592277
0.592275
0.592273
0.592272
0.59227
0.592268
0.592266
0.592265
0.592263
0.592261
0.59226
0.592258
0.592256
0.592255
0.592253
0.592252
0.59225
0.592249
0.592248
0.592246
0.592245
0.592244
0.592242
0.592241
0.59224
0.592239
0.592238
0.592237
0.592236
0.592235
0.592234
0.592233
0.592233
0.592232
0.592231
0.59223
0.59223
0.592229
0.592228
0.592228
0.592227
0.592226
0.592226
0.592225
0.592224
0.592224
0.592223
0.592222
0.592222
0.592221
0.592221
0.59222
0.592219
0.592219
0.592218
0.592217
0.592217
0.591849
0.591873
0.591905
0.591939
0.59197
0.591999
0.592027
0.592054
0.592079
0.592102
0.592123
0.592142
0.592159
0.592175
0.592189
0.592201
0.592212
0.592222
0.59223
0.592237
0.592243
0.592249
0.592253
0.592257
0.59226
0.592262
0.592264
0.592265
0.592266
0.592267
0.592267
0.592267
0.592267
0.592266
0.592266
0.592265
0.592264
0.592263
0.592262
0.592261
0.59226
0.592259
0.592258
0.592256
0.592255
0.592254
0.592253
0.592251
0.59225
0.592249
0.592248
0.592246
0.592245
0.592244
0.592243
0.592242
0.592241
0.59224
0.592239
0.592238
0.592237
0.592236
0.592235
0.592234
0.592234
0.592233
0.592232
0.592232
0.592231
0.59223
0.59223
0.592229
0.592228
0.592228
0.592227
0.592227
0.592226
0.592225
0.592225
0.592224
0.592224
0.592223
0.592223
0.592223
0.592222
0.592222
0.592221
0.592221
0.592221
0.59222
0.59222
0.592219
0.592219
0.592219
0.592218
0.592218
0.592218
0.592217
0.592217
0.592216
0.592098
0.592106
0.592118
0.59213
0.592142
0.592153
0.592164
0.592174
0.592183
0.592191
0.592199
0.592205
0.592211
0.592216
0.592221
0.592225
0.592228
0.592231
0.592233
0.592235
0.592236
0.592237
0.592238
0.592238
0.592239
0.592239
0.592239
0.592239
0.592238
0.592238
0.592237
0.592237
0.592236
0.592236
0.592235
0.592234
0.592234
0.592233
0.592233
0.592232
0.592231
0.592231
0.59223
0.592229
0.592229
0.592228
0.592228
0.592227
0.592226
0.592226
0.592225
0.592225
0.592224
0.592224
0.592223
0.592223
0.592223
0.592222
0.592222
0.592221
0.592221
0.592221
0.59222
0.59222
0.59222
0.59222
0.592219
0.592219
0.592219
0.592219
0.592218
0.592218
0.592218
0.592218
0.592218
0.592217
0.592217
0.592217
0.592217
0.592217
0.592217
0.592217
0.592216
0.592216
0.592216
0.592216
0.592216
0.592216
0.592216
0.592216
0.592215
0.592215
0.592215
0.592215
0.592215
0.592215
0.592215
0.592215
0.592215
0.592215
0.584212
0.584211
0.584363
0.584626
0.58501
0.585372
0.585846
0.58618
0.586523
0.586539
0.585041
0.585008
0.585098
0.585274
0.585561
0.585832
0.5862
0.586484
0.586769
0.586845
0.585811
0.585746
0.585782
0.58589
0.586088
0.586286
0.586557
0.586794
0.587028
0.587142
0.586483
0.586405
0.586409
0.586475
0.586611
0.586767
0.58695
0.587152
0.587341
0.587453
0.587086
0.587001
0.586984
0.587023
0.587106
0.58723
0.587362
0.587516
0.587671
0.587774
0.587624
0.587538
0.587508
0.587525
0.587577
0.587667
0.587768
0.587884
0.588008
0.588098
0.588111
0.588025
0.587987
0.587988
0.588022
0.588083
0.58816
0.588249
0.588348
0.588425
0.588553
0.588471
0.588428
0.588419
0.588438
0.58848
0.588538
0.588607
0.588686
0.588752
0.588957
0.58888
0.588836
0.58882
0.588829
0.588857
0.5889
0.588954
0.589018
0.589074
0.58933
0.589258
0.589214
0.589195
0.589196
0.589214