/*--------------------------------*- C++ -*----------------------------------*\
  =========                 |
  \\      /  F ield         | OpenFOAM: The Open Source CFD Toolbox
   \\    /   O peration     | Website:  https://openfoam.org
    \\  /    A nd           | Version:  8
     \\/     M anipulation  |
\*---------------------------------------------------------------------------*/
FoamFile
{
    version     2.0;
    format      ascii;
    class       volScalarField;
    location    "0.999962";
    object      T;
}
// * * * * * * * * * * * * * * * * * * * * * * * * * * * * * * * * * * * * * //

dimensions      [0 0 0 1 0 0 0];

internalField   nonuniform List<scalar> 
6800
(
375.245
375.429
375.087
374.321
373.559
373.162
372.904
372.794
372.707
372.606
375.368
375.23
374.355
373.435
372.997
372.732
372.558
372.462
372.369
372.359
375.175
374.531
373.361
372.826
372.47
372.284
372.19
372.185
372.205
372.244
374.585
373.501
372.694
372.177
371.978
371.943
371.96
372.005
372.039
372.059
373.776
372.537
371.795
371.584
371.577
371.624
371.696
371.764
371.834
371.929
372.768
371.4
371.151
371.087
371.182
371.327
371.469
371.599
371.716
371.818
371.711
370.482
370.435
370.567
370.839
371.065
371.254
371.408
371.542
371.672
370.634
369.546
369.865
370.22
370.552
370.83
371.07
371.27
371.442
371.59
369.662
368.866
369.39
369.84
370.291
370.644
370.923
371.149
371.338
371.504
368.803
368.268
369.048
369.631
370.13
370.517
370.828
371.076
371.281
371.464
376.137
376.071
376.053
376.035
376.02
376.02
376.035
376.06
376.096
376.136
376.157
376.058
376.034
376.015
376
375.996
376.007
376.037
376.081
376.127
375.977
375.975
375.982
375.968
375.951
375.945
375.958
375.988
376.03
376.093
375.886
375.913
375.922
375.908
375.879
375.863
375.865
375.889
375.922
376.004
375.837
375.873
375.876
375.832
375.767
375.73
375.733
375.748
375.749
375.804
375.813
375.856
375.827
375.715
375.623
375.594
375.581
375.554
375.485
375.446
375.83
375.845
375.754
375.565
375.516
375.47
375.396
375.23
375.089
374.793
375.88
375.85
375.564
375.488
375.421
375.268
374.989
374.635
374.328
373.899
375.855
375.755
375.469
375.377
375.154
374.712
374.193
373.789
373.424
373.232
375.636
375.496
375.409
375.078
374.468
373.828
373.395
373.108
372.989
372.919
376.19
376.243
376.279
376.304
376.319
376.327
376.327
376.324
376.317
376.306
376.292
376.276
376.257
376.236
376.214
376.191
376.167
376.142
376.117
376.092
376.067
376.042
376.017
375.992
375.967
375.943
375.918
375.893
375.867
375.842
375.817
375.792
375.767
375.743
375.718
375.694
375.671
375.648
375.626
375.604
375.583
375.563
375.543
375.523
375.504
375.486
375.468
375.45
375.432
375.415
375.397
375.38
375.364
375.347
375.33
375.314
375.298
375.282
375.266
375.25
375.234
375.219
375.204
375.189
375.174
375.16
375.146
375.132
375.118
375.105
375.091
375.079
375.066
375.054
375.042
375.03
375.019
375.008
374.997
374.987
374.977
374.967
374.958
374.948
374.939
374.93
374.922
374.913
374.904
374.896
374.887
374.879
374.871
374.862
374.853
374.845
374.836
374.829
374.819
374.811
376.183
376.239
376.281
376.31
376.329
376.34
376.342
376.34
376.334
376.324
376.309
376.293
376.273
376.252
376.23
376.206
376.182
376.157
376.131
376.106
376.08
376.054
376.029
376.003
375.977
375.952
375.926
375.9
375.874
375.849
375.823
375.797
375.772
375.747
375.723
375.699
375.675
375.652
375.629
375.608
375.586
375.566
375.546
375.526
375.507
375.488
375.47
375.452
375.434
375.417
375.399
375.382
375.365
375.348
375.332
375.315
375.299
375.283
375.267
375.251
375.235
375.22
375.205
375.19
375.175
375.161
375.147
375.133
375.119
375.106
375.093
375.08
375.068
375.056
375.044
375.032
375.021
375.01
374.999
374.989
374.979
374.969
374.96
374.951
374.942
374.933
374.924
374.915
374.907
374.898
374.89
374.881
374.873
374.864
374.856
374.847
374.838
374.831
374.821
374.813
376.152
376.221
376.272
376.309
376.334
376.349
376.355
376.354
376.349
376.339
376.324
376.307
376.287
376.265
376.241
376.217
376.191
376.165
376.139
376.113
376.086
376.059
376.032
376.006
375.979
375.952
375.925
375.899
375.872
375.846
375.819
375.793
375.768
375.742
375.718
375.693
375.67
375.647
375.624
375.602
375.581
375.561
375.54
375.521
375.502
375.483
375.464
375.446
375.428
375.411
375.393
375.376
375.359
375.342
375.326
375.309
375.293
375.277
375.261
375.246
375.23
375.215
375.2
375.185
375.171
375.157
375.143
375.129
375.116
375.103
375.09
375.078
375.066
375.054
375.042
375.031
375.02
375.009
374.999
374.989
374.979
374.97
374.96
374.951
374.942
374.933
374.925
374.916
374.907
374.899
374.89
374.882
374.873
374.865
374.856
374.848
374.839
374.831
374.822
374.813
376.069
376.157
376.222
376.268
376.299
376.319
376.327
376.326
376.322
376.311
376.295
376.276
376.255
376.232
376.207
376.181
376.154
376.127
376.099
376.072
376.044
376.016
375.989
375.961
375.934
375.907
375.88
375.853
375.826
375.8
375.774
375.748
375.723
375.698
375.674
375.651
375.628
375.606
375.584
375.563
375.543
375.523
375.504
375.485
375.466
375.448
375.43
375.413
375.396
375.379
375.362
375.345
375.329
375.313
375.297
375.281
375.266
375.25
375.235
375.221
375.206
375.191
375.177
375.163
375.15
375.136
375.123
375.11
375.098
375.086
375.074
375.062
375.05
375.039
375.028
375.018
375.007
374.997
374.987
374.978
374.968
374.959
374.95
374.941
374.933
374.924
374.916
374.907
374.899
374.891
374.883
374.874
374.866
374.858
374.85
374.841
374.833
374.825
374.817
374.807
375.857
375.957
376.033
376.084
376.117
376.136
376.144
376.144
376.139
376.128
376.113
376.095
376.075
376.053
376.029
376.005
375.98
375.954
375.929
375.903
375.878
375.852
375.827
375.802
375.777
375.752
375.728
375.704
375.68
375.657
375.634
375.612
375.59
375.569
375.549
375.529
375.509
375.49
375.472
375.454
375.436
375.419
375.402
375.386
375.37
375.354
375.339
375.323
375.308
375.294
375.279
375.265
375.25
375.236
375.222
375.209
375.195
375.182
375.169
375.156
375.143
375.13
375.118
375.106
375.094
375.082
375.071
375.06
375.049
375.038
375.027
375.017
375.007
374.997
374.988
374.978
374.969
374.96
374.951
374.943
374.934
374.926
374.918
374.91
374.902
374.895
374.887
374.879
374.872
374.864
374.857
374.849
374.841
374.834
374.826
374.818
374.811
374.803
374.796
374.786
375.448
375.516
375.574
375.605
375.619
375.622
375.622
375.618
375.609
375.598
375.585
375.572
375.558
375.543
375.529
375.514
375.5
375.486
375.472
375.458
375.445
375.431
375.418
375.405
375.392
375.38
375.367
375.355
375.342
375.33
375.319
375.307
375.295
375.284
375.273
375.262
375.251
375.24
375.23
375.219
375.209
375.199
375.188
375.178
375.168
375.159
375.149
375.139
375.129
375.12
375.11
375.101
375.091
375.082
375.072
375.063
375.054
375.044
375.035
375.026
375.017
375.008
374.999
374.991
374.982
374.973
374.965
374.957
374.949
374.941
374.933
374.926
374.918
374.911
374.903
374.896
374.889
374.882
374.876
374.869
374.862
374.856
374.85
374.843
374.837
374.831
374.825
374.819
374.812
374.806
374.8
374.794
374.787
374.781
374.775
374.768
374.762
374.755
374.749
374.74
374.748
374.788
374.825
374.832
374.83
374.823
374.808
374.796
374.779
374.763
374.747
374.732
374.719
374.707
374.696
374.687
374.68
374.674
374.67
374.666
374.666
374.666
374.667
374.67
374.674
374.679
374.685
374.692
374.699
374.707
374.716
374.724
374.732
374.74
374.748
374.755
374.762
374.768
374.774
374.779
374.784
374.788
374.792
374.795
374.798
374.8
374.802
374.804
374.805
374.805
374.806
374.806
374.806
374.805
374.804
374.803
374.801
374.8
374.798
374.795
374.793
374.791
374.788
374.786
374.783
374.78
374.777
374.774
374.771
374.768
374.765
374.762
374.759
374.756
374.753
374.749
374.746
374.743
374.739
374.736
374.733
374.729
374.726
374.723
374.719
374.716
374.712
374.708
374.705
374.701
374.697
374.693
374.689
374.684
374.68
374.676
374.672
374.666
374.663
374.655
373.866
373.92
373.972
374.008
374.029
374.044
374.054
374.061
374.065
374.067
374.067
374.065
374.062
374.058
374.054
374.05
374.045
374.041
374.036
374.032
374.028
374.025
374.022
374.019
374.017
374.017
374.017
374.018
374.019
374.021
374.025
374.03
374.036
374.043
374.052
374.062
374.073
374.085
374.099
374.113
374.127
374.143
374.159
374.176
374.193
374.21
374.227
374.244
374.261
374.278
374.295
374.31
374.326
374.34
374.354
374.367
374.38
374.391
374.402
374.412
374.422
374.43
374.439
374.446
374.454
374.46
374.466
374.472
374.477
374.482
374.487
374.491
374.495
374.499
374.502
374.506
374.508
374.511
374.513
374.516
374.518
374.519
374.521
374.522
374.523
374.524
374.525
374.526
374.526
374.526
374.526
374.525
374.525
374.524
374.524
374.522
374.521
374.519
374.519
374.515
373.228
373.337
373.416
373.488
373.544
373.59
373.627
373.658
373.681
373.701
373.716
373.728
373.736
373.742
373.746
373.748
373.748
373.747
373.744
373.741
373.737
373.733
373.727
373.722
373.717
373.711
373.705
373.699
373.693
373.688
373.682
373.677
373.672
373.668
373.664
373.66
373.657
373.655
373.654
373.654
373.654
373.655
373.657
373.659
373.663
373.668
373.673
373.68
373.687
373.696
373.706
373.716
373.728
373.741
373.755
373.77
373.785
373.802
373.819
373.837
373.855
373.874
373.893
373.912
373.931
373.95
373.969
373.988
374.006
374.023
374.041
374.057
374.073
374.089
374.103
374.117
374.131
374.143
374.155
374.166
374.177
374.187
374.196
374.205
374.214
374.222
374.229
374.236
374.243
374.249
374.255
374.261
374.266
374.271
374.276
374.28
374.284
374.287
374.291
374.293
372.95
373.016
373.102
373.183
373.251
373.31
373.359
373.4
373.434
373.462
373.484
373.502
373.516
373.526
373.534
373.539
373.543
373.545
373.544
373.544
373.541
373.539
373.535
373.531
373.527
373.522
373.517
373.512
373.507
373.502
373.496
373.49
373.485
373.479
373.474
373.469
373.464
373.459
373.454
373.449
373.445
373.441
373.437
373.434
373.43
373.428
373.425
373.423
373.421
373.419
373.418
373.417
373.417
373.417
373.418
373.418
373.42
373.422
373.425
373.428
373.432
373.437
373.443
373.449
373.456
373.464
373.472
373.482
373.492
373.503
373.514
373.527
373.54
373.554
373.568
373.583
373.598
373.614
373.63
373.648
373.664
373.682
373.699
373.717
373.734
373.752
373.769
373.786
373.802
373.819
373.834
373.851
373.864
373.88
373.892
373.907
373.918
373.931
373.94
373.954
372.609
372.71
372.811
372.906
372.99
373.062
373.123
373.175
373.218
373.255
373.286
373.311
373.333
373.35
373.364
373.376
373.384
373.391
373.396
373.4
373.402
373.404
373.404
373.403
373.402
373.4
373.398
373.395
373.392
373.389
373.385
373.382
373.378
373.374
373.37
373.365
373.361
373.357
373.353
373.349
373.345
373.341
373.337
373.333
373.329
373.326
373.322
373.319
373.316
373.313
373.31
373.308
373.305
373.303
373.3
373.298
373.296
373.294
373.292
373.291
373.29
373.288
373.287
373.286
373.286
373.285
373.285
373.285
373.285
373.286
373.286
373.287
373.288
373.29
373.292
373.294
373.297
373.3
373.304
373.308
373.312
373.317
373.323
373.329
373.336
373.344
373.351
373.36
373.368
373.379
373.388
373.4
373.409
373.422
373.432
373.447
373.457
373.473
373.481
373.504
372.547
372.646
372.741
372.83
372.908
372.976
373.035
373.086
373.13
373.168
373.2
373.228
373.251
373.271
373.287
373.3
373.311
373.32
373.327
373.332
373.336
373.339
373.34
373.341
373.341
373.34
373.339
373.337
373.335
373.332
373.329
373.326
373.323
373.32
373.316
373.312
373.308
373.305
373.301
373.297
373.293
373.289
373.286
373.282
373.279
373.275
373.272
373.269
373.266
373.263
373.26
373.257
373.254
373.252
373.249
373.247
373.244
373.242
373.24
373.238
373.235
373.234
373.232
373.23
373.228
373.226
373.225
373.223
373.221
373.22
373.219
373.217
373.216
373.215
373.214
373.213
373.212
373.211
373.21
373.209
373.209
373.208
373.208
373.208
373.208
373.208
373.208
373.209
373.209
373.21
373.211
373.212
373.213
373.215
373.216
373.218
373.22
373.222
373.226
373.229
372.516
372.611
372.703
372.787
372.861
372.927
372.985
373.035
373.079
373.116
373.149
373.176
373.2
373.219
373.236
373.25
373.261
373.27
373.277
373.283
373.287
373.29
373.292
373.293
373.293
373.292
373.291
373.29
373.288
373.285
373.283
373.28
373.277
373.274
373.27
373.267
373.263
373.26
373.256
373.252
373.249
373.245
373.242
373.238
373.235
373.232
373.229
373.226
373.223
373.22
373.217
373.214
373.212
373.209
373.207
373.205
373.202
373.2
373.198
373.196
373.194
373.192
373.19
373.189
373.187
373.185
373.184
373.182
373.18
373.179
373.177
373.176
373.175
373.173
373.172
373.171
373.169
373.168
373.167
373.166
373.165
373.164
373.163
373.163
373.162
373.161
373.16
373.16
373.159
373.159
373.158
373.157
373.156
373.156
373.155
373.155
373.154
373.153
373.152
373.152
372.501
372.591
372.678
372.757
372.828
372.89
372.945
372.993
373.035
373.071
373.103
373.13
373.153
373.172
373.189
373.203
373.214
373.224
373.231
373.237
373.242
373.245
373.247
373.249
373.249
373.249
373.249
373.248
373.246
373.244
373.242
373.24
373.237
373.234
373.231
373.228
373.225
373.222
373.219
373.215
373.212
373.209
373.206
373.203
373.199
373.197
373.194
373.191
373.188
373.186
373.183
373.181
373.178
373.176
373.174
373.172
373.169
373.167
373.165
373.164
373.162
373.16
373.158
373.157
373.155
373.154
373.152
373.15
373.149
373.148
373.146
373.145
373.143
373.142
373.141
373.14
373.138
373.137
373.136
373.135
373.134
373.133
373.133
373.132
373.131
373.13
373.129
373.129
373.128
373.127
373.127
373.126
373.125
373.124
373.124
373.123
373.122
373.121
373.12
373.119
372.496
372.58
372.663
372.737
372.802
372.861
372.913
372.959
372.999
373.035
373.065
373.092
373.114
373.134
373.15
373.164
373.176
373.185
373.193
373.199
373.204
373.208
373.211
373.212
373.213
373.214
373.213
373.213
373.212
373.21
373.208
373.206
373.204
373.201
373.199
373.196
373.193
373.19
373.187
373.184
373.181
373.178
373.175
373.173
373.17
373.167
373.164
373.162
373.159
373.157
373.154
373.152
373.15
373.148
373.146
373.144
373.142
373.14
373.138
373.136
373.135
373.133
373.131
373.13
373.128
373.127
373.125
373.124
373.123
373.121
373.12
373.119
373.117
373.116
373.115
373.114
373.113
373.112
373.111
373.11
373.109
373.108
373.107
373.106
373.106
373.105
373.104
373.103
373.103
373.102
373.101
373.101
373.1
373.099
373.099
373.098
373.097
373.096
373.095
373.094
372.501
372.579
372.655
372.724
372.785
372.84
372.889
372.933
372.971
373.005
373.034
373.06
373.082
373.101
373.117
373.131
373.142
373.152
373.16
373.166
373.171
373.175
373.178
373.18
373.181
373.182
373.182
373.181
373.18
373.179
373.178
373.176
373.174
373.172
373.169
373.167
373.164
373.162
373.159
373.156
373.154
373.151
373.148
373.146
373.143
373.141
373.138
373.136
373.133
373.131
373.129
373.127
373.125
373.123
373.121
373.119
373.118
373.116
373.114
373.113
373.111
373.11
373.108
373.107
373.105
373.104
373.102
373.101
373.1
373.099
373.097
373.096
373.095
373.094
373.093
373.092
373.091
373.09
373.089
373.088
373.087
373.086
373.086
373.085
373.084
373.083
373.083
373.082
373.081
373.081
373.08
373.08
373.079
373.078
373.078
373.077
373.076
373.075
373.075
373.074
372.513
372.583
372.654
372.718
372.775
372.825
372.871
372.912
372.948
372.98
373.008
373.033
373.054
373.072
373.088
373.101
373.113
373.122
373.13
373.136
373.142
373.146
373.149
373.151
373.152
373.153
373.154
373.154
373.153
373.152
373.151
373.149
373.148
373.146
373.144
373.142
373.139
373.137
373.135
373.132
373.13
373.127
373.125
373.122
373.12
373.118
373.116
373.113
373.111
373.109
373.107
373.105
373.103
373.102
373.1
373.098
373.097
373.095
373.094
373.092
373.091
373.089
373.088
373.087
373.085
373.084
373.083
373.082
373.08
373.079
373.078
373.077
373.076
373.075
373.074
373.073
373.072
373.071
373.07
373.069
373.069
373.068
373.067
373.067
373.066
373.065
373.065
373.064
373.063
373.063
373.062
373.062
373.061
373.061
373.06
373.059
373.059
373.058
373.057
373.056
372.531
372.594
372.659
372.718
372.769
372.816
372.859
372.897
372.931
372.961
372.987
373.01
373.031
373.048
373.063
373.076
373.087
373.097
373.104
373.111
373.116
373.12
373.123
373.126
373.127
373.128
373.129
373.129
373.129
373.128
373.127
373.126
373.124
373.123
373.121
373.119
373.117
373.115
373.113
373.111
373.109
373.106
373.104
373.102
373.1
373.098
373.096
373.094
373.092
373.09
373.088
373.087
373.085
373.083
373.082
373.08
373.079
373.077
373.076
373.075
373.073
373.072
373.071
373.07
373.069
373.067
373.066
373.065
373.064
373.063
373.062
373.061
373.06
373.059
373.058
373.057
373.056
373.056
373.055
373.054
373.053
373.053
373.052
373.051
373.051
373.05
373.05
373.049
373.049
373.048
373.047
373.047
373.046
373.046
373.045
373.045
373.044
373.043
373.043
373.042
372.554
372.61
372.669
372.722
372.769
372.812
372.851
372.887
372.918
372.946
372.971
372.993
373.012
373.029
373.043
373.055
373.066
373.075
373.083
373.089
373.094
373.098
373.101
373.104
373.106
373.107
373.108
373.108
373.108
373.107
373.107
373.106
373.104
373.103
373.102
373.1
373.098
373.096
373.094
373.093
373.091
373.089
373.087
373.085
373.083
373.081
373.079
373.077
373.076
373.074
373.072
373.071
373.069
373.068
373.067
373.065
373.064
373.063
373.061
373.06
373.059
373.058
373.057
373.056
373.055
373.054
373.053
373.052
373.051
373.05
373.049
373.048
373.047
373.046
373.045
373.044
373.044
373.043
373.042
373.041
373.041
373.04
373.04
373.039
373.038
373.038
373.037
373.037
373.036
373.036
373.035
373.035
373.034
373.034
373.033
373.033
373.032
373.032
373.031
373.03
372.581
372.632
372.684
372.732
372.775
372.814
372.849
372.881
372.91
372.936
372.959
372.98
372.997
373.013
373.027
373.038
373.049
373.057
373.064
373.07
373.075
373.079
373.083
373.085
373.087
373.088
373.089
373.09
373.09
373.089
373.089
373.088
373.087
373.086
373.085
373.083
373.082
373.08
373.079
373.077
373.075
373.074
373.072
373.07
373.068
373.067
373.065
373.064
373.062
373.061
373.059
373.058
373.056
373.055
373.054
373.053
373.051
373.05
373.049
373.048
373.047
373.046
373.045
373.044
373.043
373.042
373.041
373.041
373.04
373.039
373.038
373.037
373.036
373.035
373.035
373.034
373.033
373.033
373.032
373.031
373.031
373.03
373.03
373.029
373.029
373.028
373.028
373.027
373.027
373.026
373.026
373.025
373.025
373.025
373.024
373.024
373.023
373.023
373.022
373.021
372.613
372.657
372.703
372.746
372.784
372.819
372.851
372.881
372.907
372.931
372.952
372.971
372.987
373.001
373.014
373.025
373.035
373.043
373.049
373.055
373.06
373.064
373.067
373.07
373.071
373.073
373.074
373.074
373.075
373.074
373.074
373.073
373.073
373.072
373.071
373.069
373.068
373.067
373.065
373.064
373.062
373.061
373.059
373.058
373.056
373.055
373.054
373.052
373.051
373.049
373.048
373.047
373.046
373.045
373.043
373.042
373.041
373.04
373.039
373.038
373.037
373.037
373.036
373.035
373.034
373.033
373.032
373.032
373.031
373.03
373.029
373.029
373.028
373.027
373.026
373.026
373.025
373.024
373.024
373.023
373.023
373.022
373.022
373.021
373.021
373.02
373.02
373.02
373.019
373.019
373.018
373.018
373.018
373.017
373.017
373.016
373.016
373.015
373.015
373.014
372.649
372.687
372.727
372.765
372.798
372.829
372.858
372.884
372.908
372.929
372.948
372.965
372.98
372.993
373.005
373.015
373.024
373.031
373.038
373.043
373.047
373.051
373.054
373.056
373.058
373.06
373.061
373.061
373.062
373.062
373.061
373.061
373.06
373.06
373.059
373.058
373.057
373.055
373.054
373.053
373.052
373.05
373.049
373.048
373.046
373.045
373.044
373.043
373.041
373.04
373.039
373.038
373.037
373.036
373.035
373.034
373.033
373.032
373.031
373.03
373.03
373.029
373.028
373.027
373.027
373.026
373.025
373.025
373.024
373.023
373.022
373.022
373.021
373.021
373.02
373.019
373.019
373.018
373.018
373.017
373.017
373.016
373.016
373.015
373.015
373.014
373.014
373.014
373.013
373.013
373.013
373.012
373.012
373.012
373.011
373.011
373.011
373.01
373.01
373.009
372.687
372.719
372.754
372.786
372.816
372.843
372.868
372.891
372.912
372.931
372.948
372.963
372.976
372.988
372.999
373.008
373.015
373.022
373.028
373.033
373.037
373.04
373.043
373.046
373.047
373.049
373.05
373.05
373.051
373.051
373.051
373.05
373.05
373.049
373.048
373.048
373.047
373.046
373.045
373.043
373.042
373.041
373.04
373.039
373.038
373.037
373.036
373.035
373.034
373.033
373.032
373.031
373.03
373.029
373.028
373.027
373.026
373.026
373.025
373.024
373.023
373.023
373.022
373.021
373.021
373.02
373.019
373.019
373.018
373.018
373.017
373.016
373.016
373.015
373.015
373.014
373.014
373.013
373.013
373.012
373.012
373.011
373.011
373.011
373.01
373.01
373.01
373.009
373.009
373.009
373.008
373.008
373.008
373.007
373.007
373.007
373.006
373.006
373.006
373.005
372.727
372.753
372.783
372.811
372.836
372.859
372.881
372.901
372.919
372.935
372.95
372.963
372.975
372.985
372.994
373.002
373.009
373.015
373.021
373.025
373.029
373.032
373.034
373.036
373.038
373.039
373.04
373.041
373.041
373.041
373.041
373.041
373.041
373.04
373.039
373.039
373.038
373.037
373.036
373.035
373.034
373.033
373.032
373.031
373.03
373.029
373.029
373.028
373.027
373.026
373.025
373.024
373.023
373.023
373.022
373.021
373.02
373.02
373.019
373.019
373.018
373.017
373.017
373.016
373.016
373.015
373.015
373.014
373.013
373.013
373.012
373.012
373.011
373.011
373.01
373.01
373.01
373.009
373.009
373.008
373.008
373.007
373.007
373.007
373.006
373.006
373.006
373.006
373.005
373.005
373.005
373.005
373.004
373.004
373.004
373.003
373.003
373.003
373.002
373.002
372.767
372.789
372.814
372.837
372.858
372.877
372.896
372.912
372.928
372.942
372.954
372.965
372.976
372.984
372.992
372.999
373.005
373.01
373.015
373.019
373.022
373.025
373.027
373.029
373.03
373.031
373.032
373.032
373.033
373.033
373.033
373.033
373.032
373.032
373.032
373.031
373.03
373.03
373.029
373.028
373.027
373.026
373.026
373.025
373.024
373.023
373.022
373.021
373.021
373.02
373.019
373.018
373.018
373.017
373.016
373.016
373.015
373.015
373.014
373.013
373.013
373.012
373.012
373.011
373.011
373.01
373.01
373.01
373.009
373.009
373.008
373.008
373.007
373.007
373.006
373.006
373.006
373.005
373.005
373.005
373.004
373.004
373.004
373.003
373.003
373.003
373.002
373.002
373.002
373.002
373.001
373.001
373.001
373.001
373
373
373
373
372.999
372.999
372.81
372.827
372.847
372.865
372.882
372.898
372.913
372.926
372.939
372.95
372.961
372.97
372.978
372.985
372.992
372.998
373.003
373.007
373.01
373.014
373.016
373.018
373.02
373.022
373.023
373.024
373.024
373.025
373.025
373.025
373.025
373.025
373.025
373.024
373.024
373.023
373.023
373.022
373.021
373.021
373.02
373.019
373.018
373.018
373.017
373.016
373.016
373.015
373.014
373.014
373.013
373.012
373.012
373.011
373.011
373.01
373.01
373.009
373.009
373.008
373.008
373.007
373.007
373.006
373.006
373.006
373.005
373.005
373.005
373.004
373.004
373.003
373.003
373.003
373.002
373.002
373.002
373.001
373.001
373.001
373
373
373
373
372.999
372.999
372.999
372.999
372.998
372.998
372.998
372.998
372.998
372.997
372.997
372.997
372.997
372.997
372.996
372.996
372.851
372.865
372.88
372.894
372.907
372.919
372.93
372.941
372.951
372.96
372.968
372.975
372.981
372.987
372.992
372.996
373
373.003
373.006
373.009
373.011
373.012
373.014
373.015
373.015
373.016
373.016
373.017
373.017
373.017
373.017
373.016
373.016
373.016
373.015
373.015
373.014
373.014
373.013
373.013
373.012
373.011
373.011
373.01
373.01
373.009
373.008
373.008
373.007
373.007
373.006
373.006
373.005
373.005
373.004
373.004
373.003
373.003
373.003
373.002
373.002
373.002
373.001
373.001
373.001
373
373
373
372.999
372.999
372.999
372.999
372.998
372.998
372.998
372.998
372.997
372.997
372.997
372.997
372.996
372.996
372.996
372.996
372.996
372.995
372.995
372.995
372.995
372.995
372.995
372.994
372.994
372.994
372.994
372.994
372.994
372.994
372.993
372.993
372.894
372.904
372.914
372.924
372.933
372.942
372.95
372.957
372.964
372.97
372.976
372.981
372.985
372.989
372.992
372.995
372.998
373
373.001
373.003
373.004
373.005
373.006
373.006
373.007
373.007
373.007
373.007
373.007
373.007
373.007
373.007
373.006
373.006
373.006
373.005
373.005
373.005
373.004
373.004
373.003
373.003
373.002
373.002
373.001
373.001
373.001
373
373
372.999
372.999
372.999
372.998
372.998
372.998
372.998
372.997
372.997
372.997
372.997
372.996
372.996
372.996
372.996
372.996
372.996
372.995
372.995
372.995
372.995
372.995
372.995
372.994
372.994
372.994
372.994
372.994
372.994
372.994
372.993
372.993
372.993
372.993
372.993
372.993
372.993
372.993
372.993
372.992
372.992
372.992
372.992
372.992
372.992
372.992
372.992
372.992
372.992
372.992
372.991
372.937
372.942
372.948
372.954
372.959
372.964
372.968
372.972
372.975
372.978
372.981
372.983
372.985
372.987
372.989
372.99
372.991
372.992
372.993
372.994
372.994
372.995
372.995
372.995
372.996
372.996
372.996
372.996
372.996
372.996
372.996
372.996
372.996
372.996
372.996
372.996
372.996
372.996
372.996
372.996
372.996
372.995
372.995
372.995
372.995
372.995
372.995
372.995
372.995
372.995
372.995
372.994
372.994
372.994
372.994
372.994
372.994
372.994
372.994
372.994
372.994
372.994
372.994
372.993
372.993
372.993
372.993
372.993
372.993
372.993
372.993
372.993
372.993
372.993
372.993
372.993
372.993
372.993
372.993
372.993
372.992
372.992
372.992
372.992
372.992
372.992
372.992
372.992
372.992
372.992
372.992
372.992
372.992
372.992
372.992
372.992
372.992
372.992
372.992
372.991
372.971
372.973
372.974
372.975
372.976
372.977
372.977
372.978
372.978
372.979
372.98
372.98
372.981
372.981
372.982
372.983
372.983
372.984
372.984
372.985
372.986
372.986
372.987
372.987
372.988
372.988
372.989
372.989
372.99
372.99
372.99
372.991
372.991
372.991
372.991
372.992
372.992
372.992
372.992
372.992
372.992
372.993
372.993
372.993
372.993
372.993
372.993
372.993
372.993
372.993
372.993
372.993
372.993
372.993
372.993
372.993
372.993
372.993
372.993
372.993
372.993
372.993
372.993
372.993
372.993
372.993
372.993
372.993
372.993
372.993
372.993
372.993
372.993
372.993
372.993
372.993
372.993
372.993
372.993
372.993
372.993
372.993
372.993
372.993
372.993
372.993
372.993
372.993
372.993
372.993
372.993
372.993
372.993
372.993
372.993
372.993
372.993
372.992
372.992
372.992
371.635
371.659
371.713
371.797
371.878
372.015
372.095
372.246
372.338
372.499
371.782
371.794
371.83
371.894
371.951
372.057
372.123
372.238
372.327
372.445
371.9
371.906
371.932
371.979
372.024
372.105
372.162
372.247
372.328
372.422
372.004
372.006
372.023
372.058
372.094
372.151
372.211
372.268
372.338
372.416
372.1
372.097
372.107
372.13
372.163
372.201
372.253
372.301
372.357
372.422
372.187
372.181
372.186
372.201
372.227
372.255
372.295
372.337
372.382
372.436
372.267
372.259
372.261
372.271
372.288
372.311
372.341
372.375
372.411
372.456
372.342
372.333
372.331
372.337
372.349
372.366
372.389
372.415
372.445
372.482
372.411
372.402
372.399
372.401
372.409
372.421
372.438
372.459
372.482
372.512
372.476
372.467
372.462
372.463
372.468
372.476
372.489
372.504
372.523
372.546
372.537
372.528
372.523
372.522
372.525
372.531
372.54
372.551
372.565
372.583
372.594
372.586
372.581
372.579
372.58
372.584
372.59
372.599
372.61
372.624
372.649
372.641
372.636
372.634
372.634
372.637
372.641
372.647
372.656
372.666
372.701
372.694
372.69
372.687
372.687
372.688
372.691
372.696
372.702
372.709
372.751
372.745
372.741
372.739
372.738
372.738
372.74
372.744
372.748
372.754
372.8
372.795
372.792
372.789
372.788
372.788
372.789
372.792
372.795
372.799
372.846
372.843
372.84
372.838
372.837
372.837
372.837
372.838
372.841
372.843
372.893
372.891
372.889
372.887
372.886
372.885
372.885
372.886
372.887
372.889
372.937
372.935
372.934
372.933
372.933
372.932
372.932
372.932
372.933
372.934
372.978
372.977
372.976
372.975
372.974
372.974
372.972
372.972
372.971
372.971
373.302
373.286
373.222
373.124
372.986
372.798
372.531
372.153
371.644
370.973
372.972
372.924
372.836
372.708
372.526
372.279
371.947
371.484
370.859
370.164
372.659
372.576
372.462
372.303
372.082
371.784
371.382
370.835
370.125
369.42
372.375
372.257
372.114
371.926
371.666
371.321
370.865
370.244
369.433
368.811
372.123
371.975
371.806
371.589
371.297
370.911
370.403
369.719
368.843
368.259
371.908
371.735
371.544
371.301
370.982
370.566
370.025
369.294
368.342
367.818
371.731
371.543
371.335
371.075
370.739
370.299
369.734
368.977
367.991
367.48
371.598
371.4
371.182
370.912
370.566
370.119
369.547
368.787
367.771
367.525
371.507
371.308
371.088
370.816
370.473
370.029
369.461
368.73
367.764
367.731
371.463
371.269
371.053
370.788
370.456
370.033
369.488
368.81
367.923
368.145
375.288
375.46
375.637
375.823
376.036
376.261
376.508
376.747
376.983
377.009
375.256
375.425
375.597
375.777
375.982
376.197
376.434
376.66
376.887
376.907
375.176
375.334
375.495
375.663
375.851
376.048
376.261
376.454
376.661
376.677
375.053
375.197
375.342
375.489
375.656
375.821
376.003
376.151
376.301
376.272
374.893
375.014
375.142
375.261
375.399
375.53
375.666
375.761
375.837
375.75
374.696
374.794
374.895
374.988
375.084
375.174
375.26
375.29
375.281
375.118
374.463
374.541
374.609
374.669
374.73
374.763
374.788
374.751
374.651
374.39
374.208
374.254
374.296
374.312
374.328
374.314
374.265
374.156
373.95
373.588
373.931
373.949
373.954
373.935
373.895
373.828
373.708
373.507
373.209
372.733
373.645
373.635
373.599
373.537
373.446
373.315
373.125
372.84
372.425
371.854
373
373
373
373
373
373
373
373
373.001
373.001
373.001
373.001
373.001
373.001
373.002
373.002
373.002
373.002
373.003
373.003
373.003
373.004
373.004
373.004
373.005
373.005
373.006
373.006
373.007
373.008
373.009
373.009
373.011
373.011
373.013
373.013
373.015
373.016
373.017
373.018
373.021
373.022
373.024
373.025
373.028
373.03
373.033
373.035
373.039
373.041
373.045
373.047
373.052
373.055
373.061
373.064
373.071
373.075
373.082
373.087
373.095
373.1
373.111
373.116
373.128
373.135
373.148
373.157
373.172
373.182
373.198
373.211
373.229
373.244
373.265
373.282
373.307
373.327
373.355
373.379
373.412
373.44
373.477
373.511
373.555
373.595
373.647
373.695
373.756
373.816
373.89
373.963
374.054
374.146
374.261
374.379
374.529
374.685
374.882
375.115
373
373
373
373
373
373
373
373
373.001
373.001
373.001
373.001
373.001
373.001
373.002
373.002
373.002
373.002
373.003
373.003
373.003
373.004
373.004