/*--------------------------------*- C++ -*----------------------------------*\
  =========                 |
  \\      /  F ield         | OpenFOAM: The Open Source CFD Toolbox
   \\    /   O peration     | Website:  https://openfoam.org
    \\  /    A nd           | Version:  8
     \\/     M anipulation  |
\*---------------------------------------------------------------------------*/
FoamFile
{
    version     2.0;
    format      ascii;
    class       volVectorField;
    location    "0.999962";
    object      U;
}
// * * * * * * * * * * * * * * * * * * * * * * * * * * * * * * * * * * * * * //

dimensions      [0 1 -1 0 0 0 0];

internalField   nonuniform List<vector> 
6800
(
(26.4679 4.35266 -4.70607e-15)
(70.5104 -19.4157 0)
(95.902 -19.7215 1.17006e-15)
(111.052 -18.3243 -1.9812e-15)
(120.494 -16.7141 -4.33465e-19)
(126.531 -15.0257 4.64297e-19)
(130.399 -13.4554 -1.55983e-15)
(132.869 -12.0691 1.49124e-15)
(134.474 -10.8213 0)
(135.499 -9.72814 -6.90228e-16)
(47.3255 -3.01246 6.09329e-15)
(87.8342 -26.3378 -6.6362e-16)
(110.363 -21.9824 0)
(122.513 -19.1425 0)
(129.531 -16.6779 0)
(133.708 -14.4365 8.01882e-16)
(136.145 -12.5605 -7.68953e-16)
(137.521 -11.0434 1.47882e-15)
(138.281 -9.81354 7.16446e-16)
(138.629 -8.93179 -6.93534e-16)
(68.0461 -8.06955 -2.16053e-15)
(104.403 -32.129 -1.15819e-15)
(123.358 -23.0945 0)
(132.39 -19.3372 -1.75466e-15)
(137.1 -16.1731 -8.25439e-16)
(139.572 -13.5107 -8.65678e-19)
(140.751 -11.4226 1.52898e-15)
(141.205 -9.80489 -1.48331e-15)
(141.276 -8.53419 1.44713e-15)
(141.095 -7.60182 -1.40923e-15)
(89.3035 -10.4499 1.70174e-15)
(120.485 -36.1375 5.9233e-18)
(135.253 -22.7224 0)
(141.138 -18.7237 8.5204e-16)
(143.671 -15.026 5.57869e-19)
(144.603 -12.1157 7.88432e-16)
(144.696 -9.91357 0)
(144.385 -8.23424 1.50284e-15)
(143.899 -6.92928 9.22372e-19)
(143.299 -5.94731 0)
(110.011 -9.70167 6.98033e-16)
(135.817 -37.8722 4.81895e-16)
(146.099 -20.6503 4.39044e-16)
(148.995 -17.1413 8.34687e-16)
(149.53 -13.0628 -4.04929e-16)
(149.097 -10.106 3.97963e-16)
(148.254 -7.89145 -7.77476e-16)
(147.289 -6.21414 1.14667e-15)
(146.324 -4.92233 -1.50223e-15)
(145.355 -3.93603 -1.84763e-15)
(129.301 -5.86235 -1.22127e-15)
(150.068 -37.0923 4.43523e-16)
(155.833 -16.7995 -4.27068e-16)
(156.052 -14.4504 4.11181e-16)
(154.792 -10.1311 -1.22033e-15)
(153.165 -7.35722 8.01166e-16)
(151.504 -5.24619 0)
(149.961 -3.65685 -7.81683e-16)
(148.564 -2.45041 3.85733e-16)
(147.249 -1.51657 3.81298e-16)
(146.455 0.794182 0)
(162.893 -33.7401 4.24563e-16)
(164.3 -11.229 4.18374e-16)
(162.248 -10.5756 7.10835e-19)
(159.42 -6.16089 -4.08378e-16)
(156.772 -3.81085 4.07477e-16)
(154.393 -1.91787 4.0436e-16)
(152.333 -0.516856 4.02225e-16)
(150.545 0.511852 -1.59516e-15)
(148.904 1.33623 1.18445e-15)
(160.925 9.80939 2.46481e-16)
(173.936 -27.9044 -4.11417e-16)
(171.295 -4.1296 -4.13536e-16)
(167.435 -5.52183 -6.20429e-16)
(163.28 -1.16686 1.24354e-15)
(159.781 0.528452 -4.14384e-16)
(156.79 2.08869 -4.15995e-16)
(154.282 3.1904 4.15525e-16)
(152.15 3.94326 -8.27581e-16)
(150.211 4.60953 -6.20008e-16)
(172.322 20.6336 -1.14893e-16)
(182.859 -19.8138 9.97783e-17)
(176.614 4.20537 0)
(171.418 0.633861 2.07457e-16)
(166.194 4.72254 0)
(162.026 5.57766 -3.19797e-16)
(158.535 6.69998 3.21535e-16)
(155.659 7.39486 0)
(153.252 7.78187 -1.08007e-16)
(151.056 8.25434 3.24511e-16)
(180.422 32.6531 0)
(189.363 -9.80598 -9.87295e-17)
(180.079 13.3942 -5.16136e-17)
(174.021 7.73445 5.22967e-17)
(167.981 11.3074 1.91659e-31)
(163.332 11.2057 -1.10281e-16)
(159.475 11.7896 1.10969e-16)
(156.332 11.9827 1.1284e-16)
(153.736 11.9337 1.13896e-16)
(151.334 12.1809 -3.43106e-16)
(-9.33903 5.16748 0)
(-14.735 3.38595 -3.23387e-16)
(-19.707 2.21417 0)
(-22.679 1.3634 0)
(-24.1533 0.625316 0)
(-24.3133 -0.105805 1.48511e-16)
(-23.2505 -0.852787 -1.46803e-16)
(-21.0718 -1.59084 -1.44951e-16)
(-18.0576 -2.19967 2.89805e-16)
(-14.3949 -2.55889 8.36048e-20)
(-7.62449 12.4955 6.87167e-16)
(-14.2218 8.78968 3.75835e-16)
(-17.4164 5.80397 0)
(-19.258 3.59111 4.23767e-16)
(-19.6292 1.54044 0)
(-18.5343 -0.582249 -2.03915e-16)
(-16.0278 -2.78752 2.02748e-16)
(-12.4962 -4.89118 0)
(-8.33407 -6.57397 -2.02107e-16)
(-3.6332 -7.50547 6.82575e-16)
(-7.39061 19.5034 -8.51904e-16)
(-11.3369 13.6269 -1.26599e-15)
(-13.1723 8.9639 1.01641e-15)
(-13.0598 5.36847 -1.41529e-15)
(-11.0888 1.90771 -9.69398e-16)
(-7.09112 -1.67262 1.01025e-15)
(-1.81254 -5.19871 6.98497e-19)
(4.05833 -8.31779 -1.92804e-15)
(9.63706 -10.483 3.42272e-15)
(15.5737 -11.4653 -1.24292e-15)
(-8.43509 22.6385 0)
(-9.23742 16.524 1.20635e-15)
(-8.12108 10.7923 -1.11735e-15)
(-4.64396 5.84374 2.34978e-15)
(2.00379 0.633365 -1.1936e-15)
(10.2227 -4.1932 1.03711e-15)
(18.1023 -8.07237 8.80879e-16)
(25.3776 -10.9853 7.71608e-16)
(31.9314 -13.033 1.07115e-18)
(38.8268 -13.716 -6.73061e-16)
(-9.40504 24.0777 5.60706e-19)
(-7.27362 17.2918 -1.25999e-15)
(-1.71215 10.3071 1.27522e-15)
(7.71788 3.72376 -1.21947e-15)
(19.5045 -2.45468 1.0138e-15)
(30.3291 -7.19772 -1.66781e-15)
(39.9517 -10.6176 0)
(48.4092 -12.9362 -1.28873e-15)
(55.7083 -14.4411 5.91034e-16)
(63.1811 -14.6361 2.83109e-15)
(-9.99828 23.6797 1.44175e-15)
(-4.38775 15.4196 3.99339e-15)
(7.77342 7.00921 -1.33985e-15)
(24.1685 -0.757642 -2.11032e-15)
(38.7759 -6.42692 4.11713e-15)
(51.27 -10.2892 -2.08276e-15)
(61.8534 -12.8056 0)
(70.8028 -14.3115 -5.60606e-16)
(78.1791 -15.0561 -4.02104e-19)
(85.2924 -14.6568 -4.8494e-16)
(-10.2837 21.5609 2.89504e-15)
(0.747613 11.3267 -3.24244e-19)
(22.8068 0.848513 0)
(42.4703 -6.00876 1.71065e-15)
(58.5914 -10.309 2.78947e-15)
(71.6885 -12.8973 -1.2104e-15)
(82.1878 -14.2979 0)
(90.5379 -14.8863 -1.96826e-15)
(97.0465 -14.9445 3.60845e-15)
(102.924 -14.1207 0)
(-9.38131 17.736 -3.06844e-15)
(13.0815 3.40985 -6.22679e-15)
(40.625 -5.95356 1.91847e-15)
(61.7763 -10.8845 4.37494e-19)
(77.9671 -13.4185 -2.43703e-15)
(90.2079 -14.5818 0)
(99.3767 -14.9235 -9.53382e-16)
(106.257 -14.74 0)
(111.383 -14.2599 -1.62162e-15)
(115.779 -13.1912 1.52927e-15)
(-5.3652 13.5018 1.85336e-15)
(31.0986 -4.87306 0)
(60.1329 -12.0057 0)
(80.6592 -14.6289 0)
(95.1989 -15.42 0)
(105.468 -15.3347 9.4535e-16)
(112.77 -14.7978 2.58901e-15)
(117.993 -14.0383 -1.60374e-15)
(121.71 -13.2045 -2.26746e-15)
(124.731 -12.0379 2.16371e-15)
(3.69025 11.0622 -5.20203e-15)
(51.1079 -12.2286 0)
(79.1473 -16.5115 -1.34788e-15)
(97.2655 -16.9476 2.19744e-15)
(109.288 -16.3656 3.828e-19)
(117.37 -15.3622 -1.73636e-15)
(122.854 -14.2214 1.61557e-15)
(126.572 -13.0874 -1.52596e-15)
(129.075 -12.0088 0)
(130.892 -10.8138 -7.02232e-16)
(-9.9414 -2.55032 -1.40456e-16)
(-4.73026 -2.33097 0)
(0.0499366 -2.0858 0)
(4.298 -1.83206 0)
(8.0133 -1.62003 0)
(11.3894 -1.46025 0)
(14.4719 -1.3358 -4.63509e-18)
(17.3171 -1.23491 1.4547e-16)
(19.9664 -1.15057 -1.3826e-16)
(22.4492 -1.07844 0)
(24.7878 -1.01562 4.30757e-18)
(26.9992 -0.960054 4.23835e-18)
(29.0971 -0.910256 4.1735e-18)
(31.0925 -0.865174 4.11263e-18)
(32.9945 -0.823992 4.05544e-18)
(34.8105 -0.786067 0)
(36.5471 -0.750909 -1.22487e-16)
(38.2096 -0.718141 3.89911e-18)
(39.8028 -0.687475 1.27336e-16)
(41.331 -0.65868 3.8165e-18)
(42.7979 -0.631571 0)
(44.2071 -0.606 3.73916e-18)
(45.5617 -0.581842 -1.14813e-16)
(46.8645 -0.558985 1.21114e-16)
(48.1183 -0.537325 3.63824e-18)
(49.3255 -0.516781 -1.11849e-16)
(50.4886 -0.49729 1.14545e-16)
(51.6097 -0.478787 3.55228e-18)
(52.6909 -0.461204 3.52641e-18)
(53.7341 -0.444483 -1.08554e-16)
(54.7411 -0.428584 1.14789e-16)
(55.7138 -0.413462 3.456e-18)
(56.6537 -0.399067 3.43464e-18)
(57.5623 -0.385352 -1.05838e-16)
(58.4411 -0.372268 1.08632e-16)
(59.2913 -0.35977 -1.11404e-16)
(60.1142 -0.347821 1.07461e-16)
(60.911 -0.336387 0)
(61.6827 -0.325439 0)
(62.4303 -0.314951 1.05879e-16)
(63.1548 -0.304901 -1.05402e-16)
(63.8572 -0.29527 -1.08214e-16)
(64.5384 -0.286039 1.04497e-16)
(65.1991 -0.277191 -1.04067e-16)
(65.8403 -0.268709 1.00423e-16)
(66.4626 -0.260577 0)
(67.0669 -0.252781 -3.21531e-18)
(67.6539 -0.245308 0)
(68.2242 -0.238147 -3.19299e-18)
(68.7786 -0.231283 0)
(69.3176 -0.224704 0)
(69.8419 -0.218396 0)
(70.3521 -0.212348 -3.15278e-18)
(70.8487 -0.206548 0)
(71.3324 -0.200984 4.70177e-17)
(71.8035 -0.195645 -5.00146e-17)
(72.2627 -0.190521 0)
(72.7103 -0.185602 -3.10921e-18)
(73.1469 -0.180879 0)
(73.5728 -0.176345 -3.09343e-18)
(73.9886 -0.17199 0)
(74.3946 -0.167806 0)
(74.7911 -0.163786 0)
(75.1786 -0.15992 -4.90266e-17)
(75.5574 -0.156203 4.89178e-17)
(75.9278 -0.152627 -3.05063e-18)
(76.2902 -0.149185 0)
(76.6449 -0.145872 0)
(76.9921 -0.142681 -3.03152e-18)
(77.3321 -0.139607 -4.84074e-17)
(77.6652 -0.136644 4.52948e-17)
(77.9916 -0.133787 4.82223e-17)
(78.3116 -0.131031 -5.11429e-17)
(78.6255 -0.128372 0)
(78.9333 -0.125806 0)
(79.2354 -0.123329 0)
(79.532 -0.120937 -2.9878e-18)
(79.8231 -0.118627 2.38641e-17)
(80.1091 -0.116396 -2.38273e-17)
(80.3902 -0.114243 2.37909e-17)
(80.6663 -0.112163 -2.07867e-17)
(80.9379 -0.110155 0)
(81.2049 -0.108216 -2.36885e-17)
(81.4676 -0.106343 4.73122e-17)
(81.726 -0.104533 -2.06715e-17)
(81.9804 -0.102784 0)
(82.2309 -0.101091 0)
(82.4775 -0.0994536 0)
(82.7204 -0.0978635 0)
(82.9598 -0.0963178 2.93433e-18)
(83.1956 -0.0948048 0)
(83.4279 -0.0933179 -1.17091e-17)
(83.6569 -0.0918358 1.09966e-22)
(83.8824 -0.0903438 8.76143e-18)
(84.1043 -0.0888011 0)
(84.3226 -0.08717 -5.82778e-18)
(84.5369 -0.0853813 2.91108e-18)
(84.7463 -0.0833584 5.81573e-18)
(84.9504 -0.0810318 0)
(85.1985 -0.0763658 0)
(0.766997 -7.15871 6.46205e-18)
(4.89605 -6.36963 -1.34497e-17)
(8.70163 -5.70189 -8.40456e-16)
(12.1753 -5.0886 8.0056e-16)
(15.3551 -4.56234 0)
(18.2977 -4.14389 0)
(21.0286 -3.80861 1.7319e-17)
(23.5757 -3.5321 0)
(25.9646 -3.29855 -5.51313e-18)
(28.2157 -3.09746 1.0794e-17)
(30.3451 -2.92156 -5.28982e-18)
(32.3657 -2.76539 -5.18985e-18)
(34.2877 -2.62499 -5.09672e-18)
(36.1199 -2.49751 -5.00982e-18)
(37.8692 -2.38071 4.92837e-18)
(39.5418 -2.27288 0)
(41.1428 -2.17271 6.07317e-16)
(42.6769 -2.07921 -5.98867e-16)
(44.148 -1.99158 -4.65352e-18)
(45.5599 -1.9092 -4.5953e-18)
(46.9159 -1.83156 0)
(48.2191 -1.75824 4.48914e-18)
(49.4723 -1.6889 -5.72868e-16)
(50.6781 -1.62325 1.12079e-15)
(51.8388 -1.56105 -5.61441e-16)
(52.9568 -1.50208 -1.29347e-17)
(54.0343 -1.44612 0)
(55.0731 -1.39298 -4.23669e-18)
(56.0753 -1.34251 -4.20208e-18)
(57.0425 -1.29453 5.37815e-16)
(57.9764 -1.24889 -5.33803e-16)
(58.8785 -1.20542 -2.67021e-16)
(59.7503 -1.16397 5.26277e-16)
(60.5931 -1.12443 -4.06464e-18)
(61.4081 -1.08666 -2.5771e-16)
(62.1967 -1.05053 4.00192e-18)
(62.9597 -1.01595 0)
(63.6984 -0.98283 0)
(64.4138 -0.951091 2.51789e-16)
(65.1067 -0.920671 -2.50487e-16)
(65.7781 -0.891517 -2.49221e-16)
(66.4289 -0.863573 4.99924e-16)
(67.06 -0.836781 -1.07348e-20)
(67.6721 -0.811086 -2.45777e-16)
(68.266 -0.786439 3.82369e-18)
(68.8425 -0.762797 0)
(69.4022 -0.740118 2.46522e-16)
(69.9458 -0.718361 -2.49363e-16)
(70.474 -0.697498 -2.37138e-16)
(70.9874 -0.677497 2.4005e-16)
(71.4866 -0.658321 0)
(71.9722 -0.639937 -2.38414e-16)
(72.4448 -0.622307 2.41365e-16)
(72.9049 -0.605396 -2.36901e-16)
(73.3529 -0.589171 2.39882e-16)
(73.7895 -0.573599 0)
(74.215 -0.558651 -2.34821e-16)
(74.6298 -0.5443 4.72009e-16)
(75.0345 -0.53052 -2.33549e-16)
(75.4294 -0.517287 3.63962e-18)
(75.8149 -0.504575 0)
(76.1913 -0.49236 0)
(76.559 -0.48062 0)
(76.9184 -0.469334 0)
(77.2698 -0.458481 0)
(77.6135 -0.448041 3.58795e-18)
(77.9498 -0.437995 0)
(78.2789 -0.428325 1.14324e-16)
(78.6012 -0.419014 -1.10527e-16)
(78.9169 -0.410047 -1.13863e-16)
(79.2262 -0.401408 3.55333e-18)
(79.5294 -0.393081 1.13431e-16)
(79.8268 -0.385051 1.16761e-16)
(80.1185 -0.377305 -1.73973e-21)
(80.4047 -0.36983 -1.1283e-16)
(80.6857 -0.362614 0)
(80.9615 -0.355647 1.15971e-16)
(81.2325 -0.348919 -1.50614e-21)
(81.4988 -0.342422 -1.05103e-16)
(81.7605 -0.336148 -1.18938e-16)
(82.0178 -0.330088 1.08288e-16)
(82.2708 -0.324236 -6.27873e-17)
(82.5198 -0.318581 4.87681e-17)
(82.7647 -0.313119 -6.26169e-17)
(83.0059 -0.307839 -3.47358e-18)
(83.2434 -0.302736 4.85766e-17)
(83.4772 -0.297796 6.93082e-18)
(83.7076 -0.293014 4.84556e-17)
(83.9346 -0.288371 -5.53127e-17)
(84.1584 -0.283857 -5.86991e-17)
(84.3789 -0.279439 5.51842e-17)
(84.5963 -0.275099 2.06698e-17)
(84.8106 -0.270773 -2.6204e-22)
(85.0217 -0.266419 -3.09368e-17)
(85.2296 -0.261921 6.86798e-18)
(85.4343 -0.257164 -6.86036e-18)
(85.6351 -0.251951 1.3708e-17)
(85.8314 -0.245954 -2.39648e-17)
(86.0243 -0.238823 6.83909e-18)
(86.2563 -0.228044 -7.34524e-18)
(18.7547 -10.5697 -1.43986e-15)
(21.0601 -9.39652 3.38389e-17)
(23.5298 -8.49571 3.32831e-17)
(25.9934 -7.71518 1.39826e-15)
(28.3652 -7.02452 -1.35366e-15)
(30.6323 -6.44232 -1.33274e-15)
(32.7946 -5.95991 1.34187e-15)
(34.8543 -5.55438 2.04799e-17)
(36.8162 -5.20577 1.311e-15)
(38.6861 -4.90128 -1.26115e-15)
(40.4698 -4.63195 1.95709e-17)
(42.173 -4.39068 1.92923e-17)
(43.8007 -4.17226 1.23685e-15)
(45.3577 -3.9728 -1.20148e-15)
(46.848 -3.78917 1.19552e-15)
(48.2756 -3.61901 8.64415e-20)
(49.6438 -3.46052 -1.13983e-15)
(50.9561 -3.3123 -8.94542e-18)
(52.2155 -3.17326 0)
(53.425 -3.04246 0)
(54.5871 -2.91911 0)
(55.7044 -2.8026 8.59294e-18)
(56.7791 -2.69239 -5.45065e-16)
(57.8135 -2.58802 5.57309e-16)
(58.8096 -2.48907 -1.67495e-17)
(59.7692 -2.39522 8.30891e-18)
(60.6942 -2.30616 5.44216e-16)
(61.5862 -2.22155 -5.23889e-16)
(62.4467 -2.14107 -5.03918e-16)
(63.2771 -2.0645 -8.05102e-18)
(64.0788 -1.99162 5.13239e-16)
(64.8531 -1.92221 5.09955e-16)
(65.601 -1.85601 -1.02161e-15)
(66.3238 -1.79284 5.03876e-16)
(67.0225 -1.73245 5.16663e-16)
(67.698 -1.67466 -1.01217e-15)
(68.3514 -1.61934 4.95723e-16)
(68.9835 -1.56634 -5.08643e-16)
(69.5953 -1.51557 5.06238e-16)
(70.1876 -1.46691 -1.527e-17)
(70.7612 -1.42025 0)
(71.317 -1.37553 0)
(71.8556 -1.33267 0)
(72.3778 -1.29161 0)
(72.8843 -1.25226 0)
(73.3758 -1.21456 0)
(73.853 -1.17843 -1.48569e-17)
(74.3164 -1.14381 2.22111e-17)
(74.7667 -1.11065 4.5755e-16)
(75.2044 -1.07888 -4.70868e-16)
(75.6301 -1.04844 -4.69447e-16)
(76.0442 -1.01926 4.6811e-16)
(76.4473 -0.991293 -4.66788e-16)
(76.8398 -0.964471 4.65542e-16)
(77.2222 -0.93874 0)
(77.5947 -0.91405 0)
(77.9579 -0.890349 0)
(78.3121 -0.867594 0)
(78.6576 -0.845747 -1.43689e-17)
(78.9949 -0.824768 0)
(79.3242 -0.804616 2.28869e-16)
(79.6459 -0.785258 -2.2838e-16)
(79.9602 -0.766655 0)
(80.2675 -0.748774 0)
(80.568 -0.731581 0)
(80.862 -0.715048 0)
(81.1499 -0.699146 0)
(81.4317 -0.683843 2.11581e-16)
(81.7078 -0.669112 -4.17005e-21)
(81.9783 -0.654924 -4.63836e-16)
(82.2435 -0.641257 2.38541e-16)
(82.5036 -0.628084 0)
(82.7588 -0.615384 -1.39859e-17)
(83.0093 -0.603136 0)
(83.2551 -0.59132 2.23083e-16)
(83.4966 -0.57992 -2.22756e-16)
(83.7338 -0.568917 -1.39021e-17)
(83.9669 -0.558297 -9.71771e-17)
(84.1961 -0.548045 9.0114e-17)
(84.4215 -0.538148 2.07676e-17)
(84.6433 -0.528591 -1.24443e-16)
(84.8615 -0.519363 1.17382e-16)
(85.0763 -0.510448 2.06887e-17)
(85.2879 -0.501839 6.88786e-18)
(85.4962 -0.493518 0)
(85.7016 -0.485477 -6.87169e-18)
(85.9039 -0.477694 6.86391e-18)
(86.1035 -0.470162 1.16555e-16)
(86.3002 -0.462849 -1.23278e-16)
(86.4943 -0.455741 -5.47298e-17)
(86.6857 -0.448785 4.10054e-17)
(86.8746 -0.441951 -4.77878e-17)
(87.061 -0.435142 6.8202e-17)
(87.2448 -0.428292 -6.81296e-18)
(87.426 -0.421214 6.80678e-18)
(87.6045 -0.413727 -2.0399e-17)
(87.7799 -0.405516 1.35881e-17)
(87.9517 -0.39596 1.3575e-17)
(88.121 -0.384507 -6.78012e-18)
(88.3245 -0.370618 1.45318e-17)
(40.9087 -12.4035 -1.24029e-15)
(41.6819 -11.146 -2.17603e-17)
(42.764 -10.2589 1.2635e-15)
(44.1459 -9.49479 0)
(45.6213 -8.78368 -5.50205e-21)
(47.1068 -8.15045 1.23122e-15)
(48.5836 -7.60366 -1.87348e-17)
(50.0407 -7.13078 -1.23979e-15)
(51.4646 -6.7161 1.18703e-15)
(52.8466 -6.34768 -1.2089e-15)
(54.1823 -6.01688 -1.83692e-17)
(55.47 -5.71668 1.14311e-15)
(56.71 -5.44201 -2.31243e-15)
(57.9026 -5.18879 1.1339e-15)
(59.0485 -4.9537 -1.75227e-17)
(60.1495 -4.73448 -1.09224e-15)
(61.2074 -4.52934 1.08112e-15)
(62.2243 -4.33689 0)
(63.202 -4.15599 -1.07777e-15)
(64.1425 -3.98553 1.06831e-15)
(65.0474 -3.8246 1.05939e-15)
(65.9184 -3.67246 -1.06734e-15)
(66.7571 -3.52848 0)
(67.5649 -3.39211 -1.61758e-17)
(68.3432 -3.2628 1.60618e-17)
(69.0933 -3.1401 1.59525e-17)
(69.8164 -3.02355 -1.58486e-17)
(70.5137 -2.91277 0)
(71.1861 -2.8074 -1.56532e-17)
(71.8348 -2.70703 0)
(72.4606 -2.61136 9.90316e-16)
(73.0646 -2.52009 -9.84993e-16)
(73.6474 -2.43297 0)
(74.2101 -2.3498 -9.59685e-16)
(74.7534 -2.27027 9.55132e-16)
(75.2781 -2.19417 1.5091e-17)
(75.785 -2.12131 0)
(76.275 -2.05157 1.49618e-17)
(76.7488 -1.98477 -1.28692e-22)
(77.2072 -1.92082 1.48444e-17)
(77.6509 -1.85962 4.73269e-16)
(78.0805 -1.80101 -2.06542e-20)
(78.4968 -1.74487 -4.7006e-16)
(78.9004 -1.6911 -4.53892e-16)
(79.2917 -1.6396 4.67114e-16)
(79.6715 -1.59028 0)
(80.0402 -1.54304 1.45123e-17)
(80.3983 -1.49778 -1.44723e-17)
(80.7463 -1.45447 1.44338e-17)
(81.0846 -1.413 4.46284e-16)
(81.4136 -1.37328 -1.61203e-20)
(81.7337 -1.33522 -4.72757e-16)
(82.0453 -1.29873 0)
(82.3486 -1.26373 1.42594e-17)
(82.644 -1.23015 -4.55282e-16)
(82.9319 -1.19793 4.54312e-16)
(83.2124 -1.16701 4.53343e-16)
(83.486 -1.13732 -4.52427e-16)
(83.7529 -1.10882 2.82197e-17)
(84.0134 -1.08148 0)
(84.2677 -1.05521 0)
(84.5162 -1.02999 0)
(84.759 -1.00576 -1.40035e-17)
(84.9965 -0.982479 -4.3333e-16)
(85.2288 -0.96011 4.46536e-16)
(85.4561 -0.938604 -1.39302e-17)
(85.6788 -0.917919 4.45016e-16)
(85.8968 -0.898024 -8.74698e-16)
(86.1106 -0.878884 6.51509e-16)
(86.3201 -0.860463 -3.89688e-21)
(86.5256 -0.842724 -2.34926e-16)
(86.7273 -0.825636 2.06976e-16)
(86.9252 -0.809167 -1.92902e-16)
(87.1197 -0.79329 2.20146e-16)
(87.3106 -0.777976 -4.39692e-16)
(87.4983 -0.7632 3.12746e-21)
(87.6829 -0.748941 1.37072e-17)
(87.8643 -0.735182 1.91617e-16)
(88.0429 -0.721907 1.91822e-23)
(88.2187 -0.709101 -2.73067e-17)
(88.3918 -0.696743 1.75743e-23)
(88.5623 -0.684817 0)
(88.7303 -0.673305 1.90486e-16)
(88.896 -0.662194 -1.22322e-16)
(89.0593 -0.651462 -1.22189e-16)
(89.2205 -0.641098 1.3562e-17)
(89.3796 -0.631074 -2.70959e-17)
(89.5367 -0.621381 -1.35339e-17)
(89.6918 -0.611976 1.08163e-16)
(89.845 -0.602844 -1.08054e-16)
(89.9964 -0.593913 1.0795e-16)
(90.146 -0.585148 -1.75245e-16)
(90.2939 -0.57642 -2.69359e-17)
(90.4401 -0.567647 1.21094e-16)
(90.5845 -0.558585 -2.68878e-17)
(90.727 -0.549005 -8.05826e-17)
(90.8675 -0.538488 2.68402e-17)
(91.0054 -0.52623 -6.57627e-23)
(91.1418 -0.511562 -1.3394e-17)
(91.3063 -0.494506 -2.8622e-17)
(64.6942 -13.1312 -4.64167e-15)
(64.5922 -12.0179 2.37448e-15)
(64.677 -11.2501 1.21062e-15)
(65.1873 -10.5626 -1.17126e-15)
(65.8871 -9.89489 -1.85454e-17)
(66.6441 -9.27436 1.1992e-15)
(67.4333 -8.71768 -2.34428e-15)
(68.2467 -8.22129 1.16223e-15)
(69.0699 -7.77576 0)
(69.8895 -7.37279 0)
(70.6953 -7.00587 0)
(71.4828 -6.6693 1.74806e-17)
(72.2506 -6.35897 1.7309e-17)
(72.9955 -6.07168 1.71442e-17)
(73.7188 -5.80429 1.69852e-17)
(74.4198 -5.55421 -1.07742e-15)
(75.0989 -5.31961 1.66157e-17)
(75.7565 -5.09888 1.07565e-15)
(76.3929 -4.89067 1.64149e-17)
(77.0081 -4.69377 1.62874e-17)
(77.6028 -4.50726 1.61653e-17)
(78.1772 -4.33039 0)
(78.732 -4.16255 1.03585e-15)
(79.2677 -4.00312 -9.97185e-16)
(79.7848 -3.85154 1.57241e-17)
(80.2839 -3.70734 -4.60964e-22)
(80.7656 -3.57008 -9.7828e-16)
(81.2304 -3.43929 9.87923e-16)
(81.6789 -3.31457 1.5347e-17)
(82.1115 -3.19556 1.52618e-17)
(82.5288 -3.08189 -9.56328e-16)
(82.9309 -2.97319 1.51431e-17)
(83.3186 -2.86922 1.92362e-15)
(83.6921 -2.76981 -9.57349e-16)
(84.0522 -2.6748 -9.38174e-16)
(84.3997 -2.58402 4.29456e-20)
(84.7352 -2.49732 9.59995e-16)
(85.0594 -2.41449 0)
(85.3728 -2.33536 -1.46571e-17)
(85.6761 -2.25973 1.46046e-17)
(85.9696 -2.18744 9.3148e-16)
(86.2539 -2.11835 -9.13936e-16)
(86.5295 -2.05231 0)
(86.7968 -1.9892 -1.28897e-22)
(87.056 -1.92884 0)
(87.3075 -1.87112 1.43318e-17)
(87.5517 -1.81589 0)
(87.7888 -1.76302 -8.97959e-16)
(88.0192 -1.7124 9.09865e-16)
(88.243 -1.66394 1.41803e-17)
(88.4605 -1.61751 4.66793e-16)
(88.6718 -1.573 -4.37476e-16)
(88.8773 -1.53032 1.40794e-17)
(89.0772 -1.48937 -1.4048e-17)
(89.2716 -1.45005 1.40176e-17)
(89.4608 -1.41231 0)
(89.6451 -1.37607 1.39595e-17)
(89.8248 -1.34126 0)
(89.9999 -1.30786 -1.39048e-17)
(90.1708 -1.27581 4.57982e-16)
(90.3377 -1.24502 -8.86575e-16)
(90.5007 -1.21546 4.56319e-16)
(90.6601 -1.18707 1.38033e-17)
(90.816 -1.1598 4.40936e-16)
(90.9685 -1.1336 -4.40201e-16)
(91.1179 -1.10843 -4.11999e-16)
(91.2642 -1.08422 4.38767e-16)
(91.4076 -1.06095 -4.24379e-16)
(91.5483 -1.03857 4.51075e-16)
(91.6863 -1.01703 1.36484e-17)
(91.8217 -0.996301 -4.2248e-16)
(91.9548 -0.97634 8.84594e-16)
(92.0855 -0.957112 -4.34894e-16)
(92.214 -0.938586 0)
(92.3405 -0.920732 1.35542e-17)
(92.4649 -0.903525 0)
(92.5873 -0.886938 1.35201e-17)
(92.708 -0.870944 1.35037e-17)
(92.8269 -0.855527 1.34878e-17)
(92.9442 -0.840669 1.34722e-17)
(93.0599 -0.826345 -2.01854e-16)
(93.1741 -0.812536 2.15075e-16)
(93.2869 -0.799223 -2.01413e-16)
(93.3984 -0.786391 1.34156e-17)
(93.5087 -0.77401 1.34016e-17)
(93.6177 -0.762071 2.30067e-21)
(93.7256 -0.750539 2.27322e-16)
(93.8325 -0.739405 -9.35066e-17)
(93.9383 -0.728616 1.20107e-16)
(94.0433 -0.718158 0)
(94.1473 -0.707945 1.33192e-17)
(94.2504 -0.697939 1.33058e-17)
(94.3527 -0.687987 1.32938e-17)
(94.4543 -0.678003 0)
(94.555 -0.667704 1.32693e-17)
(94.6549 -0.656832 0)
(94.7539 -0.644893 1.32456e-17)
(94.8517 -0.630971 -2.64655e-17)
(94.9491 -0.614235 2.6439e-17)
(95.0674 -0.594815 2.8135e-17)
(86.5282 -13.1973 0)
(86.0568 -12.3601 1.70446e-17)
(85.6228 -11.752 -2.2123e-15)
(85.6225 -11.1452 4.36704e-15)
(85.8502 -10.5342 1.89433e-17)
(86.1501 -9.95089 -2.23925e-15)
(86.4876 -9.40879 2.20387e-15)
(86.8596 -8.90899 -2.19802e-15)
(87.2562 -8.44879 2.1923e-15)
(87.6635 -8.02546 7.1049e-19)
(88.0714 -7.63559 5.89412e-19)
(88.4743 -7.27427 -4.32985e-15)
(88.8674 -6.93914 -4.04594e-19)
(89.2492 -6.62688 4.26998e-15)
(89.618 -6.33464 -2.13155e-15)
(89.9731 -6.06138 -1.65606e-17)
(90.314 -5.80475 -1.84972e-21)
(90.6407 -5.56354 -1.63661e-17)
(90.9533 -5.3364 -1.44854e-21)
(91.2521 -5.12195 -1.28595e-21)
(91.5379 -4.91921 -1.14277e-21)
(91.8115 -4.7273 0)
(92.0733 -4.54541 -9.0571e-22)
(92.3238 -4.37279 -1.58021e-17)
(92.5636 -4.20879 -1.03702e-15)
(92.7933 -4.05288 9.84387e-16)
(93.0133 -3.9045 -9.94496e-16)
(93.2242 -3.76311 9.8916e-16)
(93.4264 -3.62826 9.5314e-16)
(93.6203 -3.49952 -1.97291e-15)
(93.8065 -3.37666 9.73873e-16)
(93.9856 -3.25933 -1.51428e-17)
(94.1584 -3.14719 -1.50711e-17)
(94.3252 -3.04002 9.45208e-16)
(94.4864 -2.93729 -9.56132e-16)
(94.6424 -2.83878 0)
(94.7932 -2.74441 9.48185e-16)
(94.9391 -2.65401 -9.44455e-16)
(95.0801 -2.56739 1.46996e-17)
(95.2165 -2.48442 -1.46443e-17)
(95.3484 -2.40495 1.45904e-17)
(95.4759 -2.32884 -1.45383e-17)
(95.5991 -2.25594 1.44876e-17)
(95.7181 -2.18613 -1.44385e-17)
(95.8332 -2.11926 1.43908e-17)
(95.9445 -2.05525 -9.32374e-16)
(96.0521 -1.99392 9.29513e-16)
(96.1561 -1.93514 -1.4256e-17)
(96.2568 -1.87889 1.42135e-17)
(96.3541 -1.82493 9.07046e-16)
(96.4481 -1.77323 -9.18705e-16)
(96.5389 -1.72367 1.40963e-17)
(96.6269 -1.67621 -1.40603e-17)
(96.7121 -1.63078 1.40254e-17)
(96.7948 -1.5873 -1.39918e-17)
(96.8752 -1.5457 -8.794e-16)
(96.9534 -1.50591 -1.39018e-17)
(97.0297 -1.46783 1.39204e-17)
(97.1042 -1.43138 4.43715e-16)
(97.177 -1.39647 1.12342e-20)
(97.2481 -1.36302 4.41836e-16)
(97.3178 -1.33098 -6.74496e-23)
(97.386 -1.30026 0)
(97.4529 -1.2708 -2.7449e-17)
(97.5185 -1.24252 0)
(97.5829 -1.21536 4.37517e-16)
(97.6462 -1.18927 -4.36726e-16)
(97.7084 -1.1642 -2.72463e-17)
(97.7696 -1.14009 0)
(97.8298 -1.1169 -4.20859e-16)
(97.8891 -1.09458 -1.35464e-17)
(97.9475 -1.07309 4.19488e-16)
(98.005 -1.05239 -1.35105e-17)
(98.0618 -1.03245 -4.18178e-16)
(98.1179 -1.01323 4.17562e-16)
(98.1733 -0.994708 4.43844e-16)
(98.2282 -0.976854 -4.43219e-16)
(98.2825 -0.959649 -4.15769e-16)
(98.3364 -0.943072 4.28599e-16)
(98.3899 -0.927108 0)
(98.4431 -0.91173 2.27088e-16)
(98.496 -0.896925 -2.00116e-16)
(98.5486 -0.882678 -1.99861e-16)
(98.601 -0.86897 4.39147e-16)
(98.6533 -0.855767 -2.12662e-16)
(98.7056 -0.843059 1.3275e-17)
(98.7577 -0.830808 2.25407e-16)
(98.8099 -0.819005 -1.98652e-16)
(98.862 -0.807591 -2.1165e-16)
(98.9143 -0.796558 1.98187e-16)
(98.9666 -0.785808 0)
(99.019 -0.775304 0)
(99.0716 -0.764882 0)
(99.1244 -0.754459 -1.31522e-17)
(99.1773 -0.743739 1.3139e-17)
(99.2307 -0.732462 1.31232e-17)
(99.2842 -0.720086 0)
(99.3383 -0.70568 -1.30953e-17)
(99.393 -0.688174 4.00487e-23)
(99.461 -0.667623 2.76915e-17)
(103.745 -12.897 -1.5646e-17)
(102.951 -12.3841 -1.58741e-17)
(102.111 -11.9523 0)
(101.691 -11.432 1.04404e-20)
(101.545 -10.8824 2.05068e-15)
(101.521 -10.3477 3.38675e-17)
(101.568 -9.8371 -2.07772e-15)
(101.677 -9.3517 0)
(101.838 -8.89323 -2.09989e-15)
(102.035 -8.46237 2.08303e-15)
(102.256 -8.0588 1.62691e-17)
(102.492 -7.68099 -1.62619e-17)
(102.733 -7.32689 2.06288e-15)
(102.977 -6.99514 1.6583e-17)
(103.216 -6.68359 -1.58972e-17)
(103.448 -6.39042 1.64077e-17)
(103.671 -6.11425 -1.59412e-17)
(103.883 -5.85353 -4.12175e-15)
(104.081 -5.60722 2.05636e-15)
(104.267 -5.37412 2.03585e-15)
(104.438 -5.15321 5.51318e-20)
(104.595 -4.94389 -2.04152e-15)
(104.737 -4.74551 -1.59066e-17)
(104.865 -4.55731 1.5861e-17)
(104.978 -4.37867 1.58157e-17)
(105.078 -4.20906 -2.03394e-15)
(105.164 -4.04791 3.00218e-15)
(105.236 -3.89474 -2.61846e-20)
(105.296 -3.74919 -9.68269e-16)
(105.345 -3.61088 0)
(105.383 -3.4793 9.61641e-16)
(105.411 -3.35397 -1.97821e-15)
(105.43 -3.23471 1.98606e-15)
(105.442 -3.12148 -1.97828e-15)
(105.446 -3.01398 9.62355e-16)
(105.444 -2.9118 1.52141e-17)
(105.437 -2.81458 -1.5154e-17)
(105.425 -2.72203 0)
(105.408 -2.63383 -9.77178e-16)
(105.388 -2.54974 9.58396e-16)
(105.365 -2.4695 -2.51554e-22)
(105.34 -2.39289 0)
(105.312 -2.31969 -9.4733e-16)
(105.283 -2.24971 9.58553e-16)
(105.253 -2.18277 -1.46924e-17)
(105.221 -2.11866 9.51505e-16)
(105.189 -2.05727 -1.46226e-17)
(105.156 -1.99837 -9.30285e-16)
(105.123 -1.94188 -1.33608e-22)
(105.089 -1.88773 9.23949e-16)
(105.056 -1.83577 -9.066e-16)
(105.024 -1.78588 9.03728e-16)
(104.992 -1.73787 -9.15291e-16)
(104.961 -1.69171 9.12507e-16)
(104.93 -1.6473 -9.09839e-16)
(104.9 -1.60462 -9.21333e-16)
(104.871 -1.56357 9.0458e-16)
(104.842 -1.52409 -1.40935e-17)
(104.814 -1.48623 1.40536e-17)
(104.786 -1.44987 -1.40154e-17)
(104.76 -1.4149 0)
(104.734 -1.38132 -7.23546e-23)
(104.708 -1.34908 8.89852e-16)
(104.683 -1.31813 -1.33139e-15)
(104.659 -1.28842 8.85376e-16)
(104.635 -1.25992 -1.3809e-17)
(104.612 -1.23256 -8.67337e-16)
(104.59 -1.20629 4.53262e-16)
(104.568 -1.18106 4.38524e-16)
(104.547 -1.15683 -4.51237e-16)
(104.526 -1.13356 0)
(104.506 -1.11125 -4.35713e-16)
(104.487 -1.08984 4.34843e-16)
(104.468 -1.06933 -4.54523e-23)
(104.451 -1.04966 0)
(104.434 -1.03081 -1.35102e-17)
(104.418 -1.01275 0)
(104.403 -0.995417 -1.34608e-17)
(104.388 -0.978814 1.34368e-17)
(104.375 -0.962903 0)
(104.363 -0.947628 -1.33905e-17)
(104.352 -0.932971 -2.7894e-23)
(104.342 -0.918903 -2.26873e-16)
(104.333 -0.905407 1.8653e-16)
(104.325 -0.892447 -1.33021e-17)
(104.318 -0.880009 -1.32804e-17)
(104.312 -0.868045 -2.65192e-17)
(104.307 -0.856541 -1.32383e-17)
(104.303 -0.845437 -2.24706e-16)
(104.3 -0.834731 2.11829e-21)
(104.299 -0.824321 2.10842e-16)
(104.298 -0.814173 -1.05253e-16)
(104.299 -0.804125 9.19662e-17)
(104.301 -0.79411 1.31172e-17)
(104.304 -0.783845 -2.61989e-17)
(104.308 -0.773115 -1.30788e-17)
(104.314 -0.761358 -1.30621e-17)
(104.323 -0.747733 3.91238e-17)
(104.333 -0.730916 -3.90707e-17)
(104.349 -0.710688 -2.73758e-17)
(116.092 -12.2582 1.93431e-15)
(115.029 -12.0394 -1.97125e-15)
(113.861 -11.7899 1.54014e-17)
(113.049 -11.3842 1.55242e-17)
(112.532 -10.9234 -2.01563e-15)
(112.184 -10.4658 1.99328e-15)
(111.946 -10.0203 2.01921e-15)
(111.797 -9.58684 -1.46907e-17)
(111.725 -9.1675 1.68354e-17)
(111.716 -8.76494 -1.50924e-17)
(111.757 -8.38062 -1.5253e-17)
(111.835 -8.01449 -2.05806e-15)
(111.943 -7.66604 0)
(112.072 -7.33443 -3.19656e-17)
(112.218 -7.01888 -2.04669e-15)
(112.376 -6.71855 -3.22552e-17)
(112.541 -6.43258 -2.24938e-19)
(112.712 -6.16021 2.04527e-15)
(112.885 -5.90083 -3.19397e-17)
(113.058 -5.6538 0)
(113.229 -5.41841 -3.18875e-17)
(113.396 -5.19397 0)
(113.557 -4.9799 -2.05223e-15)
(113.712 -4.7757 -1.5902e-17)
(113.86 -4.5808 2.01504e-15)
(113.999 -4.39494 1.58431e-17)
(114.129 -4.21769 -2.04059e-15)
(114.248 -4.04855 4.04332e-15)
(114.357 -3.88717 -3.15845e-17)
(114.454 -3.73334 -2.01462e-15)
(114.54 -3.58686 2.02651e-15)
(114.613 -3.4474 -2.02263e-15)
(114.674 -3.31459 0)
(114.721 -3.18813 7.61319e-22)
(114.756 -3.06768 0)
(114.777 -2.95297 -3.10844e-17)
(114.785 -2.84373 -9.76831e-16)
(114.78 -2.73974 9.74488e-16)
(114.763 -2.64079 0)
(114.735 -2.54667 1.00029e-15)
(114.694 -2.45714 -1.98002e-15)
(114.644 -2.37203 9.95e-16)
(114.582 -2.29116 -3.05306e-17)
(114.512 -2.21434 -1.52222e-17)
(114.432 -2.14138 -1.51783e-17)
(114.345 -2.07211 -1.51338e-17)
(114.25 -2.00635 0)
(114.149 -1.94394 0)
(114.043 -1.8847 9.2976e-16)
(113.931 -1.82842 -1.91342e-15)
(113.816 -1.77501 9.23791e-16)
(113.698 -1.7244 0)
(113.577 -1.67652 9.47078e-16)
(113.454 -1.63115 -9.58579e-16)
(113.331 -1.58811 0)
(113.207 -1.54724 -1.46448e-17)
(113.082 -1.50842 0)
(112.958 -1.47146 -9.30772e-16)
(112.835 -1.43622 1.84064e-15)
(112.713 -1.4026 -9.38839e-16)
(112.593 -1.37048 0)
(112.474 -1.33976 8.89429e-16)
(112.357 -1.31033 -9.15092e-16)
(112.242 -1.28211 7.87439e-23)
(112.129 -1.25501 0)
(112.018 -1.22895 1.416e-17)
(111.909 -1.20387 -9.31642e-16)
(111.803 -1.17974 9.00652e-16)
(111.7 -1.1565 -1.40306e-17)
(111.598 -1.1341 0)
(111.5 -1.1125 -1.39501e-17)
(111.403 -1.09163 4.59064e-16)
(111.309 -1.07149 -4.57826e-16)
(111.218 -1.05205 -4.56584e-16)
(111.129 -1.0333 8.83186e-16)
(111.042 -1.01524 -8.80878e-16)
(110.957 -0.997856 8.78642e-16)
(110.875 -0.981133 -4.38207e-16)
(110.794 -0.965054 -4.04152e-23)
(110.716 -0.94963 0)
(110.64 -0.934829 -4.34992e-16)
(110.566 -0.92065 8.54319e-16)
(110.495 -0.907106 -8.65857e-16)
(110.425 -0.894145 4.45414e-16)
(110.357 -0.881739 -2.02e-16)
(110.292 -0.869902 2.14971e-16)
(110.228 -0.858589 1.3406e-17)
(110.167 -0.847791 2.14009e-16)